INSANE! Membrane UpperLeaflet>loPI:POPI:DPPI:PYPI:ERGO=140.0:15.0:9.0:6.0:30.0 LowerLeaflet>PSPI:POPI:POPS:YOPS:POPE:YOPE:POPC:YOPC:ERGO=6.0:14.0:21.0:9.0:9.0:21.0:12.0:48.0:60.0
49207
    1loPI    C1    1   1.306  15.747  10.266 -0.2320  0.1780  0.0714
    1loPI    C2    2   1.465  16.091  10.397  0.1062  0.0327  0.0541
    1loPI    C3    3   1.481  15.762  10.626 -0.1048 -0.0037  0.0188
    1loPI   PO4    4   1.470  15.673  10.033 -0.0044 -0.1450 -0.0020
    1loPI   GL1    5   1.581  15.430   9.728  0.2251  0.1469  0.0802
    1loPI   GL2    6   1.229  15.330   9.675  0.4097 -0.1405 -0.0423
    1loPI   C1A    7   1.730  15.507   9.325  0.0308 -0.1737 -0.1107
    1loPI   C2A    8   1.782  15.819   9.061 -0.0083 -0.2195 -0.2671
    1loPI   C3A    9   1.833  16.067   8.715  0.1171  0.1673 -0.2514
    1loPI   C4A   10   1.629  16.026   8.302  0.2119 -0.0321 -0.0939
    1loPI   C5A   11   1.688  15.987   7.816  0.1072 -0.0157  0.1779
    1loPI   C6A   12   1.725  16.301   7.493 -0.0984  0.0065 -0.1079
    1loPI   C1B   13   1.257  15.272   9.300  0.3802 -0.2019 -0.0452
    1loPI   C2B   14   1.458  15.288   8.943  0.1465 -0.1391 -0.1341
    1loPI   C3B   15   1.706  15.427   8.629  0.1193 -0.4294  0.1035
    1loPI   C4B   16   1.700  15.522   8.220 -0.0507  0.3735 -0.2228
    2loPI    C1   17  16.529   8.645  10.584  0.1041  0.2408  0.0434
    2loPI    C2   18  16.347   8.608  10.230 -0.2675  0.0465  0.2489
    2loPI    C3   19  16.160   8.790  10.533  0.0581  0.2353  0.3419
    2loPI   PO4   20  16.746   8.785  10.476  0.0610  0.1312 -0.0116
    2loPI   GL1   21  16.777   8.844  10.053 -0.1648 -0.0010 -0.1279
    2loPI   GL2   22  17.117   8.651  10.159  0.2199  0.2516  0.0326
    2loPI   C1A   23  16.915   9.054   9.731 -0.1758  0.0824 -0.0433
    2loPI   C2A   24  17.014   9.072   9.314  0.3329  0.2233  0.3496
    2loPI   C3A   25  16.931   9.338   8.910 -0.0695  0.3015  0.1089
    2loPI   C4A   26  16.762   9.319   8.571  0.1748  0.2420  0.0721
    2loPI   C5A   27  16.770   8.975   8.283 -0.2596  0.0848 -0.3360
    2loPI   C6A   28  16.732   8.824   7.920 -0.0952  0.0296 -0.0609
    2loPI   C1B   29  16.973   8.341  10.007  0.1747  0.0746  0.0712
    2loPI   C2B   30  16.793   8.491   9.687  0.1020 -0.0650 -0.1941
    2loPI   C3B   31  16.847   8.632   9.205 -0.1178 -0.1056  0.0824
    2loPI   C4B   32  17.271   8.710   9.061  0.0569  0.3203  0.0936
    3loPI    C1   33   7.796   5.597  10.504  0.0101  0.1008 -0.1295
    3loPI    C2   34   7.944   5.805  10.812 -0.1407 -0.0596  0.0541
    3loPI    C3   35   7.571   5.661  10.829 -0.0778 -0.2461 -0.1183
    3loPI   PO4   36   7.694   5.678  10.200 -0.0437 -0.1191  0.1512
    3loPI   GL1   37   8.042   5.689   9.835  0.2367 -0.0912  0.0636
    3loPI   GL2   38   7.984   5.420   9.839 -0.0740 -0.3313 -0.1279
    3loPI   C1A   39   7.996   5.899   9.442  0.2436  0.0634  0.2236
    3loPI   C2A   40   8.050   5.950   9.012  0.2584 -0.1785  0.3906
    3loPI   C3A   41   7.805   6.002   8.595  0.0233 -0.0895  0.0261
    3loPI   C4A   42   7.602   6.097   8.137 -0.2275 -0.0397 -0.1384
    3loPI   C5A   43   7.178   6.064   8.048  0.1132  0.0258  0.0300
    3loPI   C6A   44   6.796   5.968   8.040 -0.1024  0.0315  0.1004
    3loPI   C1B   45   7.966   5.369   9.390  0.0285  0.4687  0.2308
    3loPI   C2B   46   8.028   5.452   8.984 -0.1193  0.2682 -0.3062
    3loPI   C3B   47   8.171   5.586   8.660  0.3625  0.2789  0.1641
    3loPI   C4B   48   8.211   5.602   8.223 -0.0305 -0.0719  0.2840
    4loPI    C1   49  17.309  15.399   9.798 -0.1111 -0.1069 -0.1071
    4loPI    C2   50  17.437  15.281  10.158 -0.0634  0.1363 -0.0424
    4loPI    C3   51  17.045  15.297  10.080 -0.0742  0.0992  0.0040
    4loPI   PO4   52  17.564  15.315   9.675 -0.2325 -0.0654 -0.1998
    4loPI   GL1   53  17.636  15.042   9.296  0.0905 -0.0267 -0.7772
    4loPI   GL2   54  17.921  14.949   9.245  0.0261 -0.0413  0.1843
    4loPI   C1A   55  17.563  15.080   8.786 -0.1992 -0.1753  0.0195
    4loPI   C2A   56  17.749  14.989   8.430 -0.0187 -0.3774  0.0940
    4loPI   C3A   57  17.748  15.151   8.095 -0.2809 -0.2023  0.0357
    4loPI   C4A   58  17.859  15.041   7.707 -0.1101 -0.1202 -0.2003
    4loPI   C5A   59  18.071  14.856   7.367  0.1449  0.3438 -0.0216
    4loPI   C6A   60  18.101  14.958   6.976  0.3148 -0.0733 -0.0983
    4loPI   C1B   61  18.075  15.053   8.870  0.2426  0.0049  0.1024
    4loPI   C2B   62  18.189  15.039   8.515 -0.0134  0.0475  0.2247
    4loPI   C3B   63  18.221  15.043   8.103 -0.3987 -0.2824 -0.2157
    4loPI   C4B   64  18.474  15.183   7.752  0.0873 -0.2709  0.2582
    5loPI    C1   65  13.369   8.719  10.178 -0.0640 -0.1172 -0.0816
    5loPI    C2   66  13.598   8.808   9.862 -0.0041 -0.1228 -0.0397
    5loPI    C3   67  13.760   8.791  10.228 -0.0904 -0.0308  0.0031
    5loPI   PO4   68  13.151   8.703  10.054 -0.5122  0.1673 -0.3806
    5loPI   GL1   69  13.004   8.569   9.629 -0.1230  0.2134  0.0438
    5loPI   GL2   70  13.200   8.393   9.672  0.2270  0.0434  0.0728
    5loPI   C1A   71  12.957   8.665   9.243  0.1998 -0.1096  0.0983
    5loPI   C2A   72  13.115   8.924   8.970  0.1085  0.2232  0.1563
    5loPI   C3A   73  13.035   8.897   8.558 -0.1228  0.0441 -0.4638
    5loPI   C4A   74  13.059   8.861   8.105 -0.2275  0.0162 -0.0511
    5loPI   C5A   75  12.965   8.766   7.754 -0.3184  0.1746 -0.1321
    5loPI   C6A   76  12.892   9.017   7.505  0.0243  0.0440 -0.0957
    5loPI   C1B   77  13.453   8.664   9.346  0.0574  0.0915  0.1563
    5loPI   C2B   78  13.552   9.097   9.223 -0.0006  0.3389 -0.1620
    5loPI   C3B   79  13.938   9.334   9.312 -0.0647  0.0055  0.0927
    5loPI   C4B   80  14.206   9.577   9.575 -0.1888 -0.1258  0.0409
    6loPI    C1   81   0.346  11.999  10.406 -0.1324  0.1698  0.0598
    6loPI    C2   82   0.502  11.761  10.687  0.1820  0.0346 -0.2224
    6loPI    C3   83   0.364  12.123  10.786 -0.0417 -0.1489  0.1628
    6loPI   PO4   84   0.400  11.849  10.129  0.1395  0.2465 -0.3761
    6loPI   GL1   85   0.071  11.574   9.868  0.0869  0.0713 -0.0185
    6loPI   GL2   86   0.102  11.863   9.669  0.0665  0.1633  0.2507
    6loPI   C1A   87   0.398  11.324   9.607 -0.0098 -0.1241  0.1275
    6loPI   C2A   88   0.359  11.250   9.120 -0.1562  0.0484 -0.1233
    6loPI   C3A   89   0.287  11.178   8.611 -0.1159  0.0264  0.2039
    6loPI   C4A   90   0.272  11.193   8.065 -0.1054  0.3442  0.3189
    6loPI   C5A   91   0.288  10.940   7.715  0.0525  0.1987  0.1291
    6loPI   C6A   92   0.052  10.616   7.485  0.0477  0.0401  0.3843
    6loPI   C1B   93   0.122  11.693   9.315  0.2133  0.2124 -0.0166
    6loPI   C2B   94   0.089  11.674   8.842  0.2776  0.2640  0.0864
    6loPI   C3B   95   0.112  11.562   8.338  0.1452  0.0421  0.2960
    6loPI   C4B   96   0.173  11.827   7.880  0.1349 -0.2276 -0.1740
    7loPI    C1   97   6.097   1.530  10.259  0.0752  0.1012  0.1818
    7loPI    C2   98   6.154   1.795  10.553 -0.0553  0.0199  0.2809
    7loPI    C3   99   6.258   1.412  10.606 -0.0742  0.0062  0.2196
    7loPI   PO4  100   6.158   1.547  10.088 -0.1363 -0.1454 -0.2050
    7loPI   GL1  101   6.070   1.714   9.689  0.3904 -0.0249 -0.2551
    7loPI   GL2  102   5.836   1.521   9.634 -0.5020 -0.1533 -0.0624
    7loPI   C1A  103   5.994   1.895   9.390  0.0828 -0.1190  0.3107
    7loPI   C2A  104   5.938   1.921   8.993 -0.1441 -0.2188  0.1667
    7loPI   C3A  105   5.935   1.872   8.526 -0.2051  0.2559  0.2783
    7loPI   C4A  106   5.769   2.087   8.117  0.1466 -0.0073  0.1277
    7loPI   C5A  107   5.547   2.418   7.802 -0.0702  0.6263 -0.1420
    7loPI   C6A  108   5.190   2.432   7.564 -0.2310 -0.2325  0.0237
    7loPI   C1B  109   6.128   1.443   9.277  0.1805 -0.0136 -0.1646
    7loPI   C2B  110   6.050   1.440   8.852 -0.2465 -0.0575  0.0358
    7loPI   C3B  111   6.008   1.365   8.500  0.0771 -0.1081 -0.2031
    7loPI   C4B  112   5.951   1.275   8.040  0.0708 -0.0886  0.1328
    8loPI    C1  113  17.341   2.284  10.113 -0.2666  0.0212  0.1032
    8loPI    C2  114  17.130   2.518   9.867 -0.0883  0.0379 -0.0362
    8loPI    C3  115  17.163   2.613  10.254 -0.3018  0.0561 -0.0212
    8loPI   PO4  116  17.530   2.200   9.896  0.1696 -0.1365 -0.1202
    8loPI   GL1  117  17.696   2.145   9.526 -0.4926 -0.1423 -0.0765
    8loPI   GL2  118  17.432   1.992   9.419 -0.5651 -0.3011 -0.0604
    8loPI   C1A  119  17.887   2.285   9.087  0.1460  0.1409  0.2112
    8loPI   C2A  120  17.951   2.417   8.736  0.0511  0.1148  0.1173
    8loPI   C3A  121  17.981   2.600   8.381  0.1819 -0.1556  0.0328
    8loPI   C4A  122  18.044   2.490   7.902 -0.0831  0.0317  0.1824
    8loPI   C5A  123  18.110   2.180   7.688  0.0192 -0.2342 -0.1606
    8loPI   C6A  124  18.530   2.041   7.495  0.1912 -0.1127 -0.3084
    8loPI   C1B  125  17.480   1.967   9.034 -0.1032  0.0799  0.0429
    8loPI   C2B  126  17.547   2.087   8.651  0.2838 -0.3047  0.0688
    8loPI   C3B  127  17.676   2.114   8.192 -0.0410  0.4343 -0.0199
    8loPI   C4B  128  17.622   2.183   7.756 -0.0254 -0.1046  0.0776
    9loPI    C1  129   2.479  11.664  10.849 -0.1789 -0.0178  0.1497
    9loPI    C2  130   2.183  11.520  11.077 -0.1647  0.0923  0.2383
    9loPI    C3  131   2.153  11.885  10.916 -0.2538 -0.0544 -0.0854
    9loPI   PO4  132   2.489  11.367  10.650  0.1519 -0.1989  0.1833
    9loPI   GL1  133   2.471  11.439  10.141  0.1066 -0.0164 -0.1287
    9loPI   GL2  134   2.135  11.332  10.183 -0.1161  0.3683 -0.2210
    9loPI   C1A  135   2.465  11.259   9.795  0.1034 -0.1369  0.0094
    9loPI   C2A  136   2.380  11.167   9.404  0.0768  0.0221  0.0823
    9loPI   C3A  137   2.638  11.039   9.039 -0.0392 -0.0011  0.1160
    9loPI   C4A  138   2.418  10.956   8.681 -0.1013 -0.1207  0.2059
    9loPI   C5A  139   2.369  10.774   8.240  0.0114  0.4569 -0.1434
    9loPI   C6A  140   2.593  10.404   8.079 -0.0846 -0.3823  0.3075
    9loPI   C1B  141   1.986  11.207   9.772 -0.0170  0.2562 -0.0820
    9loPI   C2B  142   1.848  11.138   9.326 -0.1593  0.0174 -0.3999
    9loPI   C3B  143   1.908  11.069   8.850 -0.1035  0.1223 -0.1850
    9loPI   C4B  144   2.010  11.047   8.457  0.1027  0.0896 -0.1453
   10loPI    C1  145   8.832  16.100  10.034  0.0445  0.3309  0.3615
   10loPI    C2  146   9.176  16.189  10.218  0.1701  0.0081  0.2895
   10loPI    C3  147   8.873  16.031  10.426  0.2205 -0.1136  0.2719
   10loPI   PO4  148   8.907  15.980   9.736 -0.2701  0.1186  0.0336
   10loPI   GL1  149   8.874  16.150   9.362 -0.3420 -0.5099  0.3657
   10loPI   GL2  150   9.104  16.411   9.317 -0.0698 -0.1192 -0.0097
   10loPI   C1A  151   8.718  16.132   9.027  0.3298 -0.0462 -0.0657
   10loPI   C2A  152   8.772  16.164   8.616  0.0129  0.0575 -0.1865
   10loPI   C3A  153   8.989  16.142   8.234  0.2503  0.1155  0.2594
   10loPI   C4A  154   9.176  15.915   7.925 -0.3638 -0.0826  0.0913
   10loPI   C5A  155   9.498  15.889   7.557 -0.2512 -0.0641  0.0399
   10loPI   C6A  156   9.902  15.827   7.282  0.1490  0.1961  0.3377
   10loPI   C1B  157   9.181  16.465   8.895  0.0074 -0.3048  0.2636
   10loPI   C2B  158   9.203  16.680   8.599 -0.3527 -0.1375 -0.0679
   10loPI   C3B  159   9.255  16.637   8.129  0.0870  0.0914 -0.1468
   10loPI   C4B  160   9.490  16.370   7.809 -0.0749  0.2289 -0.1339
   11loPI    C1  161  15.213  16.298   9.389 -0.2027 -0.0610  0.0368
   11loPI    C2  162  15.232  15.906   9.463  0.0610 -0.0597 -0.0141
   11loPI    C3  163  15.254  16.167   9.765  0.1064 -0.0792 -0.0004
   11loPI   PO4  164  15.429  16.375   9.223 -0.0211 -0.0527 -0.1236
   11loPI   GL1  165  15.762  16.320   8.968 -0.0160  0.2463 -0.0553
   11loPI   GL2  166  15.705  16.638   8.897 -0.0375  0.0970 -0.0734
   11loPI   C1A  167  15.900  16.149   8.573  0.0323  0.0020 -0.0012
   11loPI   C2A  168  15.920  16.352   8.215  0.1914 -0.0633 -0.2454
   11loPI   C3A  169  16.155  16.272   7.782 -0.1153 -0.0673 -0.3092
   11loPI   C4A  170  16.054  15.796   7.456  0.0355 -0.1571 -0.0257
   11loPI   C5A  171  15.796  15.571   7.015 -0.3571  0.2637  0.1453
   11loPI   C6A  172  15.800  15.790   6.662  0.2753  0.1281  0.3845
   11loPI   C1B  173  15.601  16.590   8.558 -0.3927 -0.0110  0.0859
   11loPI   C2B  174  15.550  16.681   8.152 -0.1622  0.0666  0.2979
   11loPI   C3B  175  15.588  16.590   7.711 -0.0763 -0.0877 -0.5634
   11loPI   C4B  176  15.487  16.442   7.399  0.1632  0.1117  0.0992
   12loPI    C1  177  10.355   9.470  10.077 -0.2514  0.1937 -0.0270
   12loPI    C2  178  10.193   9.494  10.442  0.2057 -0.2354  0.2161
   12loPI    C3  179  10.587   9.548  10.394  0.1314 -0.0573 -0.2372
   12loPI   PO4  180  10.257   9.612   9.918  0.0053 -0.1475 -0.2188
   12loPI   GL1  181  10.155   9.659   9.520  0.3611 -0.2621 -0.0273
   12loPI   GL2  182   9.878   9.631   9.343  0.0290 -0.0190 -0.1742
   12loPI   C1A  183  10.419   9.868   9.213  0.2443 -0.4525 -0.0196
   12loPI   C2A  184  10.511   9.931   8.797  0.1788  0.0971 -0.1458
   12loPI   C3A  185  10.314   9.744   8.473  0.1494  0.3518  0.1673
   12loPI   C4A  186  10.335   9.758   8.038 -0.1773 -0.2875  0.4112
   12loPI   C5A  187  10.526  10.072   7.705 -0.0333  0.0565  0.2949
   12loPI   C6A  188  10.401  10.051   7.278 -0.2852  0.0935 -0.0382
   12loPI   C1B  189   9.771   9.488   8.882 -0.3382  0.0051 -0.0621
   12loPI   C2B  190   9.875   9.391   8.499 -0.1075  0.2395 -0.0364
   12loPI   C3B  191   9.911   9.451   7.992 -0.2829  0.1675  0.0197
   12loPI   C4B  192  10.220   9.119   7.746  0.0681 -0.1515  0.1964
   13loPI    C1  193   4.352   5.810  10.388  0.1117  0.0870  0.2499
   13loPI    C2  194   4.667   5.663  10.190  0.1133  0.2563  0.1247
   13loPI    C3  195   4.652   5.638  10.589  0.1644  0.0175  0.1130
   13loPI   PO4  196   4.301   6.079  10.277  0.0717 -0.2052  0.0293
   13loPI   GL1  197   4.539   6.279   9.895  0.2435  0.0462 -0.0793
   13loPI   GL2  198   4.700   6.082   9.921  0.1141 -0.0695  0.2932
   13loPI   C1A  199   4.363   6.211   9.519  0.1055 -0.0828 -0.0970
   13loPI   C2A  200   4.147   6.052   9.108  0.0551 -0.4221 -0.0938
   13loPI   C3A  201   4.105   6.038   8.690 -0.0808  0.0896  0.0646
   13loPI   C4A  202   4.092   6.063   8.292  0.1903 -0.3074  0.0286
   13loPI   C5A  203   4.095   5.864   7.869 -0.0772 -0.2036  0.2056
   13loPI   C6A  204   3.901   5.581   7.581  0.0674  0.1877 -0.1290
   13loPI   C1B  205   4.797   5.943   9.470 -0.2871 -0.0333 -0.1398
   13loPI   C2B  206   4.637   6.141   9.094 -0.0685 -0.2878 -0.0962
   13loPI   C3B  207   4.425   6.463   8.942  0.1877  0.1367  0.2036
   13loPI   C4B  208   4.376   6.486   8.492  0.2441  0.0270  0.0858
   14loPI    C1  209  17.478   3.113  10.293 -0.1178 -0.2445  0.2771
   14loPI    C2  210  17.661   3.395  10.510  0.0097  0.0481 -0.1964
   14loPI    C3  211  17.268   3.332  10.553  0.0022  0.2167 -0.0041
   14loPI   PO4  212  17.594   3.144  10.053  0.2427  0.0390  0.0949
   14loPI   GL1  213  17.379   2.977   9.664 -0.0108  0.0868  0.0945
   14loPI   GL2  214  17.573   2.605   9.584  0.0463  0.0882  0.0184
   14loPI   C1A  215  17.328   3.062   9.255 -0.0171 -0.3341 -0.2603
   14loPI   C2A  216  17.533   3.104   8.911 -0.0349 -0.1408 -0.1700
   14loPI   C3A  217  17.704   3.089   8.473 -0.1166  0.1719 -0.0184
   14loPI   C4A  218  17.808   2.988   8.131  0.0397  0.2565 -0.3184
   14loPI   C5A  219  17.600   2.675   7.846  0.3471 -0.4055 -0.3709
   14loPI   C6A  220  17.387   2.552   7.465 -0.0713  0.0852  0.2891
   14loPI   C1B  221  17.510   2.543   9.147 -0.1776  0.0251  0.0988
   14loPI   C2B  222  17.537   2.656   8.793 -0.2853  0.0228  0.0755
   14loPI   C3B  223  17.480   2.579   8.364 -0.1119 -0.0616  0.1158
   14loPI   C4B  224  17.288   2.350   8.094  0.0743  0.1223 -0.0468
   15loPI    C1  225   0.633   1.215  10.248  0.0857 -0.3077  0.0088
   15loPI    C2  226   0.953   1.108  10.463  0.1507  0.1072  0.1281
   15loPI    C3  227   0.594   1.135  10.638  0.1667  0.2491  0.1402
   15loPI   PO4  228   0.708   1.162  10.001  0.1991  0.0640  0.1251
   15loPI   GL1  229   0.891   1.058   9.654 -0.0468 -0.4600 -0.0391
   15loPI   GL2  230   0.665   1.057   9.438 -0.0067  0.0802  0.2516
   15loPI   C1A  231   1.002   0.701   9.256 -0.1433  0.0281  0.0961
   15loPI   C2A  232   1.170   0.540   8.954 -0.1142 -0.1530  0.2504
   15loPI   C3A  233   1.561   0.312   8.777  0.0575  0.0336  0.2935
   15loPI   C4A  234   1.738   0.308   8.370  0.1735  0.4894 -0.0482
   15loPI   C5A  235   1.822  -0.019   8.109  0.1575 -0.1308 -0.2366
   15loPI   C6A  236   1.952  -0.134   7.702  0.3916 -0.3668  0.1157
   15loPI   C1B  237   0.640   0.981   9.028 -0.0386 -0.0208 -0.2098
   15loPI   C2B  238   0.508   0.875   8.677 -0.1223 -0.0537 -0.0980
   15loPI   C3B  239   0.443   0.780   8.170 -0.1306 -0.1997 -0.0219
   15loPI   C4B  240   0.304   0.422   7.750  0.2522  0.2231 -0.0881
   16loPI    C1  241   9.010   8.165  10.747 -0.5572 -0.2712 -0.1232
   16loPI    C2  242   8.809   8.384  11.014 -0.1040  0.0024  0.0048
   16loPI    C3  243   8.978   8.039  11.125 -0.2138 -0.0594 -0.0187
   16loPI   PO4  244   8.902   8.380  10.491 -0.2183  0.1350 -0.3251
   16loPI   GL1  245   8.700   8.335  10.090 -0.1184 -0.2434  0.1094
   16loPI   GL2  246   9.089   8.281   9.977  0.0911 -0.1076  0.1239
   16loPI   C1A  247   8.652   8.672   9.720  0.0672 -0.0947 -0.0314
   16loPI   C2A  248   8.573   8.672   9.357  0.0303  0.1218 -0.1087
   16loPI   C3A  249   8.482   8.604   8.922  0.0283  0.0704  0.0877
   16loPI   C4A  250   8.573   8.579   8.485  0.3139 -0.2194  0.2655
   16loPI   C5A  251   8.480   8.804   8.007  0.0267 -0.0696  0.1576
   16loPI   C6A  252   8.435   9.190   7.900  0.0141 -0.0030  0.2388
   16loPI   C1B  253   8.786   8.218   9.586 -0.1562  0.1025 -0.1752
   16loPI   C2B  254   8.767   8.211   9.196 -0.0709 -0.2422  0.1912
   16loPI   C3B  255   8.778   8.090   8.796  0.0228  0.1173  0.0057
   16loPI   C4B  256   8.773   8.165   8.327 -0.0254 -0.1599  0.1652
   17loPI    C1  257   8.934   2.338  10.493  0.1003  0.0801  0.0509
   17loPI    C2  258   8.752   2.621  10.710 -0.0757 -0.1546  0.2139
   17loPI    C3  259   8.977   2.343  10.890  0.1629 -0.0731  0.0466
   17loPI   PO4  260   8.856   2.481  10.189  0.0466 -0.0128  0.0259
   17loPI   GL1  261   9.005   2.560   9.796 -0.1684  0.0527 -0.0668
   17loPI   GL2  262   8.905   2.318   9.549 -0.1919 -0.0246 -0.2502
   17loPI   C1A  263   9.054   2.879   9.472  0.0181 -0.0438  0.0754
   17loPI   C2A  264   9.210   2.921   9.105  0.1782 -0.2079 -0.0369
   17loPI   C3A  265   9.199   2.918   8.717  0.1296  0.0725  0.0585
   17loPI   C4A  266   9.117   2.931   8.331 -0.2542 -0.4997  0.1674
   17loPI   C5A  267   9.043   2.855   7.878 -0.0519 -0.1989  0.2413
   17loPI   C6A  268   8.760   2.776   7.551 -0.0973 -0.0503  0.3140
   17loPI   C1B  269   8.931   2.467   9.159  0.0721  0.0243 -0.0461
   17loPI   C2B  270   8.915   2.529   8.760  0.0004  0.0447 -0.0360
   17loPI   C3B  271   8.798   2.572   8.373 -0.0811  0.0526  0.0658
   17loPI   C4B  272   8.823   2.426   7.920  0.0625  0.0894  0.1170
   18loPI    C1  273  14.336  12.715  10.289 -0.0460  0.2119 -0.0032
   18loPI    C2  274  14.416  13.107  10.281  0.0660  0.1953  0.2328
   18loPI    C3  275  14.693  12.849  10.412 -0.0086  0.0369  0.0817
   18loPI   PO4  276  14.274  12.581  10.024 -0.0658 -0.0811  0.0603
   18loPI   GL1  277  14.287  12.555   9.587  0.0719  0.0168 -0.0039
   18loPI   GL2  278  14.526  12.306   9.608 -0.1981 -0.0382 -0.1584
   18loPI   C1A  279  14.005  12.355   9.319 -0.0748  0.0607  0.1490
   18loPI   C2A  280  14.052  12.131   8.902 -0.1096 -0.2137  0.0642
   18loPI   C3A  281  14.028  12.153   8.365  0.2654 -0.1151 -0.0259
   18loPI   C4A  282  13.734  12.281   7.984 -0.3049 -0.0697 -0.0375
   18loPI   C5A  283  13.316  12.094   7.875 -0.0917  0.0618 -0.0826
   18loPI   C6A  284  13.157  11.691   7.757  0.2733  0.2123  0.0512
   18loPI   C1B  285  14.512  12.250   9.098  0.0281 -0.1760  0.0602
   18loPI   C2B  286  14.463  12.272   8.682  0.0660 -0.2422 -0.2133
   18loPI   C3B  287  14.500  12.338   8.285 -0.0017  0.0964  0.0385
   18loPI   C4B  288  14.206  12.381   7.918  0.0638 -0.0975  0.3738
   19loPI    C1  289  18.335   1.578  10.435 -0.0268  0.2138  0.0833
   19loPI    C2  290  18.714   1.461  10.489 -0.1525 -0.2105  0.0774
   19loPI    C3  291  18.560   1.752  10.717  0.1584 -0.0718  0.1153
   19loPI   PO4  292  18.319   1.612  10.155 -0.1806 -0.1845 -0.2017
   19loPI   GL1  293  18.381   1.641   9.705 -0.1377  0.0453  0.2236
   19loPI   GL2  294  18.324   1.419   9.535 -0.0947  0.1218 -0.4193
   19loPI   C1A  295  18.576   1.861   9.402  0.2047 -0.0882 -0.0059
   19loPI   C2A  296  18.838   1.774   9.002  0.1223 -0.2825  0.2635
   19loPI   C3A  297  18.772   1.985   8.605  0.3423  0.4375  0.3780
   19loPI   C4A  298  18.878   2.207   8.359  0.1267  0.1286  0.1950
   19loPI   C5A  299  18.881   2.340   7.762 -0.1388  0.1640 -0.1465
   19loPI   C6A  300  19.240   2.497   7.559  0.0733  0.2855 -0.2392
   19loPI   C1B  301  18.429   1.415   9.095  0.0428 -0.1700 -0.0429
   19loPI   C2B  302  18.565   1.527   8.650  0.2901 -0.1403  0.0087
   19loPI   C3B  303  18.897   1.574   8.341 -0.4140 -0.0421 -0.0319
   19loPI   C4B  304  18.862   1.660   7.914 -0.0913 -0.0626 -0.0357
   20loPI    C1  305  11.324  17.997   9.846  0.0129 -0.3412 -0.0612
   20loPI    C2  306  11.188  17.747  10.127  0.0240 -0.1227  0.1413
   20loPI    C3  307  11.364  18.091  10.232  0.0373 -0.0422 -0.1337
   20loPI   PO4  308  11.081  17.966   9.653  0.2348 -0.0873  0.2961
   20loPI   GL1  309  10.759  17.795   9.402  0.1171 -0.0014  0.2968
   20loPI   GL2  310  10.503  18.040   9.289  0.0319  0.1024  0.1104
   20loPI   C1A  311  10.876  17.848   8.984  0.2134  0.0268  0.2878
   20loPI   C2A  312  10.722  17.900   8.605 -0.1628 -0.0118  0.1028
   20loPI   C3A  313  10.746  17.685   8.285  0.3404  0.1372  0.1640
   20loPI   C4A  314  10.911  17.644   7.979 -0.2294 -0.2044  0.1409
   20loPI   C5A  315  10.813  17.732   7.445 -0.1470  0.3611  0.0626
   20loPI   C6A  316  10.542  17.697   7.068 -0.3032 -0.0020  0.0351
   20loPI   C1B  317  10.485  18.196   8.877 -0.1757 -0.0471  0.0108
   20loPI   C2B  318  10.509  18.327   8.524  0.2892  0.0564  0.0378
   20loPI   C3B  319  10.662  18.136   8.183  0.0172  0.2645 -0.0754
   20loPI   C4B  320  10.697  18.096   7.768 -0.2935  0.0059  0.0923
   21loPI    C1  321  15.654  12.819  10.135  0.1536 -0.0546  0.2972
   21loPI    C2  322  15.345  12.841  10.389  0.0859 -0.1993  0.2283
   21loPI    C3  323  15.695  13.009  10.485 -0.0491  0.0719  0.2541
   21loPI   PO4  324  15.537  12.986   9.860 -0.0998 -0.1790 -0.0951
   21loPI   GL1  325  15.447  13.055   9.433  0.1444 -0.1585  0.3556
   21loPI   GL2  326  15.223  12.764   9.290 -0.0938  0.1644 -0.1288
   21loPI   C1A  327  15.668  13.057   9.031 -0.0156 -0.1069 -0.0397
   21loPI   C2A  328  15.758  12.850   8.719 -0.0620  0.3497  0.1577
   21loPI   C3A  329  15.871  12.784   8.268 -0.0469  0.1733 -0.1372
   21loPI   C4A  330  15.827  12.689   7.866 -0.1819 -0.2240  0.1684
   21loPI   C5A  331  15.549  12.547   7.571 -0.1517 -0.1587  0.1223
   21loPI   C6A  332  15.121  12.420   7.312 -0.4845 -0.1498 -0.1209
   21loPI   C1B  333  15.262  12.817   8.856 -0.1944 -0.0204 -0.3997
   21loPI   C2B  334  15.326  12.935   8.516 -0.0546  0.1396  0.0713
   21loPI   C3B  335  15.488  13.073   8.107 -0.0102 -0.1322 -0.1577
   21loPI   C4B  336  15.590  13.106   7.610  0.2482  0.1883 -0.0844
   22loPI    C1  337   2.686   2.897  10.399  0.2460  0.0582  0.0171
   22loPI    C2  338   2.351   3.044  10.559  0.1023  0.1242 -0.3355
   22loPI    C3  339   2.656   2.939  10.795 -0.1408  0.1234 -0.0158
   22loPI   PO4  340   2.734   3.030  10.196 -0.0821  0.0738  0.0618
   22loPI   GL1  341   2.697   3.191   9.764 -0.0301 -0.0193  0.1169
   22loPI   GL2  342   2.918   2.954   9.724 -0.1800  0.0324  0.1068
   22loPI   C1A  343   2.378   3.354   9.524  0.1429  0.0194  0.3231
   22loPI   C2A  344   2.424   3.377   9.194  0.0057  0.2110  0.0685
   22loPI   C3A  345   2.487   3.414   8.734 -0.2252 -0.0610  0.3717
   22loPI   C4A  346   2.550   3.513   8.316  0.0907  0.1429 -0.2655
   22loPI   C5A  347   2.477   3.604   7.870 -0.1841 -0.0504 -0.1227
   22loPI   C6A  348   2.558   3.438   7.520 -0.3313 -0.1303 -0.0228
   22loPI   C1B  349   2.798   2.929   9.241 -0.2630  0.3852  0.3124
   22loPI   C2B  350   2.735   2.980   8.838 -0.0177 -0.2873 -0.0547
   22loPI   C3B  351   2.718   2.981   8.355 -0.1054 -0.1501  0.0885
   22loPI   C4B  352   2.731   3.127   7.910 -0.0501  0.3003  0.2380
   23loPI    C1  353  10.039   0.607  10.051 -0.1701 -0.1198  0.0412
   23loPI    C2  354  10.083   0.685  10.441  0.0125 -0.3169  0.0619
   23loPI    C3  355  10.055   0.306  10.315 -0.1028 -0.2518 -0.1116
   23loPI   PO4  356   9.801   0.695   9.959 -0.2497 -0.3615 -0.0760
   23loPI   GL1  357   9.886   0.947   9.581  0.0124 -0.0069  0.3076
   23loPI   GL2  358  10.185   1.042   9.615  0.0856  0.0028 -0.2617
   23loPI   C1A  359   9.789   1.134   9.197 -0.2674 -0.2312 -0.0644
   23loPI   C2A  360   9.947   1.181   8.812 -0.3001 -0.1638  0.1827
   23loPI   C3A  361   9.951   0.920   8.365 -0.4750 -0.2168 -0.1491
   23loPI   C4A  362  10.026   0.814   7.909  0.0954 -0.0325 -0.1700
   23loPI   C5A  363   9.953   0.435   7.617 -0.1164  0.0280  0.0235
   23loPI   C6A  364  10.134   0.402   7.140 -0.5072  0.2332 -0.0057
   23loPI   C1B  365  10.284   0.949   9.167 -0.1563  0.1993 -0.0494
   23loPI   C2B  366  10.355   0.897   8.779  0.0410  0.2201 -0.1484
   23loPI   C3B  367  10.431   0.986   8.410 -0.0546  0.2331  0.2035
   23loPI   C4B  368  10.424   1.156   8.018  0.0414 -0.0024  0.2711
   24loPI    C1  369  15.464   3.649  10.211  0.1578 -0.1938 -0.0255
   24loPI    C2  370  15.778   3.436  10.336  0.2077  0.0369  0.2527
   24loPI    C3  371  15.784   3.835  10.362  0.0191  0.0618 -0.0394
   24loPI   PO4  372  15.442   3.488   9.972  0.0876  0.0090 -0.1688
   24loPI   GL1  373  15.395   3.374   9.546 -0.1698 -0.0326  0.0071
   24loPI   GL2  374  15.714   3.435   9.522  0.3116 -0.0464  0.2690
   24loPI   C1A  375  15.175   3.491   9.177 -0.1267  0.0376 -0.0646
   24loPI   C2A  376  15.226   3.534   8.681 -0.0837  0.0666 -0.1477
   24loPI   C3A  377  15.482   3.475   8.306  0.0494  0.1422  0.2691
   24loPI   C4A  378  15.840   3.586   8.013  0.1329  0.1465  0.0252
   24loPI   C5A  379  16.364   3.429   7.939 -0.1252 -0.2713 -0.1293
   24loPI   C6A  380  16.694   3.678   7.805  0.1106  0.3365  0.1919
   24loPI   C1B  381  15.673   3.450   9.019 -0.2700  0.2158 -0.0194
   24loPI   C2B  382  15.772   3.312   8.660  0.1720 -0.1754 -0.0695
   24loPI   C3B  383  16.183   3.327   8.425 -0.0269 -0.0081 -0.3843
   24loPI   C4B  384  16.582   3.621   8.325  0.0231 -0.1859  0.0683
   25loPI    C1  385   5.681   3.299  10.396  0.4703  0.1974 -0.0009
   25loPI    C2  386   5.630   3.691  10.455 -0.0189  0.1082  0.2171
   25loPI    C3  387   5.398   3.428  10.647  0.0830 -0.2805 -0.1759
   25loPI   PO4  388   5.738   3.329  10.082  0.2048  0.1125  0.1329
   25loPI   GL1  389   5.769   3.248   9.665  0.1124  0.0395 -0.2836
   25loPI   GL2  390   6.039   3.414   9.394 -0.0377  0.0688  0.5066
   25loPI   C1A  391   5.627   3.138   9.233  0.2526 -0.3764  0.1321
   25loPI   C2A  392   5.552   3.253   8.784 -0.1269 -0.1517 -0.2400
   25loPI   C3A  393   5.422   3.361   8.416 -0.5025 -0.1951  0.0517
   25loPI   C4A  394   5.129   3.490   8.053  0.1365 -0.2928 -0.0359
   25loPI   C5A  395   4.830   3.705   7.771  0.0108 -0.0539  0.0613
   25loPI   C6A  396   4.717   3.775   7.329  0.0268 -0.0451 -0.1315
   25loPI   C1B  397   5.993   3.519   8.951  0.3024 -0.2978 -0.2403
   25loPI   C2B  398   5.935   3.663   8.540  0.3055 -0.0111  0.0055
   25loPI   C3B  399   6.050   3.755   8.138 -0.4627 -0.1075 -0.2114
   25loPI   C4B  400   6.114   3.530   7.693  0.0645 -0.1672 -0.0549
   26loPI    C1  401   7.347   1.832   9.740 -0.1236  0.0475  0.1902
   26loPI    C2  402   7.336   2.143   9.991  0.2880  0.1904  0.0406
   26loPI    C3  403   7.680   1.948   9.930  0.0569 -0.2331  0.0524
   26loPI   PO4  404   7.228   1.627   9.804  0.1736  0.2103 -0.1268
   26loPI   GL1  405   6.973   1.462   9.464  0.5728  0.3606 -0.2941
   26loPI   GL2  406   6.645   1.369   9.418  0.1173  0.1375  0.2700
   26loPI   C1A  407   7.044   1.436   9.092  0.0185  0.0604 -0.0674
   26loPI   C2A  408   7.021   1.551   8.618 -0.2629 -0.1135 -0.2377
   26loPI   C3A  409   6.859   1.530   8.110  0.2674 -0.1300  0.0826
   26loPI   C4A  410   6.943   1.507   7.643 -0.1106  0.2231 -0.0998
   26loPI   C5A  411   7.048   1.222   7.270 -0.0592  0.0421 -0.1251
   26loPI   C6A  412   6.929   1.135   6.925 -0.0798 -0.1978  0.0033
   26loPI   C1B  413   6.584   1.248   9.019 -0.1443 -0.0099 -0.0451
   26loPI   C2B  414   6.509   1.230   8.606 -0.1349 -0.3259 -0.0248
   26loPI   C3B  415   6.491   1.184   8.140  0.0915 -0.2352 -0.3908
   26loPI   C4B  416   6.353   1.314   7.709  0.1297 -0.0284  0.0563
   27loPI    C1  417   6.321  16.589  10.107 -0.2677 -0.0407 -0.0277
   27loPI    C2  418   6.037  16.690  10.370 -0.2639 -0.1256  0.0093
   27loPI    C3  419   6.232  16.343  10.409 -0.0528 -0.0013  0.0689
   27loPI   PO4  420   6.259  16.631   9.929  0.1557 -0.2067  0.3271
   27loPI   GL1  421   5.793  16.632   9.586  0.0512  0.1011  0.1873
   27loPI   GL2  422   6.102  16.689   9.445 -0.0364 -0.0509  0.1569
   27loPI   C1A  423   5.765  16.441   9.255  0.2340  0.2544  0.2443
   27loPI   C2A  424   5.955  16.340   8.848  0.1164  0.1300 -0.0961
   27loPI   C3A  425   5.877  16.044   8.496  0.1899 -0.0447 -0.2924
   27loPI   C4A  426   6.060  15.881   8.199  0.2225 -0.3165  0.1549
   27loPI   C5A  427   6.093  15.690   7.653 -0.1268  0.0582 -0.0600
   27loPI   C6A  428   6.095  15.818   7.244 -0.2810 -0.1805  0.1447
   27loPI   C1B  429   6.117  16.791   9.016 -0.1396 -0.0800  0.1627
   27loPI   C2B  430   5.909  16.780   8.646 -0.2075  0.4363  0.1927
   27loPI   C3B  431   5.839  16.971   8.273 -0.1469  0.1661  0.0095
   27loPI   C4B  432   6.132  17.084   7.928  0.0410 -0.1567  0.2065
   28loPI    C1  433   7.826   5.068  10.471  0.0771 -0.1768  0.2829
   28loPI    C2  434   7.523   5.214  10.688 -0.1436 -0.1453 -0.0398
   28loPI    C3  435   7.900   5.263  10.813 -0.2395  0.2869  0.0969
   28loPI   PO4  436   7.815   5.149  10.250 -0.2170 -0.0739  0.0894
   28loPI   GL1  437   7.734   4.890   9.862  0.0988  0.1607 -0.2658
   28loPI   GL2  438   7.944   4.594   9.959  0.2133 -0.0794  0.2185
   28loPI   C1A  439   7.824   4.840   9.490  0.0936  0.0153  0.1146
   28loPI   C2A  440   7.800   4.944   9.081  0.1825 -0.2796  0.6149
   28loPI   C3A  441   7.826   4.982   8.711  0.2554 -0.0728 -0.2406
   28loPI   C4A  442   7.925   5.243   8.389 -0.1220 -0.0838 -0.0425
   28loPI   C5A  443   7.949   5.302   7.867 -0.4010  0.0572 -0.1767
   28loPI   C6A  444   8.105   5.091   7.619  0.3100  0.2927  0.0895
   28loPI   C1B  445   7.767   4.341   9.598  0.0945  0.2429 -0.0987
   28loPI   C2B  446   7.755   4.461   9.185  0.0142  0.0617  0.1511
   28loPI   C3B  447   7.879   4.454   8.703 -0.0075 -0.0077  0.0779
   28loPI   C4B  448   7.678   4.591   8.325 -0.1172  0.0215 -0.1091
   29loPI    C1  449  16.537  10.127  10.243  0.0475 -0.0381  0.0485
   29loPI    C2  450  16.773  10.226  10.550  0.0096 -0.0133  0.0698
   29loPI    C3  451  16.646   9.850  10.509  0.2086 -0.0694 -0.0487
   29loPI   PO4  452  16.671  10.280  10.016 -0.2419  0.0698  0.2315
   29loPI   GL1  453  17.084  10.320   9.807 -0.0165  0.2245 -0.2170
   29loPI   GL2  454  16.869  10.458   9.584 -0.0765  0.2310 -0.0497
   29loPI   C1A  455  17.412  10.383   9.496  0.1089 -0.2324 -0.3159
   29loPI   C2A  456  17.453  10.400   9.022 -0.0646 -0.1318  0.1697
   29loPI   C3A  457  17.486  10.295   8.669 -0.1599  0.0248 -0.0711
   29loPI   C4A  458  17.335  10.149   8.262 -0.0834  0.2909 -0.1863
   29loPI   C5A  459  17.408   9.922   7.828  0.0341 -0.1361 -0.1601
   29loPI   C6A  460  17.775   9.605   7.790 -0.2524  0.1962 -0.0172
   29loPI   C1B  461  16.954  10.359   9.177 -0.1745  0.1617 -0.2142
   29loPI   C2B  462  16.868  10.261   8.749 -0.6616 -0.1414  0.0277
   29loPI   C3B  463  16.823  10.155   8.310 -0.0529 -0.0091 -0.2906
   29loPI   C4B  464  16.533  10.034   8.041 -0.1554 -0.0591 -0.1779
   30loPI    C1  465  10.743   1.105  10.095  0.3033 -0.0341  0.0471
   30loPI    C2  466  10.470   1.341   9.922  0.1575 -0.1996  0.0479
   30loPI    C3  467  10.354   1.024  10.135  0.3422 -0.1074  0.2914
   30loPI   PO4  468  10.900   1.110   9.939 -0.0319  0.0975  0.1414
   30loPI   GL1  469  10.960   1.000   9.568 -0.1311 -0.0219  0.1187
   30loPI   GL2  470  10.679   1.051   9.471  0.0282  0.1249  0.3312
   30loPI   C1A  471  11.204   0.959   9.255  0.1345  0.1311  0.0091
   30loPI   C2A  472  11.329   1.148   8.868 -0.1304  0.2777 -0.0654
   30loPI   C3A  473  11.535   1.138   8.437 -0.4240 -0.0502 -0.1980
   30loPI   C4A  474  11.407   1.162   7.964 -0.1743 -0.2146  0.2172
   30loPI   C5A  475  11.461   1.422   7.643  0.3286 -0.0297 -0.3641
   30loPI   C6A  476  11.656   1.531   7.274 -0.1407  0.2144 -0.0477
   30loPI   C1B  477  10.741   1.145   9.116 -0.0215  0.0956 -0.2615
   30loPI   C2B  478  10.825   1.108   8.694  0.1013 -0.0064 -0.0856
   30loPI   C3B  479  10.981   1.059   8.203 -0.2110 -0.2206 -0.0341
   30loPI   C4B  480  10.905   1.090   7.799  0.1263  0.0108 -0.0771
   31loPI    C1  481   8.098  17.054  10.063 -0.0044  0.0038  0.0394
   31loPI    C2  482   7.889  16.835  10.324  0.0109  0.0433  0.0850
   31loPI    C3  483   8.286  16.794  10.302  0.0210  0.1116  0.1375
   31loPI   PO4  484   7.864  17.246   9.951  0.2567  0.0531 -0.0135
   31loPI   GL1  485   8.027  17.433   9.538  0.1881  0.0725 -0.0214
   31loPI   GL2  486   8.033  17.797   9.488 -0.1729 -0.1649  0.0671
   31loPI   C1A  487   8.254  17.356   9.188  0.1756  0.0704  0.0780
   31loPI   C2A  488   8.497  17.562   8.871 -0.0810 -0.0643 -0.0263
   31loPI   C3A  489   8.645  17.590   8.426 -0.2947  0.1081 -0.1552
   31loPI   C4A  490   8.702  17.470   7.918 -0.1513  0.1293  0.0806
   31loPI   C5A  491   8.652  17.439   7.439 -0.0076 -0.0935 -0.1307
   31loPI   C6A  492   8.406  17.596   7.135  0.0011  0.0406 -0.0264
   31loPI   C1B  493   8.004  17.765   9.100  0.0486 -0.1251  0.0374
   31loPI   C2B  494   8.055  17.545   8.723 -0.1357 -0.1009  0.0046
   31loPI   C3B  495   8.112  17.556   8.279  0.1980 -0.1863 -0.0961
   31loPI   C4B  496   8.240  17.616   7.818 -0.0159  0.1059  0.2604
   32loPI    C1  497   0.142  16.088  10.230 -0.0842 -0.2100  0.2891
   32loPI    C2  498  -0.252  16.025  10.204 -0.0578 -0.2727  0.0088
   32loPI    C3  499  -0.114  16.364  10.364 -0.2247 -0.2548  0.1178
   32loPI   PO4  500   0.206  15.962   9.995  0.1176  0.0610 -0.0828
   32loPI   GL1  501   0.308  15.780   9.648 -0.2227  0.2207 -0.0110
   32loPI   GL2  502   0.213  15.564   9.547 -0.0552 -0.0078 -0.3080
   32loPI   C1A  503   0.460  15.912   9.296  0.0642  0.0005  0.0134
   32loPI   C2A  504   0.655  15.819   8.858 -0.1284 -0.0888 -0.3526
   32loPI   C3A  505   0.803  15.858   8.460 -0.1871 -0.0353  0.0686
   32loPI   C4A  506   0.737  15.854   8.021 -0.0202 -0.3976 -0.2756
   32loPI   C5A  507   0.705  15.860   7.497 -0.0150  0.0989 -0.0458
   32loPI   C6A  508   0.548  15.835   7.091  0.1120 -0.0069 -0.3614
   32loPI   C1B  509   0.323  15.445   9.134 -0.3106  0.0351 -0.1947
   32loPI   C2B  510   0.369  15.467   8.632  0.0536  0.2050 -0.1492
   32loPI   C3B  511   0.359  15.611   8.275  0.0516 -0.1125 -0.2541
   32loPI   C4B  512   0.159  16.064   8.285  0.0388 -0.3641 -0.1313
   33loPI    C1  513  14.581  17.927   9.807 -0.1096 -0.0763 -0.0039
   33loPI    C2  514  14.364  18.138  10.069  0.0965  0.1426 -0.0063
   33loPI    C3  515  14.531  17.792  10.181  0.1431  0.2108  0.1375
   33loPI   PO4  516  14.691  18.139   9.638  0.1427 -0.1184 -0.0413
   33loPI   GL1  517  14.623  18.271   9.268 -0.0498  0.3388  0.0563
   33loPI   GL2  518  14.481  18.098   9.070  0.0650  0.1776  0.0603
   33loPI   C1A  519  14.905  18.530   8.895 -0.4677  0.1045  0.2428
   33loPI   C2A  520  14.899  18.580   8.513 -0.3073 -0.1393 -0.0494
   33loPI   C3A  521  14.724  18.632   8.035 -0.2398  0.3396 -0.0695
   33loPI   C4A  522  14.805  18.353   7.658 -0.0593 -0.0884  0.0275
   33loPI   C5A  523  15.125  18.360   7.248 -0.1907  0.1385 -0.4171
   33loPI   C6A  524  15.244  18.214   6.835 -0.0364 -0.1806 -0.3148
   33loPI   C1B  525  14.419  17.814   8.749 -0.2161  0.0050  0.0902
   33loPI   C2B  526  14.337  17.725   8.459  0.1135  0.2354 -0.0749
   33loPI   C3B  527  14.478  17.655   8.029 -0.2215  0.2833  0.0167
   33loPI   C4B  528  14.572  17.561   7.637 -0.0904  0.1171  0.2035
   34loPI    C1  529   0.011  17.283  10.096 -0.0446 -0.1646 -0.0863
   34loPI    C2  530  -0.346  17.440  10.183  0.0241  0.0051 -0.1066
   34loPI    C3  531  -0.109  17.309  10.477  0.1603  0.3671 -0.0496
   34loPI   PO4  532   0.131  17.468   9.925 -0.4536  0.2000 -0.0700
   34loPI   GL1  533   0.186  17.271   9.529 -0.2080  0.3364  0.0308
   34loPI   GL2  534   0.456  17.333   9.484 -0.1458  0.0539  0.0681
   34loPI   C1A  535  -0.024  17.321   9.107  0.1160  0.0570 -0.2490
   34loPI   C2A  536   0.036  17.449   8.670  0.2000 -0.0271  0.0739
   34loPI   C3A  537   0.038  17.825   8.383  0.0262  0.0185  0.2161
   34loPI   C4A  538   0.081  17.928   8.019  0.2511 -0.2325 -0.0180
   34loPI   C5A  539   0.500  17.899   7.975 -0.2139 -0.0113  0.2110
   34loPI   C6A  540   0.914  17.990   7.732  0.0892 -0.0563  0.1956
   34loPI   C1B  541   0.493  17.770   9.277 -0.1739 -0.0940  0.0454
   34loPI   C2B  542   0.371  17.825   8.814  0.1471 -0.1328  0.0885
   34loPI   C3B  543   0.468  18.077   8.447  0.0073 -0.0851 -0.2600
   34loPI   C4B  544   0.802  18.227   8.155  0.3131  0.2276 -0.2526
   35loPI    C1  545  12.962  15.816   9.692 -0.0804  0.3525 -0.4332
   35loPI    C2  546  12.622  15.642   9.811  0.2499 -0.0416 -0.0314
   35loPI    C3  547  12.775  15.948  10.019  0.1334  0.1523 -0.2265
   35loPI   PO4  548  12.893  15.910   9.489  0.1700 -0.0433  0.0105
   35loPI   GL1  549  12.818  15.709   9.153  0.0750  0.3027  0.2173
   35loPI   GL2  550  12.617  15.486   9.139 -0.0785 -0.0763  0.1694
   35loPI   C1A  551  12.966  15.953   8.839  0.0104 -0.1705 -0.3204
   35loPI   C2A  552  13.032  15.974   8.446 -0.2672 -0.1859 -0.4583
   35loPI   C3A  553  12.968  16.054   7.951 -0.1028 -0.0220  0.1990
   35loPI   C4A  554  12.598  16.130   7.723 -0.0524 -0.2033  0.1383
   35loPI   C5A  555  12.324  16.032   7.396 -0.1689 -0.2127  0.3098
   35loPI   C6A  556  12.114  15.992   6.990  0.1739 -0.1912 -0.0432
   35loPI   C1B  557  12.633  15.553   8.674  0.1734  0.1303  0.3148
   35loPI   C2B  558  12.518  15.360   8.354  0.2077  0.1237  0.3338
   35loPI   C3B  559  12.600  15.097   7.985  0.1548 -0.1840  0.2845
   35loPI   C4B  560  12.498  15.176   7.492  0.3579  0.0240 -0.1587
   36loPI    C1  561  15.422  15.499   9.583 -0.2054 -0.0140 -0.0917
   36loPI    C2  562  15.149  15.333   9.824 -0.2083 -0.0418 -0.1142
   36loPI    C3  563  15.288  15.700   9.902 -0.2795 -0.0127 -0.1234
   36loPI   PO4  564  15.250  15.412   9.329 -0.1644  0.0535  0.1002
   36loPI   GL1  565  15.478  15.422   8.902  0.1634 -0.1820 -0.1453
   36loPI   GL2  566  15.333  15.355   8.631  0.1837 -0.0657  0.1787
   36loPI   C1A  567  15.771  15.482   8.587  0.2254  0.2306  0.2585
   36loPI   C2A  568  15.830  15.648   8.285  0.0471  0.2070  0.0590
   36loPI   C3A  569  15.879  15.885   7.917  0.0169  0.0194  0.1619
   36loPI   C4A  570  15.658  16.117   7.717  0.2043  0.0603  0.1595
   36loPI   C5A  571  15.239  16.026   7.587  0.1489 -0.0789 -0.0964
   36loPI   C6A  572  15.061  16.234   7.235  0.1324  0.0840  0.1911
   36loPI   C1B  573  15.331  15.439   8.302  0.0631 -0.2514 -0.1079
   36loPI   C2B  574  15.436  15.677   7.935  0.0092  0.0154 -0.1467
   36loPI   C3B  575  15.532  15.683   7.476  0.3803 -0.1999 -0.4168
   36loPI   C4B  576  15.592  16.004   7.188  0.4828  0.0307 -0.0897
   37loPI    C1  577   7.599  10.810  10.331  0.1158 -0.1566 -0.0128
   37loPI    C2  578   7.864  10.588  10.533  0.1931 -0.1117 -0.0647
   37loPI    C3  579   7.912  10.985  10.509  0.0045 -0.0775  0.1065
   37loPI   PO4  580   7.603  10.715  10.120 -0.2339 -0.1703  0.1648
   37loPI   GL1  581   7.691  10.915   9.728  0.0768  0.3132  0.0745
   37loPI   GL2  582   7.971  10.737   9.567  0.1726 -0.1209 -0.3250
   37loPI   C1A  583   7.514  11.044   9.380 -0.1256  0.0180  0.1575
   37loPI   C2A  584   7.462  10.992   8.934  0.0527  0.0594 -0.0340
   37loPI   C3A  585   7.338  10.948   8.523  0.0621  0.1709 -0.2866
   37loPI   C4A  586   7.191  10.988   8.183 -0.0423  0.0149  0.1464
   37loPI   C5A  587   6.855  11.265   7.881 -0.0203  0.0832  0.0727
   37loPI   C6A  588   6.476  11.292   7.838 -0.0917 -0.1940 -0.0784
   37loPI   C1B  589   7.974  10.841   9.080 -0.0140 -0.0371 -0.0526
   37loPI   C2B  590   7.853  10.863   8.636  0.1048 -0.1624 -0.0442
   37loPI   C3B  591   7.721  10.842   8.193 -0.2600  0.3498 -0.1104
   37loPI   C4B  592   7.642  10.937   7.758  0.3010 -0.0239 -0.0246
   38loPI    C1  593  13.992  14.690   9.861 -0.2216  0.1070  0.0603
   38loPI    C2  594  13.628  14.541   9.931 -0.2047 -0.0182 -0.1100
   38loPI    C3  595  13.951  14.311   9.983 -0.1405  0.1253  0.1463
   38loPI   PO4  596  13.970  14.863   9.624 -0.0943 -0.1428 -0.1468
   38loPI   GL1  597  13.864  14.803   9.251  0.0606 -0.1623  0.0437
   38loPI   GL2  598  14.159  14.670   9.156  0.3883 -0.0198 -0.0657
   38loPI   C1A  599  13.822  14.714   8.752 -0.0661  0.1675  0.0834
   38loPI   C2A  600  13.915  14.600   8.296  0.0458  0.2414 -0.0142
   38loPI   C3A  601  13.970  14.436   7.928  0.1340  0.0382 -0.1974
   38loPI   C4A  602  14.226  14.371   7.506  0.1487  0.0592 -0.0194
   38loPI   C5A  603  14.711  14.306   7.249 -0.0875 -0.1333  0.0111
   38loPI   C6A  604  14.811  13.996   6.926  0.4360  0.0853  0.0989
   38loPI   C1B  605  14.187  14.363   8.794 -0.0985  0.0281 -0.1719
   38loPI   C2B  606  14.176  14.171   8.365 -0.1887 -0.1374 -0.0105
   38loPI   C3B  607  14.257  14.034   7.946  0.1040 -0.1877 -0.1834
   38loPI   C4B  608  14.147  13.757   7.534 -0.1650  0.1283 -0.4118
   39loPI    C1  609  13.475   2.899  10.260 -0.1766 -0.1009  0.0485
   39loPI    C2  610  13.264   3.066  10.556  0.0474  0.1065  0.0941
   39loPI    C3  611  13.453   2.719  10.617 -0.3075 -0.1020  0.0405
   39loPI   PO4  612  13.535   3.126  10.119 -0.2153  0.2509 -0.2892
   39loPI   GL1  613  13.351   3.301   9.769  0.0829  0.2467 -0.0300
   39loPI   GL2  614  13.412   3.490   9.647 -0.0404  0.2271 -0.0868
   39loPI   C1A  615  13.109   3.299   9.328 -0.0425  0.0837  0.2989
   39loPI   C2A  616  13.213   3.286   8.902  0.3404 -0.2706  0.0622
   39loPI   C3A  617  13.220   3.524   8.496  0.1104  0.3443  0.3021
   39loPI   C4A  618  12.826   3.614   8.158  0.1999  0.1554 -0.0011
   39loPI   C5A  619  12.646   3.619   7.808 -0.4200 -0.5104 -0.0212
   39loPI   C6A  620  12.349   3.428   7.669  0.1094 -0.2021  0.3132
   39loPI   C1B  621  13.570   3.539   9.194 -0.2077 -0.0426 -0.1142
   39loPI   C2B  622  13.634   3.588   8.854 -0.0651  0.1144  0.2137
   39loPI   C3B  623  13.676   3.340   8.485  0.0966  0.3042  0.1173
   39loPI   C4B  624  13.701   3.185   7.998  0.2687  0.1151 -0.2881
   40loPI    C1  625  14.696   5.967  10.065 -0.2373 -0.1340 -0.1478
   40loPI    C2  626  14.448   5.957  10.379 -0.0523 -0.1897 -0.0019
   40loPI    C3  627  14.355   6.177  10.058 -0.1816 -0.0295  0.1435
   40loPI   PO4  628  14.778   5.707  10.023  0.0105 -0.4096  0.1766
   40loPI   GL1  629  14.886   5.605   9.569 -0.0656 -0.2752 -0.0438
   40loPI   GL2  630  14.901   6.006   9.579  0.0122  0.3999  0.2976
   40loPI   C1A  631  15.018   5.714   9.238 -0.1035  0.4003  0.0446
   40loPI   C2A  632  15.000   5.794   8.853  0.0329  0.0045 -0.2334
   40loPI   C3A  633  14.872   5.830   8.519  0.1490 -0.0111 -0.0743
   40loPI   C4A  634  14.840   6.025   8.164  0.1984  0.2416 -0.1195
   40loPI   C5A  635  15.083   6.260   7.846 -0.0643  0.3076  0.0881
   40loPI   C6A  636  15.466   6.460   7.965  0.1692  0.3622 -0.0713
   40loPI   C1B  637  14.916   6.171   9.223  0.4075 -0.1060  0.2419
   40loPI   C2B  638  15.090   6.314   8.860 -0.0324  0.1985 -0.0423
   40loPI   C3B  639  15.263   6.421   8.498 -0.0730 -0.0085  0.0875
   40loPI   C4B  640  15.082   6.755   8.185  0.2570  0.1455  0.1697
   41loPI    C1  641   8.321  11.300  10.563 -0.0112 -0.0916 -0.1381
   41loPI    C2  642   8.567  11.111  10.816 -0.0156 -0.1915 -0.2079
   41loPI    C3  643   8.562  11.511  10.802  0.0884 -0.1881 -0.1527
   41loPI   PO4  644   8.402  11.253  10.350  0.2233  0.3562 -0.4244
   41loPI   GL1  645   8.434  11.050   9.915 -0.1141 -0.2232 -0.0722
   41loPI   GL2  646   8.502  10.784   9.752 -0.3170 -0.1262  0.2862
   41loPI   C1A  647   8.151  11.201   9.522 -0.0134  0.1249 -0.0708
   41loPI   C2A  648   8.180  11.351   8.990 -0.0406 -0.1981 -0.2363
   41loPI   C3A  649   8.148  11.391   8.551  0.1779  0.0227  0.1346
   41loPI   C4A  650   8.089  11.235   8.133 -0.0282 -0.0881 -0.1154
   41loPI   C5A  651   8.023  11.372   7.731 -0.1807  0.0807 -0.1173
   41loPI   C6A  652   8.152  11.207   7.422  0.1604 -0.0328 -0.2261
   41loPI   C1B  653   8.429  10.781   9.266 -0.1407  0.2204 -0.1301
   41loPI   C2B  654   8.421  10.869   8.858 -0.0649  0.0035  0.1288
   41loPI   C3B  655   8.360  10.974   8.508  0.0386  0.0569 -0.0522
   41loPI   C4B  656   8.277  10.770   8.136  0.0228 -0.3043 -0.3152
   42loPI    C1  657   1.188   1.854   9.994 -0.1334  0.2141  0.2534
   42loPI    C2  658   1.361   1.684  10.312  0.1135  0.1370  0.0812
   42loPI    C3  659   0.964   1.664  10.266  0.0932  0.0065  0.2983
   42loPI   PO4  660   1.280   1.793   9.747 -0.2385 -0.0250 -0.1610
   42loPI   GL1  661   1.595   1.889   9.438  0.1042 -0.1955  0.6012
   42loPI   GL2  662   1.817   1.862   9.235  0.3329  0.0544  0.3420
   42loPI   C1A  663   1.327   1.713   9.127  0.1254  0.0957 -0.1185
   42loPI   C2A  664   1.243   1.718   8.738 -0.3153  0.0046  0.1016
   42loPI   C3A  665   0.976   1.584   8.398 -0.1039 -0.0258 -0.2946
   42loPI   C4A  666   1.018   1.445   7.997  0.1400 -0.3144 -0.0253
   42loPI   C5A  667   1.093   1.001   7.762 -0.0641  0.0677  0.0306
   42loPI   C6A  668   0.919   0.636   7.769 -0.2394 -0.2750  0.0299
   42loPI   C1B  669   1.747   1.795   8.805 -0.1383  0.0954  0.1916
   42loPI   C2B  670   1.904   1.738   8.344 -0.2934  0.3976  0.0335
   42loPI   C3B  671   1.925   1.428   8.118 -0.3178  0.0210  0.2909
   42loPI   C4B  672   1.926   1.146   7.735  0.1937 -0.0154  0.1981
   43loPI    C1  673   1.191   3.522  10.395 -0.0011  0.3428 -0.0592
   43loPI    C2  674   1.165   3.842  10.633  0.2251  0.2379  0.1108
   43loPI    C3  675   1.093   3.477  10.780  0.4399  0.1650  0.0382
   43loPI   PO4  676   1.451   3.548  10.161  0.2403  0.4240  0.0408
   43loPI   GL1  677   1.367   3.769   9.712  0.2107 -0.1059  0.1110
   43loPI   GL2  678   1.556   3.942   9.812 -0.0497  0.0182  0.0917
   43loPI   C1A  679   1.232   3.916   9.220  0.1738 -0.1003 -0.2423
   43loPI   C2A  680   1.170   3.890   8.817  0.0424  0.1619 -0.0842
   43loPI   C3A  681   1.188   3.984   8.522  0.0744 -0.1957  0.0249
   43loPI   C4A  682   1.024   4.079   8.038 -0.0586  0.2335  0.0524
   43loPI   C5A  683   1.378   4.132   7.819 -0.0907 -0.2371 -0.0076
   43loPI   C6A  684   1.715   3.964   7.677  0.0230 -0.0424  0.1588
   43loPI   C1B  685   1.515   4.288   9.420 -0.0185  0.1445 -0.0473
   43loPI   C2B  686   1.417   4.390   8.988 -0.1943 -0.0140 -0.2701
   43loPI   C3B  687   1.483   4.395   8.516  0.1165 -0.3404 -0.1414
   43loPI   C4B  688   1.601   4.492   8.086  0.0899  0.1343  0.1070
   44loPI    C1  689  15.905   1.957   9.866 -0.1340  0.2764 -0.0930
   44loPI    C2  690  16.290   1.907   9.963 -0.2005  0.0248  0.0520
   44loPI    C3  691  16.073   2.190  10.145 -0.0916  0.1518 -0.0136
   44loPI   PO4  692  15.786   1.816   9.842  0.1782 -0.2055 -0.0066
   44loPI   GL1  693  15.833   1.658   9.449 -0.0842  0.3494  0.1803
   44loPI   GL2  694  16.021   1.888   9.397  0.0200 -0.1939  0.1253
   44loPI   C1A  695  15.729   1.557   9.001 -0.1724  0.1059  0.1504
   44loPI   C2A  696  15.695   1.710   8.603  0.1544  0.1864 -0.0167
   44loPI   C3A  697  15.660   1.715   8.213 -0.1781 -0.0038  0.1368
   44loPI   C4A  698  15.771   1.663   7.732  0.0437 -0.1243 -0.0868
   44loPI   C5A  699  15.983   1.335   7.564  0.1026  0.2116  0.1488
   44loPI   C6A  700  16.209   1.016   7.676  0.0455 -0.1384  0.0415
   44loPI   C1B  701  16.037   1.942   9.049 -0.0181  0.3105  0.2938
   44loPI   C2B  702  16.148   1.891   8.606  0.2576 -0.1896  0.0310
   44loPI   C3B  703  16.129   1.864   8.156  0.2207 -0.0131  0.4393
   44loPI   C4B  704  16.281   2.196   7.971 -0.1829  0.0348 -0.0511
   45loPI    C1  705  11.459  13.164   9.785 -0.0142 -0.1113 -0.0574
   45loPI    C2  706  11.485  13.109  10.180 -0.1396  0.0041 -0.0324
   45loPI    C3  707  11.656  13.428  10.011  0.0935 -0.1542 -0.1002
   45loPI   PO4  708  11.406  12.933   9.707  0.1141 -0.2122 -0.1796
   45loPI   GL1  709  11.076  12.681   9.406  0.1091 -0.3101 -0.2873
   45loPI   GL2  710  11.033  12.902   9.302  0.2126  0.0902 -0.2516
   45loPI   C1A  711  10.789  12.436   9.197 -0.1358 -0.1887 -0.0005
   45loPI   C2A  712  10.883  12.261   8.835 -0.1896  0.1625  0.0779
   45loPI   C3A  713  10.926  12.357   8.429  0.2803  0.1501 -0.2520
   45loPI   C4A  714  11.100  12.461   7.966  0.0065  0.2134  0.0492
   45loPI   C5A  715  11.351  12.540   7.591  0.1245 -0.0087 -0.1715
   45loPI   C6A  716  11.600  12.578   7.341 -0.1794 -0.1715 -0.1122
   45loPI   C1B  717  11.195  12.680   8.924  0.1082 -0.1070  0.1590
   45loPI   C2B  718  11.320  12.638   8.553  0.3359  0.2715 -0.1757
   45loPI   C3B  719  11.541  12.598   8.193  0.0540 -0.1999  0.1126
   45loPI   C4B  720  11.892  12.503   7.918 -0.2725 -0.0506 -0.1882
   46loPI    C1  721  14.276   6.718  10.353 -0.0562 -0.0677  0.0320
   46loPI    C2  722  14.155   6.373  10.515 -0.1804  0.1054  0.3146
   46loPI    C3  723  13.890   6.664  10.442 -0.0795  0.1355  0.0592
   46loPI   PO4  724  14.450   6.661  10.129 -0.0197  0.0535 -0.1694
   46loPI   GL1  725  14.374   6.599   9.690  0.0377  0.0676  0.1709
   46loPI   GL2  726  14.541   6.340   9.508  0.1967 -0.0657 -0.1844
   46loPI   C1A  727  14.031   6.877   9.488  0.0617 -0.1056  0.1938
   46loPI   C2A  728  13.892   7.076   9.130  0.0969  0.2142 -0.2127
   46loPI   C3A  729  13.814   7.340   8.815  0.2732  0.0254  0.1881
   46loPI   C4A  730  13.710   7.311   8.395 -0.0634  0.1668 -0.2665
   46loPI   C5A  731  13.491   7.605   8.092 -0.0070  0.3329  0.0924
   46loPI   C6A  732  13.459   8.070   7.797 -0.1254  0.0987  0.0171
   46loPI   C1B  733  14.380   6.484   9.215  0.1827 -0.1300 -0.2258
   46loPI   C2B  734  14.597   6.406   8.834 -0.0143 -0.1796 -0.1561
   46loPI   C3B  735  14.728   6.442   8.393  0.0669  0.0473 -0.0428
   46loPI   C4B  736  14.431   6.316   7.995 -0.2201  0.1513  0.1871
   47loPI    C1  737   0.274   1.921   9.871  0.1273 -0.1938 -0.2258
   47loPI    C2  738   0.432   1.616  10.076  0.0954  0.1304  0.2996
   47loPI    C3  739   0.177   1.867  10.255 -0.4072  0.0810 -0.3121
   47loPI   PO4  740   0.519   1.942   9.716  0.1953  0.0640  0.3937
   47loPI   GL1  741   0.671   1.812   9.337 -0.1159  0.0746  0.2508
   47loPI   GL2  742   0.499   1.517   9.268  0.1566 -0.0403  0.0163
   47loPI   C1A  743   0.844   1.888   8.963 -0.4356 -0.0929  0.0009
   47loPI   C2A  744   1.006   2.172   8.652  0.0338 -0.1329  0.1872
   47loPI   C3A  745   1.076   2.137   8.097 -0.1668 -0.0480 -0.0123
   47loPI   C4A  746   1.079   1.883   7.809 -0.1025 -0.1608  0.0216
   47loPI   C5A  747   1.107   1.659   7.461 -0.2006  0.3072 -0.0200
   47loPI   C6A  748   1.415   1.653   7.162  0.2494 -0.0522  0.1582
   47loPI   C1B  749   0.512   1.511   8.782 -0.1671 -0.3780  0.2728
   47loPI   C2B  750   0.606   1.298   8.380 -0.2505  0.0985  0.0631
   47loPI   C3B  751   0.557   1.270   7.965  0.1358 -0.1864  0.0584
   47loPI   C4B  752   0.733   1.288   7.578 -0.0365 -0.1372  0.0068
   48loPI    C1  753  15.786   9.812  10.504 -0.1627 -0.1655  0.0063
   48loPI    C2  754  15.583  10.130  10.635 -0.1307 -0.0331 -0.2584
   48loPI    C3  755  15.791   9.906  10.892 -0.3995 -0.0194 -0.0242
   48loPI   PO4  756  15.732   9.720  10.298 -0.1572 -0.1867 -0.2069
   48loPI   GL1  757  16.022   9.520   9.988 -0.0073 -0.2146  0.0093
   48loPI   GL2  758  15.680   9.423   9.895 -0.1629  0.0741  0.2704
   48loPI   C1A  759  16.137   9.568   9.514 -0.1433 -0.2361 -0.1209
   48loPI   C2A  760  16.268   9.410   9.161  0.0675  0.0053  0.1580
   48loPI   C3A  761  16.454   9.157   8.905  0.1264 -0.1054 -0.2512
   48loPI   C4A  762  16.596   8.827   8.749 -0.0054  0.0222  0.1792
   48loPI   C5A  763  16.971   8.667   8.665  0.1850  0.0971 -0.2452
   48loPI   C6A  764  17.350   8.543   8.486 -0.1689 -0.2978 -0.2405
   48loPI   C1B  765  15.609   9.572   9.423  0.2363 -0.1233  0.2815
   48loPI   C2B  766  15.545   9.549   8.952  0.1396 -0.0657  0.4659
   48loPI   C3B  767  15.304   9.629   8.645  0.0115 -0.2429 -0.2129
   48loPI   C4B  768  15.053   9.479   8.285 -0.3139  0.3355 -0.3941
   49loPI    C1  769   5.092  12.766  10.182  0.2130 -0.1574 -0.0426
   49loPI    C2  770   5.072  12.538  10.510 -0.1843 -0.1009 -0.0224
   49loPI    C3  771   4.859  12.876  10.488  0.1183  0.0833 -0.1979
   49loPI   PO4  772   5.297  12.622   9.994 -0.2976 -0.2035  0.0230
   49loPI   GL1  773   5.465  12.391   9.702 -0.1102 -0.2164  0.3097
   49loPI   GL2  774   5.618  12.149   9.807  0.2161 -0.1830  0.3305
   49loPI   C1A  775   5.500  12.435   9.275 -0.1938  0.0665 -0.0396
   49loPI   C2A  776   5.632  12.397   8.864  0.4205  0.0920 -0.3401
   49loPI   C3A  777   5.539  12.303   8.475 -0.0157  0.1685 -0.0034
   49loPI   C4A  778   5.319  12.423   8.049 -0.0905 -0.1945 -0.2170
   49loPI   C5A  779   5.253  12.523   7.682 -0.0318 -0.0507 -0.1148
   49loPI   C6A  780   5.290  12.772   7.285  0.0703 -0.0102  0.1856
   49loPI   C1B  781   5.841  12.007   9.463 -0.2185 -0.1002  0.0866
   49loPI   C2B  782   5.868  11.860   8.961 -0.1718 -0.0914  0.2272
   49loPI   C3B  783   5.824  11.857   8.545  0.0470 -0.1689 -0.2503
   49loPI   C4B  784   5.696  11.891   8.133 -0.0413 -0.0064 -0.2146
   50loPI    C1  785   1.522   7.413  11.016  0.0991 -0.0853 -0.0615
   50loPI    C2  786   1.532   7.798  11.122 -0.0381  0.0016 -0.3530
   50loPI    C3  787   1.857   7.569  11.169 -0.0281  0.0899  0.0408
   50loPI   PO4  788   1.568   7.375  10.764  0.0893  0.0267  0.0908
   50loPI   GL1  789   1.450   7.526  10.425  0.1992 -0.3125 -0.0425
   50loPI   GL2  790   1.086   7.647  10.351 -0.3308  0.1560 -0.2804
   50loPI   C1A  791   1.523   7.876  10.141  0.0436  0.1144  0.0161
   50loPI   C2A  792   1.477   7.862   9.685 -0.0342 -0.0966  0.3381
   50loPI   C3A  793   1.557   7.880   9.202 -0.0777  0.0142  0.2622
   50loPI   C4A  794   1.536   7.895   8.757  0.2349 -0.1655 -0.0145
   50loPI   C5A  795   1.395   8.214   8.339 -0.0031  0.0658  0.1442
   50loPI   C6A  796   1.620   8.563   8.373 -0.0444  0.1570 -0.2240
   50loPI   C1B  797   1.128   7.430   9.988 -0.3062 -0.3603 -0.2160
   50loPI   C2B  798   1.081   7.538   9.570  0.2680  0.1668  0.0259
   50loPI   C3B  799   1.213   7.432   9.147 -0.2977 -0.1242  0.3291
   50loPI   C4B  800   1.257   7.497   8.705  0.1407  0.0037  0.1079
   51loPI    C1  801   2.115  12.428  10.673  0.1826 -0.1044  0.0260
   51loPI    C2  802   2.077  12.688  10.372  0.1571 -0.1011  0.0321
   51loPI    C3  803   1.897  12.759  10.722  0.1023 -0.1555  0.0149
   51loPI   PO4  804   2.151  12.152  10.501  0.0758 -0.1185  0.0728
   51loPI   GL1  805   2.202  12.229  10.104  0.2303 -0.0724 -0.1887
   51loPI   GL2  806   1.947  12.315   9.913 -0.0171  0.2028 -0.0312
   51loPI   C1A  807   2.141  11.767   9.902 -0.0983  0.0628  0.2302
   51loPI   C2A  808   2.135  11.550   9.486  0.0047  0.1208 -0.2704
   51loPI   C3A  809   2.188  11.408   9.040 -0.0301  0.2550  0.0864
   51loPI   C4A  810   2.399  11.420   8.613 -0.1566 -0.1610  0.3181
   51loPI   C5A  811   2.719  11.221   8.279  0.1589  0.0651  0.1900
   51loPI   C6A  812   2.962  10.813   8.175  0.0335  0.0350 -0.0204
   51loPI   C1B  813   2.073  12.051   9.472  0.0811 -0.0628  0.1655
   51loPI   C2B  814   2.183  11.956   9.045  0.0546  0.1540 -0.1089
   51loPI   C3B  815   2.214  11.965   8.572 -0.1265  0.2259 -0.1323
   51loPI   C4B  816   2.279  11.863   8.095 -0.3792  0.0610  0.1139
   52loPI    C1  817  16.982  16.879   9.588  0.0560  0.1369  0.0472
   52loPI    C2  818  16.755  17.050   9.870  0.0085 -0.1205  0.1679
   52loPI    C3  819  16.595  16.951   9.517  0.0172  0.0108  0.1267
   52loPI   PO4  820  17.162  17.005   9.550  0.1964 -0.1189  0.1231
   52loPI   GL1  821  17.366  16.928   9.246  0.0575  0.1141  0.0817
   52loPI   GL2  822  17.384  16.632   9.141 -0.2664 -0.0001  0.2560
   52loPI   C1A  823  17.245  16.926   8.809  0.2671 -0.1393 -0.2852
   52loPI   C2A  824  17.124  16.848   8.421  0.0652 -0.0809  0.3389
   52loPI   C3A  825  16.943  17.054   7.974  0.0620 -0.0770  0.2637
   52loPI   C4A  826  16.714  17.049   7.615 -0.3242  0.0534  0.3174
   52loPI   C5A  827  16.621  16.848   7.297 -0.0581 -0.2736  0.1365
   52loPI   C6A  828  16.923  16.591   7.061  0.1029 -0.0911 -0.1806
   52loPI   C1B  829  17.413  16.430   8.724  0.1002  0.0828 -0.1989
   52loPI   C2B  830  17.556  16.412   8.249  0.0650  0.1621 -0.1769
   52loPI   C3B  831  17.436  16.480   7.794  0.0612 -0.0045 -0.0468
   52loPI   C4B  832  17.485  16.415   7.327  0.0146 -0.0540 -0.2660
   53loPI    C1  833  16.029   4.215  10.013 -0.1161  0.0831  0.1733
   53loPI    C2  834  16.196   4.566  10.110  0.1671  0.0288 -0.1030
   53loPI    C3  835  16.303   4.233  10.303 -0.0118  0.0729  0.0759
   53loPI   PO4  836  16.056   4.199   9.723 -0.3202 -0.1551  0.2350
   53loPI   GL1  837  16.241   4.322   9.418 -0.0464  0.1773  0.2453
   53loPI   GL2  838  16.099   4.682   9.424 -0.0891  0.4074  0.2016
   53loPI   C1A  839  16.460   4.410   9.097  0.3774  0.1077 -0.0192
   53loPI   C2A  840  16.427   4.427   8.645 -0.1240 -0.0346 -0.0036
   53loPI   C3A  841  16.277   4.509   8.220 -0.0826  0.0616  0.2056
   53loPI   C4A  842  16.031   4.450   7.802  0.0849  0.1310  0.0082
   53loPI   C5A  843  15.899   4.737   7.552 -0.1276  0.0401 -0.0794
   53loPI   C6A  844  15.608   4.912   7.483  0.0575  0.3308  0.0083
   53loPI   C1B  845  16.225   4.847   8.990  0.0748 -0.2218  0.2903
   53loPI   C2B  846  16.151   4.944   8.638 -0.3350  0.4276  0.2163
   53loPI   C3B  847  15.955   4.833   8.299  0.0088  0.3084 -0.0197
   53loPI   C4B  848  15.793   5.065   7.903 -0.1502 -0.1279 -0.1008
   54loPI    C1  849   8.951  13.457  10.158  0.0729 -0.0391  0.2269
   54loPI    C2  850   9.261  13.649  10.321  0.1162 -0.0362  0.1423
   54loPI    C3  851   9.196  13.264  10.409  0.1492 -0.0396  0.1526
   54loPI   PO4  852   8.940  13.514   9.851  0.2920 -0.0322  0.1850
   54loPI   GL1  853   9.062  13.702   9.503  0.1685  0.0119  0.5040
   54loPI   GL2  854   9.268  13.964   9.380 -0.2426 -0.0150 -0.0928
   54loPI   C1A  855   8.863  13.697   9.189 -0.2949 -0.2183  0.3413
   54loPI   C2A  856   8.471  13.808   9.007  0.2357  0.3151  0.1595
   54loPI   C3A  857   8.308  13.790   8.612 -0.2326 -0.1296  0.0488
   54loPI   C4A  858   8.287  13.725   8.158 -0.0503 -0.0121 -0.0663
   54loPI   C5A  859   8.443  13.565   7.836 -0.0707 -0.0243 -0.0753
   54loPI   C6A  860   8.759  13.326   7.848 -0.0743  0.0413  0.0999
   54loPI   C1B  861   9.343  13.796   9.045  0.2018 -0.3231 -0.4486
   54loPI   C2B  862   9.400  13.690   8.621  0.1072  0.4105  0.0848
   54loPI   C3B  863   9.293  13.629   8.186  0.1849 -0.2231  0.1548
   54loPI   C4B  864   9.220  13.558   7.768 -0.0375 -0.1219 -0.0459
   55loPI    C1  865   2.834   4.837  10.504  0.2684  0.0854  0.0546
   55loPI    C2  866   2.930   4.755  10.883  0.0887  0.0161  0.0863
   55loPI    C3  867   2.865   5.133  10.771  0.1515  0.0377  0.1220
   55loPI   PO4  868   2.878   4.614  10.371  0.1381  0.0053  0.1294
   55loPI   GL1  869   2.732   4.563   9.952  0.0748 -0.3072  0.1397
   55loPI   GL2  870   2.612   4.362   9.775  0.2433  0.0556 -0.0042
   55loPI   C1A  871   2.906   4.692   9.482  0.1770 -0.0184 -0.3846
   55loPI   C2A  872   2.692   4.773   9.119 -0.0991  0.2434  0.4586
   55loPI   C3A  873   2.761   4.902   8.736 -0.4037 -0.2157 -0.1976
   55loPI   C4A  874   2.792   4.900   8.313 -0.0083  0.0433  0.1469
   55loPI   C5A  875   2.534   4.848   7.920  0.3665  0.1535  0.3182
   55loPI   C6A  876   2.404   5.056   7.533 -0.1044 -0.2153  0.0729
   55loPI   C1B  877   2.521   4.289   9.291  0.4490 -0.2542 -0.1749
   55loPI   C2B  878   2.510   4.341   8.917  0.0966  0.1195 -0.0867
   55loPI   C3B  879   2.539   4.469   8.488  0.0831  0.2790  0.2523
   55loPI   C4B  880   2.523   4.360   8.054  0.1586  0.3240 -0.1135
   56loPI    C1  881  15.178   2.492   9.985  0.0777  0.0252  0.2394
   56loPI    C2  882  15.423   2.202  10.113  0.2226  0.1019  0.1387
   56loPI    C3  883  15.278   2.471  10.372  0.1823  0.0100  0.2120
   56loPI   PO4  884  15.302   2.597   9.852  0.1581  0.0518 -0.0661
   56loPI   GL1  885  15.321   2.633   9.379 -0.2125  0.3078  0.0531
   56loPI   GL2  886  15.320   2.893   9.450 -0.0749 -0.2435  0.0725
   56loPI   C1A  887  15.533   2.597   8.973  0.1859  0.0694 -0.1745
   56loPI   C2A  888  15.468   2.574   8.576  0.2326 -0.0004 -0.0555
   56loPI   C3A  889  15.355   2.678   8.180 -0.0018 -0.1070 -0.2487
   56loPI   C4A  890  15.219   2.556   7.828 -0.1094  0.0524 -0.1271
   56loPI   C5A  891  15.349   2.440   7.481  0.1095  0.0256 -0.1853
   56loPI   C6A  892  15.164   2.258   7.175 -0.0724  0.1551 -0.0199
   56loPI   C1B  893  15.329   3.064   9.063 -0.2589 -0.1239  0.0118
   56loPI   C2B  894  15.338   3.029   8.685  0.0003  0.3119  0.1832
   56loPI   C3B  895  15.119   3.081   8.283 -0.0550 -0.2023  0.2251
   56loPI   C4B  896  15.042   3.224   7.875  0.3826 -0.1991 -0.0626
   57loPI    C1  897   5.701  15.827   9.990 -0.1755 -0.1084 -0.1221
   57loPI    C2  898   5.895  15.968  10.310 -0.0234  0.0383 -0.2763
   57loPI    C3  899   5.706  15.616  10.329  0.0366  0.0172 -0.0450
   57loPI   PO4  900   5.907  15.844   9.776 -0.0410  0.0949 -0.1662
   57loPI   GL1  901   6.004  15.727   9.293  0.0509  0.1809  0.2484
   57loPI   GL2  902   5.953  15.413   9.406  0.3268  0.1210  0.2989
   57loPI   C1A  903   5.754  15.834   8.983  0.1945 -0.2570 -0.0286
   57loPI   C2A  904   5.442  15.869   8.741  0.2499  0.4111 -0.0592
   57loPI   C3A  905   5.340  16.078   8.385  0.1659 -0.0993 -0.0425
   57loPI   C4A  906   5.558  16.146   7.894 -0.1414 -0.1376 -0.0630
   57loPI   C5A  907   5.647  15.848   7.710  0.0424  0.1526  0.0566
   57loPI   C6A  908   5.668  15.434   7.799 -0.1091  0.1255 -0.3331
   57loPI   C1B  909   6.095  15.379   8.959 -0.0661  0.1758 -0.1378
   57loPI   C2B  910   5.869  15.463   8.656  0.0897  0.1593  0.1866
   57loPI   C3B  911   5.566  15.652   8.326  0.1120  0.1615  0.3000
   57loPI   C4B  912   5.215  15.705   7.961  0.1103 -0.2772 -0.1875
   58loPI    C1  913   3.832  16.772  10.037  0.1017  0.0571  0.0426
   58loPI    C2  914   3.657  16.768  10.396  0.0153 -0.0772 -0.0001
   58loPI    C3  915   3.611  16.458  10.148 -0.2756  0.1948 -0.2952
   58loPI   PO4  916   3.768  17.036   9.929  0.0255 -0.0867 -0.5907
   58loPI   GL1  917   3.934  17.024   9.539 -0.2636  0.0764  0.1207
   58loPI   GL2  918   4.139  16.752   9.600 -0.2342  0.1227 -0.1123
   58loPI   C1A  919   4.090  16.955   9.073 -0.1219 -0.0605 -0.0418
   58loPI   C2A  920   4.039  16.894   8.697 -0.0232 -0.1138  0.2418
   58loPI   C3A  921   4.031  16.672   8.336  0.0027 -0.0593 -0.1339
   58loPI   C4A  922   4.104  16.666   7.894 -0.1930 -0.1330  0.0178
   58loPI   C5A  923   4.040  16.859   7.512  0.1590 -0.0435  0.0276
   58loPI   C6A  924   3.832  16.931   7.150 -0.2960 -0.0923 -0.0649
   58loPI   C1B  925   4.354  16.603   9.320  0.0311 -0.5504  0.1174
   58loPI   C2B  926   4.221  16.416   8.977 -0.0666  0.0068  0.1553
   58loPI   C3B  927   4.241  16.266   8.510 -0.0598  0.0474  0.0476
   58loPI   C4B  928   4.233  16.009   8.013  0.0362  0.0701 -0.1733
   59loPI    C1  929  15.643  16.833   9.573  0.3335  0.1898  0.2573
   59loPI    C2  930  15.702  16.450   9.669 -0.1684  0.0363 -0.0123
   59loPI    C3  931  15.884  16.606   9.349  0.0652  0.0359  0.1187
   59loPI   PO4  932  15.377  16.881   9.518  0.0628  0.1347 -0.1248
   59loPI   GL1  933  15.064  16.808   9.118  0.3350  0.1813  0.1263
   59loPI   GL2  934  15.194  16.771   9.060  0.0610  0.0796  0.0826
   59loPI   C1A  935  14.722  16.773   8.695 -0.1711 -0.0817 -0.2011
   59loPI   C2A  936  14.696  16.851   8.310 -0.1131  0.0640  0.0398
   59loPI   C3A  937  14.696  16.720   7.921 -0.1239  0.0806 -0.0457
   59loPI   C4A  938  14.677  17.025   7.544 -0.0983  0.1978 -0.0744
   59loPI   C5A  939  14.697  17.379   7.185  0.0670  0.0766  0.0363
   59loPI   C6A  940  14.672  17.842   7.245 -0.1426  0.4297  0.0227
   59loPI   C1B  941  15.193  16.853   8.581  0.0167  0.1704 -0.1608
   59loPI   C2B  942  15.182  16.965   8.251 -0.0558 -0.1240  0.0859
   59loPI   C3B  943  15.174  16.996   7.798  0.0251 -0.1152 -0.0404
   59loPI   C4B  944  15.136  16.800   7.391  0.1866 -0.2703 -0.0186
   60loPI    C1  945  17.569   5.481  10.389 -0.1297 -0.1607  0.0807
   60loPI    C2  946  17.544   5.640  10.755 -0.2631  0.0229 -0.0068
   60loPI    C3  947  17.229   5.449  10.597 -0.1796 -0.1261  0.0053
   60loPI   PO4  948  17.813   5.503  10.327 -0.1141  0.3465 -0.0598
   60loPI   GL1  949  17.950   5.394   9.919  0.3670 -0.0347 -0.2639
   60loPI   GL2  950  17.634   5.121   9.943  0.2681 -0.3394 -0.0169
   60loPI   C1A  951  17.949   5.270   9.416  0.0789  0.1089 -0.0655
   60loPI   C2A  952  18.009   5.261   9.022 -0.2986  0.0790  0.1705
   60loPI   C3A  953  18.026   5.321   8.604  0.1251 -0.2114 -0.0280
   60loPI   C4A  954  18.039   5.378   8.092 -0.0679 -0.1512  0.0063
   60loPI   C5A  955  17.792   5.368   7.783  0.1169  0.0645 -0.1467
   60loPI   C6A  956  17.404   5.274   7.628  0.0160  0.2654 -0.2690
   60loPI   C1B  957  17.572   5.024   9.612 -0.1629 -0.0441 -0.1331
   60loPI   C2B  958  17.696   4.877   9.211 -0.1242  0.1956  0.0549
   60loPI   C3B  959  17.733   4.838   8.769 -0.1082  0.2845 -0.1314
   60loPI   C4B  960  17.822   4.895   8.429 -0.0978  0.0387  0.0750
   61loPI    C1  961   1.639  13.957  10.300  0.0228 -0.1367  0.1029
   61loPI    C2  962   1.786  14.266  10.508 -0.0361 -0.0893  0.0746
   61loPI    C3  963   1.428  14.113  10.602 -0.0802 -0.0430 -0.0163
   61loPI   PO4  964   1.645  14.072  10.012  0.1642  0.0439  0.1025
   61loPI   GL1  965   1.517  14.365   9.672  0.0569  0.2637 -0.0686
   61loPI   GL2  966   1.242  14.406   9.687 -0.0643  0.0974 -0.0596
   61loPI   C1A  967   1.589  14.298   9.253  0.1878 -0.4044  0.1307
   61loPI   C2A  968   1.695  14.282   8.801 -0.0270  0.0135  0.1538
   61loPI   C3A  969   1.799  14.371   8.435 -0.2428  0.2043 -0.0315
   61loPI   C4A  970   1.633  14.557   8.068  0.0290 -0.2585  0.3123
   61loPI   C5A  971   1.349  14.561   7.750 -0.0562  0.0272  0.3025
   61loPI   C6A  972   1.057  14.970   7.637 -0.0290  0.1321 -0.0291
   61loPI   C1B  973   1.223  13.965   9.532  0.0756 -0.1771  0.4422
   61loPI   C2B  974   1.138  14.049   9.073 -0.0957 -0.1271  0.0894
   61loPI   C3B  975   1.239  14.270   8.585 -0.1045  0.2989  0.2025
   61loPI   C4B  976   1.164  14.212   8.132 -0.0147 -0.0039  0.0124
   62loPI    C1  977   5.199   4.518  10.484  0.0119 -0.1293  0.0324
   62loPI    C2  978   5.597   4.531  10.520  0.0120  0.2856 -0.0621
   62loPI    C3  979   5.366   4.557  10.845  0.0588  0.3313 -0.0324
   62loPI   PO4  980   5.158   4.399  10.341  0.0266 -0.0403  0.1386
   62loPI   GL1  981   5.051   4.346   9.985 -0.1850  0.0992  0.0526
   62loPI   GL2  982   4.944   4.533   9.655 -0.0627  0.2774 -0.0385
   62loPI   C1A  983   5.453   4.460   9.708  0.2638  0.3959  0.2535
   62loPI   C2A  984   5.495   4.570   9.322 -0.1043 -0.0258  0.0198
   62loPI   C3A  985   5.429   4.567   8.944 -0.0225 -0.1118 -0.0587
   62loPI   C4A  986   5.410   4.642   8.560  0.3257 -0.0616 -0.2528
   62loPI   C5A  987   5.471   4.782   8.103  0.0663  0.0276 -0.0142
   62loPI   C6A  988   5.441   4.673   7.728 -0.0033  0.0918 -0.0007
   62loPI   C1B  989   4.988   4.528   9.251  0.4262  0.1142  0.0500
   62loPI   C2B  990   4.950   4.507   8.832  0.2095  0.0021  0.0048
   62loPI   C3B  991   4.877   4.757   8.303  0.0002  0.0146 -0.0439
   62loPI   C4B  992   5.014   4.884   7.863 -0.1019 -0.0178 -0.1338
   63loPI    C1  993  11.837  14.469  10.002 -0.1950 -0.1738  0.0468
   63loPI    C2  994  12.136  14.219  10.090 -0.0667 -0.1228 -0.2341
   63loPI    C3  995  12.023  14.496  10.355  0.1992 -0.0797 -0.1623
   63loPI   PO4  996  11.873  14.588   9.682 -0.2679  0.3879  0.2444
   63loPI   GL1  997  11.904  14.611   9.200  0.2596  0.1330 -0.0522
   63loPI   GL2  998  11.670  14.364   9.278  0.1939 -0.3456  0.1115
   63loPI   C1A  999  11.766  14.864   8.796 -0.1081  0.2166 -0.1148
   63loPI   C2A 1000  11.462  14.990   8.522 -0.1152  0.0464  0.1892
   63loPI   C3A 1001  11.080  15.153   8.538  0.0160 -0.2202  0.2776
   63loPI   C4A 1002  11.004  15.207   8.202 -0.2653  0.0453  0.1116
   63loPI   C5A 1003  11.024  15.028   7.842 -0.0179  0.3254  0.0975
   63loPI   C6A 1004  11.111  14.878   7.491 -0.1415  0.0795 -0.1545
   63loPI   C1B 1005  11.697  14.355   8.827  0.0404  0.0470 -0.1124
   63loPI   C2B 1006  11.747  14.452   8.384 -0.1087 -0.1530  0.2574
   63loPI   C3B 1007  11.631  14.645   8.159  0.0714  0.2823  0.0841
   63loPI   C4B 1008  11.682  14.830   7.775 -0.2876 -0.0123 -0.2275
   64loPI    C1 1009  11.811   8.100  10.187 -0.2515 -0.0290 -0.0672
   64loPI    C2 1010  11.468   8.250  10.046 -0.2438  0.0502 -0.0032
   64loPI    C3 1011  11.525   8.219  10.441 -0.2734 -0.1883 -0.0156
   64loPI   PO4 1012  11.833   7.832   9.997 -0.4308  0.1151 -0.1258
   64loPI   GL1 1013  11.696   7.791   9.551 -0.1927  0.0141 -0.0800
   64loPI   GL2 1014  11.538   8.005   9.589 -0.0345 -0.0768 -0.1869
   64loPI   C1A 1015  11.951   7.895   9.149  0.2147 -0.0304  0.2856
   64loPI   C2A 1016  11.817   7.960   8.701 -0.0815 -0.1588  0.2025
   64loPI   C3A 1017  11.654   7.797   8.387  0.0087  0.2567 -0.0869
   64loPI   C4A 1018  11.548   7.887   7.976 -0.3045 -0.0327 -0.0054
   64loPI   C5A 1019  11.414   7.548   7.618  0.1929  0.0266  0.1841
   64loPI   C6A 1020  11.416   7.238   7.271  0.1224 -0.1958  0.2207
   64loPI   C1B 1021  11.596   8.172   9.114  0.0258  0.0646 -0.1809
   64loPI   C2B 1022  11.322   8.209   8.738 -0.1095 -0.2195  0.1152
   64loPI   C3B 1023  11.129   8.009   8.369 -0.0089 -0.1803 -0.0428
   64loPI   C4B 1024  11.000   8.086   7.982  0.1167 -0.0081 -0.0022
   65loPI    C1 1025  10.808  12.126  10.108 -0.1500  0.0601 -0.1320
   65loPI    C2 1026  10.612  12.417  10.299 -0.2168 -0.0583 -0.0190
   65loPI    C3 1027  10.884  12.198  10.494  0.0313  0.1059 -0.1752
   65loPI   PO4 1028  11.029  12.116   9.822 -0.1451 -0.0298  0.2298
   65loPI   GL1 1029  11.158  12.141   9.314  0.1115  0.0796 -0.1497
   65loPI   GL2 1030  11.313  11.966   9.466 -0.2064  0.2360  0.0373
   65loPI   C1A 1031  10.929  11.867   9.072  0.0220 -0.2609 -0.0164
   65loPI   C2A 1032  10.564  11.856   8.828 -0.0865  0.3011  0.0268
   65loPI   C3A 1033  10.390  12.165   8.489  0.0860 -0.1895 -0.2324
   65loPI   C4A 1034   9.973  12.232   8.204  0.1202  0.2154 -0.0052
   65loPI   C5A 1035   9.644  12.402   8.023 -0.0390  0.0593  0.2159
   65loPI   C6A 1036   9.438  12.272   7.702 -0.2020  0.2495  0.0693
   65loPI   C1B 1037  11.607  11.861   9.160  0.2574 -0.1531  0.1172
   65loPI   C2B 1038  11.586  11.710   8.741 -0.1609 -0.0349  0.1386
   65loPI   C3B 1039  11.430  11.552   8.363 -0.1126  0.2978  0.1222
   65loPI   C4B 1040  11.355  11.627   8.023  0.0870 -0.0733 -0.2548
   66loPI    C1 1041  11.220  16.932   9.984 -0.1198  0.0999  0.2966
   66loPI    C2 1042  11.158  17.245  10.225 -0.0637 -0.0232  0.4738
   66loPI    C3 1043  11.507  17.051  10.236  0.0630  0.1682  0.0601
   66loPI   PO4 1044  11.146  17.025   9.698  0.1080 -0.0180  0.1626
   66loPI   GL1 1045  10.854  16.996   9.326  0.0018 -0.2823 -0.0450
   66loPI   GL2 1046  10.695  17.286   9.517  0.2609 -0.2105  0.0987
   66loPI   C1A 1047  10.797  16.878   8.899 -0.3193  0.0505 -0.1780
   66loPI   C2A 1048  10.780  16.689   8.498 -0.0205  0.2206  0.0151
   66loPI   C3A 1049  10.651  16.691   8.030 -0.0147  0.1256  0.1730
   66loPI   C4A 1050  10.395  16.557   7.771 -0.2496 -0.3472  0.0750
   66loPI   C5A 1051  10.496  16.333   7.503 -0.2817 -0.2908  0.1650
   66loPI   C6A 1052  10.252  16.271   7.179 -0.2316  0.1023  0.2925
   66loPI   C1B 1053  10.839  17.361   9.018 -0.0960  0.3997 -0.2084
   66loPI   C2B 1054  11.044  17.370   8.617 -0.1478  0.1217  0.3046
   66loPI   C3B 1055  11.256  17.380   8.240  0.0244 -0.0631 -0.0925
   66loPI   C4B 1056  11.336  17.358   7.741 -0.2315 -0.1608  0.4074
   67loPI    C1 1057   3.522   1.906   9.931  0.2084 -0.0881 -0.1939
   67loPI    C2 1058   3.317   2.171  10.148  0.2396 -0.0758 -0.1793
   67loPI    C3 1059   3.352   2.222   9.753  0.0043 -0.2110 -0.2193
   67loPI   PO4 1060   3.488   1.682   9.987 -0.2641 -0.1632 -0.5511
   67loPI   GL1 1061   3.430   1.399   9.648 -0.2676  0.0638 -0.2017
   67loPI   GL2 1062   3.445   1.662   9.523  0.2184  0.1341  0.1421
   67loPI   C1A 1063   3.382   1.313   9.253  0.0002  0.0019 -0.1865
   67loPI   C2A 1064   3.245   1.295   8.863  0.1283  0.1593 -0.1178
   67loPI   C3A 1065   3.237   1.248   8.408 -0.1771 -0.3957  0.1512
   67loPI   C4A 1066   3.375   1.127   7.962  0.1455  0.1960 -0.1317
   67loPI   C5A 1067   3.571   1.433   7.776  0.2842  0.2577  0.2979
   67loPI   C6A 1068   3.536   1.713   7.457 -0.0205  0.1667  0.3124
   67loPI   C1B 1069   3.643   2.107   9.323 -0.1696 -0.0972 -0.1380
   67loPI   C2B 1070   3.587   2.275   9.024  0.2375 -0.0029  0.2652
   67loPI   C3B 1071   3.635   2.305   8.636 -0.4283 -0.2521  0.4477
   67loPI   C4B 1072   3.479   2.290   8.203  0.1435 -0.2639 -0.0049
   68loPI    C1 1073   9.637   7.768  10.450 -0.1836 -0.0920  0.1701
   68loPI    C2 1074   9.735   7.612  10.805 -0.0202  0.0068  0.1693
   68loPI    C3 1075   9.523   7.950  10.788  0.0728  0.0657  0.1740
   68loPI   PO4 1076   9.605   7.575  10.333 -0.3646  0.0254  0.0374
   68loPI   GL1 1077   9.482   7.487   9.897 -0.1719 -0.0423  0.2512
   68loPI   GL2 1078   9.359   7.314   9.651 -0.0032  0.1085 -0.2440
   68loPI   C1A 1079   9.520   7.700   9.392  0.2365 -0.2498  0.1579
   68loPI   C2A 1080   9.544   7.622   9.020 -0.1992 -0.2175 -0.3188
   68loPI   C3A 1081   9.598   7.709   8.640  0.0518  0.4616  0.2886
   68loPI   C4A 1082   9.726   7.656   8.159  0.0866  0.1861 -0.0151
   68loPI   C5A 1083   9.815   7.406   7.835  0.0739  0.1345  0.0150
   68loPI   C6A 1084   9.982   7.269   7.502  0.0271 -0.0779  0.1056
   68loPI   C1B 1085   9.231   7.186   9.243 -0.0787 -0.2160  0.2226
   68loPI   C2B 1086   9.222   7.276   8.794  0.2469  0.0325 -0.2113
   68loPI   C3B 1087   9.144   7.297   8.316 -0.2922 -0.1631  0.0811
   68loPI   C4B 1088   9.322   7.418   7.962  0.1876 -0.2154 -0.0186
   69loPI    C1 1089   1.962  15.547  10.042 -0.1941  0.1161 -0.1914
   69loPI    C2 1090   2.143  15.837   9.833 -0.0501  0.0832 -0.1135
   69loPI    C3 1091   1.885  15.931  10.124  0.1929  0.1407  0.0875
   69loPI   PO4 1092   2.240  15.354  10.136  0.1739  0.1048  0.1862
   69loPI   GL1 1093   2.522  15.353   9.810  0.0740  0.0465  0.0820
   69loPI   GL2 1094   2.879  15.271   9.727  0.0210 -0.0622  0.1555
   69loPI   C1A 1095   2.650  15.275   9.309  0.0822  0.0855  0.0004
   69loPI   C2A 1096   2.577  15.397   8.862 -0.0810 -0.0559 -0.1169
   69loPI   C3A 1097   2.652  15.444   8.389  0.5408 -0.3123  0.0226
   69loPI   C4A 1098   2.985  15.406   8.046  0.0083  0.1748 -0.2762
   69loPI   C5A 1099   3.171  15.426   7.653  0.3225  0.2109  0.2119
   69loPI   C6A 1100   3.174  15.669   7.382  0.0085  0.0052 -0.1041
   69loPI   C1B 1101   2.677  14.858   9.566 -0.2189  0.2726  0.1152
   69loPI   C2B 1102   2.497  14.919   9.124  0.0651  0.2118 -0.0403
   69loPI   C3B 1103   2.574  14.914   8.645 -0.2474 -0.0226 -0.0961
   69loPI   C4B 1104   2.550  15.015   8.165 -0.0295 -0.1745  0.2145
   70loPI    C1 1105  11.047   3.528  10.322 -0.3127 -0.2532 -0.1364
   70loPI    C2 1106  10.992   3.414  10.701  0.1410  0.0044  0.0148
   70loPI    C3 1107  11.325   3.308  10.507  0.0703  0.1651 -0.1982
   70loPI   PO4 1108  10.932   3.741  10.283 -0.1451  0.1633 -0.1717
   70loPI   GL1 1109  10.843   3.850   9.788  0.1079  0.3078  0.1774
   70loPI   GL2 1110  10.966   4.115   9.769 -0.2917  0.0279  0.0311
   70loPI   C1A 1111  10.700   3.835   9.418  0.0294 -0.2773 -0.1397
   70loPI   C2A 1112  10.733   3.943   9.082 -0.2958  0.1776  0.1798
   70loPI   C3A 1113  10.878   3.904   8.771  0.0220  0.0508 -0.0259
   70loPI   C4A 1114  10.906   3.732   8.417  0.2444  0.0542  0.1630
   70loPI   C5A 1115  10.975   3.784   8.083  0.1254 -0.0037  0.2831
   70loPI   C6A 1116  11.319   3.704   7.822  0.1885 -0.2305  0.3235
   70loPI   C1B 1117  11.035   4.304   9.403 -0.0675 -0.2895  0.2796
   70loPI   C2B 1118  11.124   4.354   8.961  0.5268 -0.0509  0.1504
   70loPI   C3B 1119  11.134   4.282   8.587 -0.0732  0.0624  0.1498
   70loPI   C4B 1120  11.221   4.329   8.173  0.0504  0.0580 -0.1371
   71loPI    C1 1121   3.265  12.764  10.451  0.2187 -0.1060 -0.0486
   71loPI    C2 1122   3.420  13.124  10.530 -0.0481  0.0202 -0.0898
   71loPI    C3 1123   3.142  12.968  10.772 -0.0351 -0.0966 -0.1492
   71loPI   PO4 1124   3.185  12.746  10.286 -0.4713 -0.0138  0.1772
   71loPI   GL1 1125   3.352  12.561   9.844  0.2436 -0.2592  0.1378
   71loPI   GL2 1126   3.455  12.154   9.815  0.2183 -0.1329 -0.2935
   71loPI   C1A 1127   3.365  12.619   9.381 -0.0979  0.2074 -0.3430
   71loPI   C2A 1128   3.341  12.553   8.960 -0.2169 -0.4305  0.2673
   71loPI   C3A 1129   3.494  12.469   8.636 -0.0573 -0.1002 -0.3825
   71loPI   C4A 1130   3.541  12.504   8.243 -0.2153  0.3246  0.2619
   71loPI   C5A 1131   3.482  12.176   7.803  0.0594 -0.1437 -0.3661
   71loPI   C6A 1132   3.277  12.078   7.454 -0.0318  0.0746  0.1523
   71loPI   C1B 1133   3.526  12.060   9.359 -0.2029  0.1668  0.2763
   71loPI   C2B 1134   3.730  11.906   8.901 -0.1669  0.2132 -0.1836
   71loPI   C3B 1135   3.649  11.998   8.486 -0.3748 -0.1022  0.1040
   71loPI   C4B 1136   3.637  11.834   8.143  0.2386 -0.0389  0.1572
   72loPI    C1 1137  17.689   3.755  10.071 -0.0168  0.1306 -0.2764
   72loPI    C2 1138  17.533   3.886  10.416 -0.1382  0.0490 -0.3000
   72loPI    C3 1139  17.777   4.122  10.204  0.1225  0.0150 -0.0432
   72loPI   PO4 1140  17.503   3.644  10.014  0.1042 -0.0775  0.0062
   72loPI   GL1 1141  17.432   3.473   9.650  0.1400  0.4254 -0.0205
   72loPI   GL2 1142  17.231   3.552   9.415 -0.2696 -0.0626  0.2786
   72loPI   C1A 1143  17.812   3.391   9.246  0.1425 -0.1277 -0.0515
   72loPI   C2A 1144  17.915   3.472   8.806 -0.3259 -0.0908  0.0552
   72loPI   C3A 1145  18.044   3.466   8.368 -0.0816 -0.1385  0.2496
   72loPI   C4A 1146  18.151   3.390   8.065  0.0902 -0.0513 -0.0444
   72loPI   C5A 1147  17.952   3.687   7.791  0.0281 -0.0961  0.2133
   72loPI   C6A 1148  17.734   3.607   7.302 -0.2364  0.1525 -0.0257
   72loPI   C1B 1149  17.426   3.591   8.961 -0.1099 -0.0834  0.0435
   72loPI   C2B 1150  17.484   3.561   8.547  0.1699  0.4525 -0.2223
   72loPI   C3B 1151  17.587   3.426   8.121 -0.0919 -0.2286 -0.0048
   72loPI   C4B 1152  17.633   3.236   7.675  0.2535  0.2807 -0.2427
   73loPI    C1 1153  18.644  16.476   9.895  0.2396  0.1571 -0.3631
   73loPI    C2 1154  18.269  16.605   9.943  0.1677 -0.0778 -0.2764
   73loPI    C3 1155  18.571  16.799  10.119  0.0430 -0.1369  0.0090
   73loPI   PO4 1156  18.741  16.424   9.671  0.0126 -0.1900 -0.0117
   73loPI   GL1 1157  18.638  16.195   9.285 -0.1293 -0.1322 -0.0121
   73loPI   GL2 1158  18.541  15.834   9.229  0.0001  0.1037 -0.0663
   73loPI   C1A 1159  18.624  16.361   8.840 -0.0322 -0.2156 -0.1127
   73loPI   C2A 1160  18.587  16.498   8.487  0.3545 -0.1807  0.2059
   73loPI   C3A 1161  18.662  16.494   8.085  0.1754  0.2446 -0.2256
   73loPI   C4A 1162  18.614  16.357   7.627  0.1684  0.1159 -0.2608
   73loPI   C5A 1163  18.510  16.464   7.195  0.1359  0.0699  0.3958
   73loPI   C6A 1164  18.531  16.769   6.807 -0.2240 -0.1552 -0.1569
   73loPI   C1B 1165  18.770  15.854   8.849  0.1420 -0.0340  0.0015
   73loPI   C2B 1166  19.070  16.209   8.685 -0.2551  0.0926 -0.0767
   73loPI   C3B 1167  19.278  16.338   8.365  0.2226 -0.2186  0.2239
   73loPI   C4B 1168  19.548  16.743   8.149 -0.0590  0.1461  0.0578
   74loPI    C1 1169   6.021  13.417  10.234  0.1964  0.1099  0.3897
   74loPI    C2 1170   6.077  13.089  10.454 -0.1535  0.0487  0.3937
   74loPI    C3 1171   5.916  13.415  10.620 -0.0867  0.1216  0.3156
   74loPI   PO4 1172   5.973  13.238   9.950 -0.1644 -0.4512  0.0184
   74loPI   GL1 1173   5.801  13.189   9.581  0.1107  0.2945  0.2500
   74loPI   GL2 1174   5.675  12.816   9.608 -0.0456  0.1899 -0.0201
   74loPI   C1A 1175   5.627  13.300   9.166 -0.3374 -0.1321  0.1064
   74loPI   C2A 1176   5.472  13.304   8.704 -0.2003 -0.1006 -0.1013
   74loPI   C3A 1177   5.548  13.290   8.246  0.0106  0.0583 -0.2300
   74loPI   C4A 1178   5.536  13.393   7.783 -0.1474 -0.0243  0.1894
   74loPI   C5A 1179   5.627  13.803   7.595  0.0787  0.0310 -0.1067
   74loPI   C6A 1180   5.405  14.137   7.212 -0.0015 -0.0710  0.1112
   74loPI   C1B 1181   5.744  12.836   9.097 -0.2906 -0.1059 -0.1381
   74loPI   C2B 1182   5.845  12.788   8.669 -0.3968 -0.0512  0.1263
   74loPI   C3B 1183   5.875  12.756   8.245 -0.0560  0.2317 -0.1334
   74loPI   C4B 1184   5.795  12.428   8.008  0.1540 -0.1569  0.2449
   75loPI    C1 1185   7.144  10.877  10.340 -0.0185  0.0776  0.0437
   75loPI    C2 1186   7.064  11.197  10.567  0.1390  0.1510 -0.0031
   75loPI    C3 1187   7.273  10.890  10.718 -0.2135 -0.0360  0.1158
   75loPI   PO4 1188   6.924  10.707  10.281  0.1730  0.0530  0.1559
   75loPI   GL1 1189   7.001  10.333  10.193  0.2371 -0.0830 -0.2022
   75loPI   GL2 1190   7.209  10.384   9.982  0.0839 -0.1409  0.3299
   75loPI   C1A 1191   6.775  10.220   9.842 -0.2993  0.0082  0.3576
   75loPI   C2A 1192   6.711   9.931   9.517 -0.3059  0.0444 -0.3604
   75loPI   C3A 1193   6.685   9.972   9.142 -0.1174 -0.0085  0.1456
   75loPI   C4A 1194   6.695  10.037   8.733  0.2097  0.1232  0.0317
   75loPI   C5A 1195   6.674  10.000   8.241  0.3008 -0.3949  0.0114
   75loPI   C6A 1196   6.420  10.223   7.968 -0.0047 -0.1812  0.2432
   75loPI   C1B 1197   7.071  10.485   9.510 -0.0688  0.1106  0.7204
   75loPI   C2B 1198   7.152  10.667   9.150 -0.0200 -0.0834  0.1857
   75loPI   C3B 1199   7.014  10.545   8.803  0.2151 -0.1205 -0.1614
   75loPI   C4B 1200   7.057  10.527   8.346 -0.0251 -0.3175 -0.1768
   76loPI    C1 1201  15.702  18.484   9.875  0.3889  0.0917 -0.0274
   76loPI    C2 1202  15.791  18.873   9.909 -0.0417  0.1768  0.1971
   76loPI    C3 1203  15.623  18.679  10.216 -0.1948 -0.0886 -0.0504
   76loPI   PO4 1204  15.566  18.464   9.654 -0.0647 -0.0897 -0.2243
   76loPI   GL1 1205  15.618  18.373   9.254  0.2629  0.0585 -0.0296
   76loPI   GL2 1206  15.338  18.485   9.170 -0.0474  0.1233  0.1247
   76loPI   C1A 1207  15.749  18.228   8.869  0.0013  0.0743 -0.1932
   76loPI   C2A 1208  15.837  18.210   8.506 -0.2696 -0.1549 -0.2045
   76loPI   C3A 1209  15.859  18.291   8.053  0.0629 -0.1499 -0.2377
   76loPI   C4A 1210  15.644  18.068   7.677 -0.1265 -0.0194  0.0462
   76loPI   C5A 1211  15.420  17.939   7.305 -0.4559 -0.0538 -0.0951
   76loPI   C6A 1212  15.185  17.816   7.135 -0.0853 -0.2621  0.0397
   76loPI   C1B 1213  15.316  18.294   8.680 -0.3295  0.1186 -0.0698
   76loPI   C2B 1214  15.306  18.361   8.270 -0.0807 -0.4723  0.0546
   76loPI   C3B 1215  15.299  18.573   7.851  0.4078  0.1577 -0.0844
   76loPI   C4B 1216  15.530  18.534   7.541 -0.0647  0.0764  0.1430
   77loPI    C1 1217   5.400   2.924  10.591  0.1180  0.0340 -0.0814
   77loPI    C2 1218   5.096   3.046  10.821  0.1508 -0.1110  0.0402
   77loPI    C3 1219   5.418   2.877  10.987  0.3514  0.1479 -0.0771
   77loPI   PO4 1220   5.277   3.054  10.310  0.0071  0.2147  0.2287
   77loPI   GL1 1221   5.394   2.906   9.834  0.2410  0.0410  0.0970
   77loPI   GL2 1222   5.415   2.657   9.704 -0.0098  0.0701 -0.0743
   77loPI   C1A 1223   5.240   3.134   9.561 -0.0167  0.0999  0.1979
   77loPI   C2A 1224   5.147   3.159   9.099 -0.1714  0.1188  0.0162
   77loPI   C3A 1225   5.065   3.180   8.672 -0.1394 -0.1430  0.2812
   77loPI   C4A 1226   5.049   2.992   8.418 -0.0106  0.0790  0.2735
   77loPI   C5A 1227   5.259   2.985   7.945 -0.0743 -0.0850  0.1522
   77loPI   C6A 1228   5.127   3.059   7.623 -0.3517  0.1432 -0.1508
   77loPI   C1B 1229   5.378   2.716   9.352 -0.1355  0.3623  0.0500
   77loPI   C2B 1230   5.329   2.747   8.891 -0.1359 -0.1715  0.0769
   77loPI   C3B 1231   5.431   2.722   8.610 -0.0533  0.3136 -0.2697
   77loPI   C4B 1232   5.585   2.847   8.254  0.0355  0.0061  0.1780
   78loPI    C1 1233   5.422   8.664  10.330  0.0526  0.0760 -0.0292
   78loPI    C2 1234   5.352   8.601  10.719 -0.1543 -0.2093 -0.1089
   78loPI    C3 1235   5.697   8.482  10.556  0.0443  0.1471  0.0389
   78loPI   PO4 1236   5.250   8.543  10.178 -0.1233  0.3058  0.0852
   78loPI   GL1 1237   4.819   8.606   9.988  0.3509  0.1135  0.2869
   78loPI   GL2 1238   4.506   8.437   9.994 -0.0417  0.0326  0.0826
   78loPI   C1A 1239   4.817   8.837   9.582  0.1333 -0.1149 -0.1302
   78loPI   C2A 1240   4.844   8.760   9.185 -0.1080 -0.2563 -0.2889
   78loPI   C3A 1241   4.808   8.746   8.748  0.0909  0.2818 -0.0713
   78loPI   C4A 1242   4.814   8.784   8.322 -0.1609 -0.1032  0.1956
   78loPI   C5A 1243   4.977   8.509   7.963 -0.1749  0.1265  0.5260
   78loPI   C6A 1244   5.157   8.327   7.587 -0.1078  0.4449  0.2697
   78loPI   C1B 1245   4.542   8.406   9.566  0.3998  0.0779  0.0658
   78loPI   C2B 1246   4.557   8.359   9.082  0.0091 -0.0050 -0.3086
   78loPI   C3B 1247   4.484   8.312   8.598  0.0552  0.2505 -0.0194
   78loPI   C4B 1248   4.490   8.271   8.162 -0.2438  0.1704 -0.0502
   79loPI    C1 1249  17.218  17.420   9.813  0.0567 -0.0312  0.0189
   79loPI    C2 1250  17.293  17.629  10.145 -0.0718 -0.0240  0.0441
   79loPI    C3 1251  16.935  17.458  10.093  0.0410 -0.2615  0.0362
   79loPI   PO4 1252  17.224  17.541   9.646  0.1166 -0.1531  0.1758
   79loPI   GL1 1253  17.083  17.373   9.239 -0.0379 -0.1199  0.1952
   79loPI   GL2 1254  16.801  17.081   9.057 -0.2703  0.1641 -0.3271
   79loPI   C1A 1255  17.380  17.390   8.820 -0.0409  0.1384 -0.1250
   79loPI   C2A 1256  17.281  17.306   8.352  0.1925 -0.1078 -0.0034
   79loPI   C3A 1257  17.302  17.518   8.046  0.2414 -0.0978 -0.0096
   79loPI   C4A 1258  17.208  17.908   7.820 -0.3299 -0.4870  0.2190
   79loPI   C5A 1259  17.092  18.188   7.525  0.0942  0.1052 -0.1929
   79loPI   C6A 1260  16.970  18.566   7.401 -0.0443  0.2938 -0.1346
   79loPI   C1B 1261  16.865  17.329   8.717  0.4480 -0.0086 -0.0699
   79loPI   C2B 1262  16.781  17.368   8.329  0.1776 -0.0332  0.2941
   79loPI   C3B 1263  16.619  17.467   7.871 -0.1971 -0.0702 -0.0974
   79loPI   C4B 1264  16.727  17.753   7.572  0.4257  0.1863  0.0607
   80loPI    C1 1265   9.173   7.628  10.540  0.0838 -0.0645  0.1110
   80loPI    C2 1266   8.852   7.588  10.776  0.0249 -0.0328  0.0367
   80loPI    C3 1267   9.216   7.624  10.938 -0.0229  0.0620  0.1245
   80loPI   PO4 1268   9.029   7.721  10.274 -0.4262  0.0622  0.1980
   80loPI   GL1 1269   9.024   7.657   9.884  0.2606 -0.0706  0.1987
   80loPI   GL2 1270   8.723   7.826   9.920 -0.2157 -0.5551 -0.1571
   80loPI   C1A 1271   9.040   7.795   9.424  0.2548  0.0240  0.0777
   80loPI   C2A 1272   8.954   7.683   8.977 -0.2991  0.1591  0.1394
   80loPI   C3A 1273   8.958   7.667   8.572 -0.1045 -0.1366  0.0132
   80loPI   C4A 1274   8.789   7.662   8.205 -0.0141 -0.0138  0.1347
   80loPI   C5A 1275   8.844   7.398   7.846  0.2510  0.0162 -0.0673
   80loPI   C6A 1276   8.996   7.155   7.390  0.2938 -0.4056  0.4335
   80loPI   C1B 1277   8.532   7.783   9.538  0.2145 -0.0410 -0.0220
   80loPI   C2B 1278   8.483   7.723   9.088  0.0245 -0.0016 -0.1733
   80loPI   C3B 1279   8.441   7.753   8.657 -0.0209 -0.0477  0.0799
   80loPI   C4B 1280   8.416   7.466   8.412  0.0466  0.0511 -0.1948
   81loPI    C1 1281  17.522   4.391  10.572  0.1179 -0.0055  0.2252
   81loPI    C2 1282  17.394   4.679  10.818  0.1479  0.0224  0.2082
   81loPI    C3 1283  17.489   4.319  10.964 -0.0055 -0.0169  0.2134
   81loPI   PO4 1284  17.573   4.558  10.366  0.1914  0.0328  0.2393
   81loPI   GL1 1285  17.598   4.523   9.923  0.1632 -0.2102  0.2663
   81loPI   GL2 1286  17.905   4.682   9.897 -0.1925  0.0145 -0.2301
   81loPI   C1A 1287  17.434   4.509   9.460 -0.0908 -0.0250 -0.0887
   81loPI   C2A 1288  17.485   4.462   9.041 -0.0911 -0.0913  0.0054
   81loPI   C3A 1289  17.444   4.363   8.627 -0.2175 -0.1558  0.1302
   81loPI   C4A 1290  17.640   4.407   8.214 -0.0632 -0.0840  0.0190
   81loPI   C5A 1291  17.675   4.450   7.726 -0.0198 -0.1043  0.0460
   81loPI   C6A 1292  17.930   4.591   7.435 -0.0619  0.2308 -0.3607
   81loPI   C1B 1293  18.149   4.803   9.485 -0.1884  0.0645 -0.0559
   81loPI   C2B 1294  18.280   4.730   9.154 -0.0926 -0.0986  0.0334
   81loPI   C3B 1295  18.284   4.811   8.682 -0.0633  0.1198 -0.0130
   81loPI   C4B 1296  18.315   5.019   8.347  0.3487 -0.1406 -0.0639
   82loPI    C1 1297   1.588   4.474  10.512 -0.1166 -0.1235  0.0527
   82loPI    C2 1298   1.541   4.181  10.781 -0.0361  0.0113  0.2151
   82loPI    C3 1299   1.793   4.483  10.855  0.0237  0.0245 -0.0338
   82loPI   PO4 1300   1.468   4.563  10.423  0.0298  0.3588 -0.1306
   82loPI   GL1 1301   1.488   4.861  10.159 -0.0368 -0.0524  0.0941
   82loPI   GL2 1302   1.146   4.841  10.107 -0.0819 -0.5094 -0.1285
   82loPI   C1A 1303   1.469   5.146   9.804 -0.0466 -0.0077 -0.0005
   82loPI   C2A 1304   1.484   5.081   9.392  0.0769 -0.3698 -0.0840
   82loPI   C3A 1305   1.366   5.175   8.970  0.1195  0.0058 -0.1034
   82loPI   C4A 1306   1.485   5.337   8.544  0.3199 -0.4309 -0.1804
   82loPI   C5A 1307   1.479   5.403   8.204  0.2451  0.1968 -0.3596
   82loPI   C6A 1308   1.568   5.437   7.732  0.2135  0.0374 -0.2493
   82loPI   C1B 1309   1.232   4.749   9.640  0.2605  0.2405  0.0294
   82loPI   C2B 1310   1.193   4.746   9.169  0.4841 -0.4436  0.0897
   82loPI   C3B 1311   1.115   4.798   8.680 -0.4314  0.1855 -0.0424
   82loPI   C4B 1312   1.300   4.866   8.350 -0.2121 -0.0137  0.1819
   83loPI    C1 1313   7.657   4.631  10.518  0.1485  0.0739 -0.0501
   83loPI    C2 1314   7.891   4.318  10.605 -0.0809 -0.1499 -0.2226
   83loPI    C3 1315   7.591   4.417  10.850 -0.0159 -0.0714 -0.1743
   83loPI   PO4 1316   7.501   4.509  10.249 -0.0556 -0.2731 -0.2077
   83loPI   GL1 1317   7.364   4.565   9.802  0.2965 -0.1170 -0.2184
   83loPI   GL2 1318   7.275   4.893   9.739 -0.0044 -0.1355  0.1937
   83loPI   C1A 1319   7.307   4.421   9.308  0.0315 -0.2499  0.3078
   83loPI   C2A 1320   7.397   4.576   8.904  0.1834  0.1172  0.1816
   83loPI   C3A 1321   7.255   4.575   8.592  0.0481  0.2878 -0.1930
   83loPI   C4A 1322   7.165   4.588   8.244  0.1741  0.0268 -0.1065
   83loPI   C5A 1323   7.406   4.582   7.896  0.3143  0.0356 -0.1547
   83loPI   C6A 1324   7.753   4.683   7.807 -0.2094 -0.1082  0.1238
   83loPI   C1B 1325   7.345   4.914   9.391 -0.0324  0.0110 -0.0666
   83loPI   C2B 1326   7.275   5.031   8.887 -0.1926 -0.0117 -0.1459
   83loPI   C3B 1327   7.427   5.094   8.476 -0.0021  0.2573  0.3776
   83loPI   C4B 1328   7.587   5.037   8.153  0.2241  0.0793 -0.0021
   84loPI    C1 1329  16.615   4.691  10.391 -0.2435  0.1002 -0.0386
   84loPI    C2 1330  16.831   5.022  10.452  0.0389 -0.0470 -0.2159
   84loPI    C3 1331  16.613   4.868  10.750  0.0668  0.1821 -0.0741
   84loPI   PO4 1332  16.784   4.514  10.143 -0.0046  0.1476  0.0276
   84loPI   GL1 1333  16.962   4.413   9.789  0.0294 -0.0633  0.3276
   84loPI   GL2 1334  16.817   4.164   9.479 -0.2508  0.0435  0.4216
   84loPI   C1A 1335  16.964   4.699   9.555  0.2758 -0.0414 -0.1702
   84loPI   C2A 1336  17.196   4.822   9.194 -0.0003  0.0074 -0.1911
   84loPI   C3A 1337  17.194   4.839   8.674  0.2939 -0.2445  0.1391
   84loPI   C4A 1338  17.293   4.844   8.210 -0.0019 -0.4194 -0.2464
   84loPI   C5A 1339  17.731   4.926   7.897 -0.0530  0.2211 -0.1380
   84loPI   C6A 1340  18.210   4.913   7.864 -0.1278  0.1207  0.1469
   84loPI   C1B 1341  16.933   4.399   9.195 -0.0414  0.2253 -0.2206
   84loPI   C2B 1342  16.881   4.455   8.816  0.1710  0.2876 -0.0374
   84loPI   C3B 1343  16.968   4.497   8.396 -0.3110  0.1431 -0.0938
   84loPI   C4B 1344  16.847   4.515   7.924  0.0819  0.0539  0.2141
   85loPI    C1 1345  10.948  14.385  10.018 -0.0139 -0.2563  0.1051
   85loPI    C2 1346  10.926  14.774   9.928  0.0091 -0.2467  0.1402
   85loPI    C3 1347  10.654  14.609  10.170 -0.0867 -0.2851  0.0076
   85loPI   PO4 1348  10.975  14.257   9.827  0.0797 -0.0348 -0.1446
   85loPI   GL1 1349  11.026  14.189   9.474 -0.0649 -0.1113 -0.1859
   85loPI   GL2 1350  11.151  14.307   9.136  0.1385 -0.0630  0.1515
   85loPI   C1A 1351  10.931  13.847   9.224  0.0993  0.1552 -0.1859
   85loPI   C2A 1352  10.789  13.635   8.854  0.2165  0.3224 -0.2044
   85loPI   C3A 1353  10.812  13.388   8.450  0.0125 -0.2385 -0.0287
   85loPI   C4A 1354  10.700  13.242   8.147  0.1734  0.1522  0.2524
   85loPI   C5A 1355  10.814  13.250   7.708  0.0195  0.3085  0.1432
   85loPI   C6A 1356  11.076  13.384   7.372 -0.0097  0.0050 -0.1783
   85loPI   C1B 1357  11.288  13.995   8.903  0.4785 -0.4020 -0.0575
   85loPI   C2B 1358  11.128  13.782   8.564  0.0770  0.0579 -0.1272
   85loPI   C3B 1359  11.265  13.441   8.178  0.2498 -0.2632  0.4307
   85loPI   C4B 1360  11.396  13.530   7.783  0.0350 -0.3978  0.0414
   86loPI    C1 1361   3.117   8.144  10.718 -0.0699  0.0138 -0.0997
   86loPI    C2 1362   2.753   8.194  10.878 -0.1494 -0.3887 -0.1449
   86loPI    C3 1363   3.071   8.140  11.116 -0.0573  0.2896 -0.0929
   86loPI   PO4 1364   3.002   8.277  10.475 -0.0229 -0.2450 -0.2255
   86loPI   GL1 1365   3.199   8.481  10.108  0.0917  0.1916 -0.2551
   86loPI   GL2 1366   3.484   8.267  10.015  0.0750  0.0062 -0.2901
   86loPI   C1A 1367   3.027   8.228   9.764  0.0322 -0.0217 -0.0421
   86loPI   C2A 1368   3.063   8.319   9.341 -0.1576  0.1843 -0.1774
   86loPI   C3A 1369   2.947   8.436   8.851 -0.2876  0.0002  0.0504
   86loPI   C4A 1370   2.883   8.437   8.360 -0.1559 -0.1002 -0.0551
   86loPI   C5A 1371   2.641   8.147   8.100 -0.5229 -0.1140 -0.2933
   86loPI   C6A 1372   2.401   7.707   8.098 -0.0398 -0.0298  0.1685
   86loPI   C1B 1373   3.527   8.421   9.543  0.2399 -0.0471 -0.1706
   86loPI   C2B 1374   3.580   8.350   9.078 -0.0639 -0.2485 -0.0980
   86loPI   C3B 1375   3.495   8.355   8.693  0.1110 -0.0444 -0.1040
   86loPI   C4B 1376   3.426   8.164   8.210  0.1363  0.1328 -0.3150
   87loPI    C1 1377  13.061  18.323   9.864  0.0357 -0.1356  0.0016
   87loPI    C2 1378  12.810  18.101  10.081 -0.0312 -0.1479 -0.0876
   87loPI    C3 1379  13.116  18.287  10.258 -0.2291  0.0446  0.0578
   87loPI   PO4 1380  12.851  18.423   9.683  0.2585 -0.1053  0.0026
   87loPI   GL1 1381  12.666  18.542   9.320 -0.0159 -0.2083 -0.3088
   87loPI   GL2 1382  12.665  18.979   9.377 -0.2494 -0.0277 -0.1099
   87loPI   C1A 1383  12.562  18.578   8.876 -0.1023 -0.0217  0.0653
   87loPI   C2A 1384  12.517  18.606   8.492 -0.1328 -0.1877 -0.1468
   87loPI   C3A 1385  12.649  18.545   8.047  0.2506  0.1543 -0.1449
   87loPI   C4A 1386  12.464  18.647   7.690 -0.2725 -0.1640  0.2071
   87loPI   C5A 1387  12.287  18.964   7.378  0.0119  0.0464 -0.0439
   87loPI   C6A 1388  12.254  18.940   6.877 -0.0406  0.1043 -0.1073
   87loPI   C1B 1389  12.806  19.034   8.990 -0.0529 -0.2134  0.3858
   87loPI   C2B 1390  12.815  19.170   8.569 -0.2140  0.0298  0.2616
   87loPI   C3B 1391  12.798  19.155   8.101  0.1414 -0.4198  0.0784
   87loPI   C4B 1392  12.713  19.214   7.673  0.0069 -0.0170 -0.1223
   88loPI    C1 1393  14.317  16.497   9.664 -0.0194 -0.0991 -0.2803
   88loPI    C2 1394  14.055  16.218   9.549 -0.0832 -0.1625  0.0126
   88loPI    C3 1395  13.938  16.515   9.791  0.0635 -0.0681 -0.0314
   88loPI   PO4 1396  14.469  16.517   9.442 -0.1257 -0.4250  0.0829
   88loPI   GL1 1397  14.545  16.578   9.081 -0.2069 -0.2218 -0.3014
   88loPI   GL2 1398  14.355  16.848   9.132 -0.7392  0.1154  0.0834
   88loPI   C1A 1399  14.246  16.549   8.730 -0.0948  0.0298 -0.2130
   88loPI   C2A 1400  14.347  16.504   8.359  0.0483  0.0794  0.2780
   88loPI   C3A 1401  14.347  16.374   7.910  0.1555  0.0662  0.0530
   88loPI   C4A 1402  14.246  16.566   7.531 -0.0944  0.0376  0.0379
   88loPI   C5A 1403  14.214  16.223   7.111 -0.3335 -0.0186 -0.1460
   88loPI   C6A 1404  13.861  16.090   7.069 -0.0113 -0.2387 -0.0913
   88loPI   C1B 1405  14.275  17.050   8.740  0.1531  0.0433  0.1523
   88loPI   C2B 1406  14.203  17.205   8.367  0.0507  0.2078 -0.1074
   88loPI   C3B 1407  14.335  17.047   7.956  0.2044  0.0166  0.1144
   88loPI   C4B 1408  14.178  17.110   7.550 -0.0037 -0.0874 -0.0106
   89loPI    C1 1409   1.771   2.569  10.219 -0.1389 -0.0876  0.0014
   89loPI    C2 1410   1.881   2.884  10.440  0.1226 -0.0382 -0.1944
   89loPI    C3 1411   1.900   2.515  10.594 -0.2131  0.0395  0.0458
   89loPI   PO4 1412   1.988   2.682   9.979 -0.1370  0.1954  0.0798
   89loPI   GL1 1413   2.093   2.984   9.548 -0.2351  0.0118  0.1456
   89loPI   GL2 1414   2.315   2.835   9.418 -0.1882  0.1379  0.4325
   89loPI   C1A 1415   1.779   2.962   9.218 -0.0840 -0.2932  0.2070
   89loPI   C2A 1416   1.681   2.972   8.830  0.0889 -0.3037  0.0976
   89loPI   C3A 1417   1.674   2.956   8.366  0.0909 -0.3440 -0.0884
   89loPI   C4A 1418   1.771   3.114   8.018 -0.1841 -0.0493  0.2727
   89loPI   C5A 1419   1.689   2.787   7.643 -0.2493  0.1960 -0.1797
   89loPI   C6A 1420   1.560   2.376   7.560  0.0295 -0.2861  0.0639
   89loPI   C1B 1421   2.269   2.980   8.990  0.2551  0.0753  0.0452
   89loPI   C2B 1422   2.245   3.024   8.517  0.2373 -0.1023  0.2031
   89loPI   C3B 1423   2.287   3.151   8.131  0.2010  0.3142  0.0950
   89loPI   C4B 1424   2.066   3.138   7.663 -0.0706 -0.3674 -0.0123
   90loPI    C1 1425   6.254  10.804  10.463  0.0780  0.1321  0.2240
   90loPI    C2 1426   6.612  10.903  10.614  0.1559 -0.0837  0.1836
   90loPI    C3 1427   6.511  10.518  10.573  0.0403 -0.0270 -0.0912
   90loPI   PO4 1428   6.278  10.961  10.219  0.2271 -0.3560  0.0161
   90loPI   GL1 1429   6.102  10.674   9.982 -0.0572 -0.1099 -0.3897
   90loPI   GL2 1430   6.377  10.489  10.082 -0.1561  0.0019  0.1856
   90loPI   C1A 1431   5.988  10.514   9.556 -0.1690 -0.0963  0.0623
   90loPI   C2A 1432   5.997  10.494   8.987 -0.0124  0.0469  0.1657
   90loPI   C3A 1433   5.971  10.529   8.523 -0.0277 -0.1064  0.0751
   90loPI   C4A 1434   6.026  10.420   8.126 -0.1602  0.1192 -0.4150
   90loPI   C5A 1435   5.571  10.452   7.980 -0.0374  0.0363 -0.1961
   90loPI   C6A 1436   5.097  10.446   7.906 -0.0052 -0.2430  0.0342
   90loPI   C1B 1437   6.304  10.185   9.811  0.2517 -0.2080 -0.0010
   90loPI   C2B 1438   6.225  10.087   9.406 -0.0780  0.0649  0.1055
   90loPI   C3B 1439   6.206  10.091   8.925  0.0741  0.1205 -0.1081
   90loPI   C4B 1440   6.226  10.111   8.496 -0.2129 -0.1676  0.0943
   91loPI    C1 1441  15.884  15.287   9.611 -0.0668  0.2319  0.1012
   91loPI    C2 1442  15.990  14.969   9.394  0.0926  0.4041 -0.0774
   91loPI    C3 1443  16.059  14.974   9.787 -0.3136  0.0369  0.0069
   91loPI   PO4 1444  15.927  15.438   9.531 -0.0754 -0.1010  0.0698
   91loPI   GL1 1445  15.944  15.520   9.169 -0.1017 -0.0646  0.1363
   91loPI   GL2 1446  16.036  15.733   8.969 -0.1300 -0.2798 -0.2093
   91loPI   C1A 1447  16.121  15.210   8.896  0.0046  0.3161  0.1796
   91loPI   C2A 1448  16.135  15.177   8.461 -0.3667  0.3660  0.1528
   91loPI   C3A 1449  16.285  15.413   8.152  0.1855 -0.0167 -0.2568
   91loPI   C4A 1450  16.382  15.637   7.766 -0.1017  0.0164  0.2497
   91loPI   C5A 1451  16.618  15.662   7.332 -0.0225  0.2052  0.1739
   91loPI   C6A 1452  16.910  15.558   7.049  0.0641 -0.2083  0.1582
   91loPI   C1B 1453  16.261  15.743   8.553  0.1043  0.0751  0.0365
   91loPI   C2B 1454  16.287  15.986   8.164 -0.1761  0.2656 -0.0550
   91loPI   C3B 1455  16.630  16.109   7.960  0.0215 -0.4190 -0.0277
   91loPI   C4B 1456  17.135  16.037   7.909 -0.0358  0.0006 -0.2822
   92loPI    C1 1457   8.918   5.258  10.627 -0.3535  0.1615  0.0477
   92loPI    C2 1458   8.877   5.571  10.873  0.0807  0.0721  0.2431
   92loPI    C3 1459   8.882   5.200  11.021  0.0467 -0.0007  0.0647
   92loPI   PO4 1460   8.672   5.271  10.315  0.0012  0.0954  0.1736
   92loPI   GL1 1461   8.528   5.261   9.895 -0.0462 -0.0729  0.0035
   92loPI   GL2 1462   8.832   5.458   9.872  0.0839  0.1929  0.0123
   92loPI   C1A 1463   8.402   5.257   9.453 -0.2709 -0.2914  0.2415
   92loPI   C2A 1464   8.373   5.127   8.945 -0.0163  0.1891  0.1279
   92loPI   C3A 1465   8.376   5.056   8.601 -0.1522  0.1541 -0.4690
   92loPI   C4A 1466   8.157   4.837   8.220  0.0543  0.1641 -0.0794
   92loPI   C5A 1467   8.114   4.461   8.037  0.0326  0.1168 -0.2308
   92loPI   C6A 1468   8.084   4.298   7.627  0.2346 -0.2209  0.2829
   92loPI   C1B 1469   8.910   5.446   9.425  0.3025  0.1067 -0.0729
   92loPI   C2B 1470   8.745   5.369   9.006 -0.1259  0.0098  0.1334
   92loPI   C3B 1471   8.678   5.483   8.522 -0.1767 -0.2127 -0.2708
   92loPI   C4B 1472   8.706   5.421   8.073 -0.0435  0.0127 -0.0555
   93loPI    C1 1473   9.132  15.517   9.774  0.2064  0.0615  0.0798
   93loPI    C2 1474   9.039  15.659  10.136 -0.0541  0.1874 -0.0343
   93loPI    C3 1475   9.253  15.323  10.103 -0.0259  0.1763  0.2355
   93loPI   PO4 1476   8.940  15.469   9.662 -0.0207 -0.1756  0.0803
   93loPI   GL1 1477   9.080  15.237   9.333  0.1598 -0.1521  0.1300
   93loPI   GL2 1478   8.745  15.121   9.287 -0.0546 -0.1158 -0.3658
   93loPI   C1A 1479   9.171  14.957   8.952  0.1358 -0.1158 -0.0990
   93loPI   C2A 1480   9.248  14.578   8.727  0.0733  0.0453  0.1522
   93loPI   C3A 1481   9.148  14.162   8.456  0.3388  0.0662 -0.1327
   93loPI   C4A 1482   9.158  14.101   8.062  0.5378  0.1545  0.0002
   93loPI   C5A 1483   9.389  14.012   7.704 -0.2057  0.0964  0.1982
   93loPI   C6A 1484   9.484  14.188   7.353 -0.1722 -0.3074 -0.3115
   93loPI   C1B 1485   8.614  15.108   8.844  0.3552  0.1545  0.2252
   93loPI   C2B 1486   8.607  15.168   8.385 -0.3347  0.2131  0.0337
   93loPI   C3B 1487   8.481  15.160   8.006  0.2916 -0.2446 -0.0760
   93loPI   C4B 1488   8.197  15.272   7.829 -0.0068 -0.0222  0.1699
   94loPI    C1 1489  18.475  15.652   9.834  0.0877 -0.1970 -0.0389
   94loPI    C2 1490  18.425  15.281   9.975 -0.0267 -0.1622  0.0135
   94loPI    C3 1491  18.610  15.557  10.198 -0.1583 -0.1223  0.0739
   94loPI   PO4 1492  18.352  15.573   9.578  0.0794  0.3179 -0.0109
   94loPI   GL1 1493  18.222  15.409   9.207 -0.1795  0.0457 -0.1656
   94loPI   GL2 1494  18.411  15.113   9.318 -0.0315 -0.0193 -0.1919
   94loPI   C1A 1495  18.381  15.503   8.898  0.2082 -0.1016 -0.0453
   94loPI   C2A 1496  18.516  15.473   8.449  0.2121 -0.1994  0.1191
   94loPI   C3A 1497  18.556  15.674   7.968 -0.0383 -0.1740 -0.3597
   94loPI   C4A 1498  18.927  15.947   7.774 -0.2590 -0.1224 -0.5198
   94loPI   C5A 1499  18.828  16.065   7.302 -0.1451  0.3194 -0.2031
   94loPI   C6A 1500  18.862  16.011   6.830  0.4115  0.0753 -0.1324
   94loPI   C1B 1501  18.587  14.982   8.963  0.1087  0.0557  0.0111
   94loPI   C2B 1502  18.718  15.046   8.418  0.1047  0.1766 -0.3435
   94loPI   C3B 1503  18.850  15.044   8.085 -0.0681  0.2189  0.1460
   94loPI   C4B 1504  19.213  15.017   7.746  0.2780 -0.0644 -0.1156
   95loPI    C1 1505  18.639  11.591  10.345 -0.4460 -0.0549  0.2029
   95loPI    C2 1506  18.693  11.617  10.740 -0.2365  0.1918  0.1611
   95loPI    C3 1507  18.555  11.932  10.536 -0.0824  0.1558 -0.0014
   95loPI   PO4 1508  18.481  11.296  10.319 -0.1476  0.0986 -0.2126
   95loPI   GL1 1509  18.303  11.283   9.921  0.1647 -0.1777  0.0958
   95loPI   GL2 1510  18.086  11.431   9.833  0.0781  0.1220 -0.0692
   95loPI   C1A 1511  18.518  11.259   9.529 -0.2501 -0.2691 -0.2455
   95loPI   C2A 1512  18.552  11.206   9.095 -0.0310  0.0531  0.0979
   95loPI   C3A 1513  18.445  11.191   8.747 -0.4089  0.1047 -0.0365
   95loPI   C4A 1514  18.552  11.031   8.320 -0.2166 -0.0154 -0.0232
   95loPI   C5A 1515  18.627  10.712   8.052 -0.1569 -0.2794 -0.1051
   95loPI   C6A 1516  18.746  10.325   7.923  0.1513 -0.6259  0.2257
   95loPI   C1B 1517  18.276  11.705   9.490  0.0047  0.2547  0.1150
   95loPI   C2B 1518  18.316  11.604   9.012  0.0469 -0.0371  0.0316
   95loPI   C3B 1519  18.256  11.745   8.589  0.3624  0.2495  0.1481
   95loPI   C4B 1520  18.280  11.813   8.212  0.2209  0.2846  0.1028
   96loPI    C1 1521   8.406  12.143  10.368  0.0790 -0.1928 -0.1056
   96loPI    C2 1522   8.529  11.763  10.387  0.1034 -0.1803 -0.0072
   96loPI    C3 1523   8.545  11.995  10.712 -0.2394 -0.1964  0.0245
   96loPI   PO4 1524   8.151  12.015  10.224  0.1830  0.0833  0.1690
   96loPI   GL1 1525   8.221  11.974   9.667  0.0257 -0.1748 -0.0738
   96loPI   GL2 1526   8.337  12.336   9.569  0.2253 -0.1318 -0.0609
   96loPI   C1A 1527   8.027  11.960   9.320  0.0430  0.0320 -0.0991
   96loPI   C2A 1528   7.988  11.807   8.946 -0.0910 -0.0147  0.1014
   96loPI   C3A 1529   7.873  11.823   8.569 -0.0739 -0.1627  0.2239
   96loPI   C4A 1530   7.913  11.695   8.125  0.1064  0.2519 -0.0240
   96loPI   C5A 1531   7.749  11.741   7.664 -0.0812  0.3740 -0.2153
   96loPI   C6A 1532   8.017  11.754   7.299  0.0725  0.0116 -0.1815
   96loPI   C1B 1533   8.341  12.245   9.113  0.2495 -0.0111  0.0291
   96loPI   C2B 1534   8.372  12.351   8.763 -0.2177  0.0022  0.0725
   96loPI   C3B 1535   8.173  12.250   8.452 -0.2290 -0.3035 -0.0411
   96loPI   C4B 1536   8.256  12.111   8.053  0.1256  0.1900 -0.1253
   97loPI    C1 1537  14.393  14.601   9.552  0.1961  0.0851  0.0520
   97loPI    C2 1538  14.593  14.689   9.887 -0.0805 -0.0746  0.2634
   97loPI    C3 1539  14.461  14.317   9.826 -0.0490 -0.0416 -0.0160
   97loPI   PO4 1540  14.604  14.680   9.319 -0.1625  0.1462 -0.0226
   97loPI   GL1 1541  14.777  14.450   9.012  0.0103 -0.1213 -0.1105
   97loPI   GL2 1542  14.976  14.332   9.049 -0.0010 -0.0873  0.0374
   97loPI   C1A 1543  14.751  14.241   8.583  0.0517 -0.1355 -0.2113
   97loPI   C2A 1544  14.725  14.147   8.171 -0.0026 -0.1847 -0.1521
   97loPI   C3A 1545  14.775  14.364   7.774  0.1687 -0.1711  0.1345
   97loPI   C4A 1546  15.150  14.487   7.462  0.0894  0.0331  0.0225
   97loPI   C5A 1547  15.281  14.774   7.249  0.0380 -0.5932 -0.0912
   97loPI   C6A 1548  15.474  14.997   6.873 -0.1392  0.1964  0.1619
   97loPI   C1B 1549  15.214  14.059   8.652 -0.4104 -0.0203 -0.1645
   97loPI   C2B 1550  15.368  14.024   8.192 -0.0179  0.0815 -0.2943
   97loPI   C3B 1551  15.392  14.182   7.773  0.0911  0.2697 -0.1872
   97loPI   C4B 1552  15.608  14.352   7.403 -0.3692 -0.5984 -0.0360
   98loPI    C1 1553  12.112  17.421   9.856 -0.1587 -0.0844 -0.1098
   98loPI    C2 1554  11.994  17.121  10.092  0.1219 -0.1467 -0.0447
   98loPI    C3 1555  12.170  17.443  10.251 -0.0449 -0.0118 -0.1301
   98loPI   PO4 1556  11.879  17.405   9.584  0.0930  0.0292 -0.2133
   98loPI   GL1 1557  11.900  17.246   9.053 -0.3246 -0.2983  0.2902
   98loPI   GL2 1558  12.191  17.169   9.118 -0.1939 -0.0351  0.1735
   98loPI   C1A 1559  11.833  17.071   8.649 -0.2895 -0.1213 -0.1246
   98loPI   C2A 1560  11.763  17.190   8.270 -0.1960 -0.0360  0.0345
   98loPI   C3A 1561  11.845  17.384   7.750 -0.0453  0.2382 -0.3588
   98loPI   C4A 1562  11.715  17.381   7.444 -0.2671 -0.1926  0.1400
   98loPI   C5A 1563  11.382  17.628   7.246 -0.2416 -0.4300 -0.0991
   98loPI   C6A 1564  11.167  18.028   7.144 -0.2059 -0.1497 -0.1692
   98loPI   C1B 1565  12.282  17.239   8.673  0.2877 -0.1724  0.0855
   98loPI   C2B 1566  12.293  17.210   8.178  0.2085  0.0521  0.4160
   98loPI   C3B 1567  12.398  17.167   7.691  0.0793 -0.1494  0.0969
   98loPI   C4B 1568  12.403  17.199   7.320 -0.0778 -0.1665 -0.0290
   99loPI    C1 1569   1.441   5.523  10.636 -0.3754 -0.4597  0.1241
   99loPI    C2 1570   1.393   5.709  10.986  0.0198  0.0810 -0.0949
   99loPI    C3 1571   1.299   5.322  10.951 -0.1848  0.0592  0.5564
   99loPI   PO4 1572   1.339   5.631  10.400 -0.0798 -0.1991 -0.0878
   99loPI   GL1 1573   1.549   5.923  10.246  0.1843 -0.1012  0.0340
   99loPI   GL2 1574   1.612   6.318  10.345  0.1574 -0.2449 -0.1683
   99loPI   C1A 1575   1.389   6.065   9.854 -0.1101 -0.0797 -0.0202
   99loPI   C2A 1576   1.327   6.082   9.441 -0.3422  0.0165 -0.3537
   99loPI   C3A 1577   1.421   6.156   9.016 -0.1565 -0.0021 -0.1661
   99loPI   C4A 1578   1.495   6.314   8.609 -0.0057 -0.0182  0.2598
   99loPI   C5A 1579   1.241   6.222   8.188 -0.0746  0.0332 -0.2439
   99loPI   C6A 1580   0.902   6.223   8.088 -0.1128 -0.1472 -0.0972
   99loPI   C1B 1581   1.716   6.547   9.943 -0.0836 -0.3496 -0.0498
   99loPI   C2B 1582   1.601   6.522   9.459 -0.0237 -0.0053  0.3071
   99loPI   C3B 1583   1.678   6.587   9.017 -0.2088  0.0245 -0.2906
   99loPI   C4B 1584   1.832   6.665   8.695  0.2642  0.3004  0.1069
  100loPI    C1 1585  16.060  17.796   9.933  0.0338  0.0430 -0.0680
  100loPI    C2 1586  15.875  17.454   9.838  0.0676  0.0146 -0.0316
  100loPI    C3 1587  15.807  17.627  10.193 -0.0193  0.0937 -0.0863
  100loPI   PO4 1588  16.374  17.851   9.655 -0.0037  0.0135 -0.0856
  100loPI   GL1 1589  16.489  17.971   9.277 -0.0792  0.3145  0.0149
  100loPI   GL2 1590  16.174  17.970   9.164  0.0301 -0.1698 -0.0868
  100loPI   C1A 1591  16.576  18.207   8.888 -0.1249  0.2348  0.1685
  100loPI   C2A 1592  16.396  18.231   8.440 -0.3135 -0.0828  0.2275
  100loPI   C3A 1593  16.298  18.487   8.077 -0.1995  0.0912  0.1451
  100loPI   C4A 1594  16.235  18.669   7.597 -0.0982  0.1375  0.2908
  100loPI   C5A 1595  16.015  18.790   7.247  0.1017  0.3014 -0.0026
  100loPI   C6A 1596  16.278  18.895   6.846 -0.2387  0.0615  0.0941
  100loPI   C1B 1597  16.149  17.916   8.803 -0.1127 -0.0621  0.1180
  100loPI   C2B 1598  15.966  17.728   8.484  0.1878  0.2040  0.0654
  100loPI   C3B 1599  16.206  17.321   8.224  0.2491  0.2880  0.0024
  100loPI   C4B 1600  16.486  16.962   8.073  0.0288  0.1785  0.0579
  101loPI    C1 1601   6.825  11.634  10.550 -0.0773  0.0745 -0.3208
  101loPI    C2 1602   7.174  11.638  10.354  0.1566 -0.1462  0.0779
  101loPI    C3 1603   7.168  11.673  10.753 -0.2978  0.1066  0.0560
  101loPI   PO4 1604   6.673  11.699  10.339  0.0573 -0.2149 -0.2992
  101loPI   GL1 1605   6.567  11.736   9.922  0.1763 -0.2669 -0.0970
  101loPI   GL2 1606   6.911  11.535   9.902 -0.0022 -0.0264 -0.0167
  101loPI   C1A 1607   6.407  11.918   9.483  0.1348  0.1748 -0.1652
  101loPI   C2A 1608   6.368  11.827   9.059  0.0939  0.0907  0.3896
  101loPI   C3A 1609   6.323  11.814   8.632  0.0658 -0.2659 -0.0616
  101loPI   C4A 1610   6.238  11.791   8.190  0.1784  0.1018  0.0606
  101loPI   C5A 1611   6.002  11.800   7.700 -0.2883  0.2921 -0.2999
  101loPI   C6A 1612   5.853  11.836   7.245  0.1458 -0.0545  0.0801
  101loPI   C1B 1613   6.736  11.486   9.532 -0.2309  0.1060  0.1070
  101loPI   C2B 1614   6.574  11.409   9.185 -0.0247 -0.5223  0.1788
  101loPI   C3B 1615   6.529  11.353   8.781 -0.3765 -0.0389  0.0797
  101loPI   C4B 1616   6.515  11.364   8.334  0.1883 -0.1503  0.0485
  102loPI    C1 1617   8.062   0.329  10.285 -0.0353  0.0152  0.2630
  102loPI    C2 1618   8.180   0.077  10.573 -0.1050 -0.0082  0.2714
  102loPI    C3 1619   7.968   0.404  10.666  0.2656  0.2304  0.2980
  102loPI   PO4 1620   7.919   0.157  10.077  0.1237 -0.0301 -0.0388
  102loPI   GL1 1621   7.657   0.321   9.692  0.0202 -0.4691 -0.2157
  102loPI   GL2 1622   7.882   0.150   9.563  0.0786  0.0740  0.0671
  102loPI   C1A 1623   7.498   0.396   9.369  0.1264  0.0721  0.1196
  102loPI   C2A 1624   7.368   0.655   9.057 -0.0604 -0.1548 -0.2817
  102loPI   C3A 1625   7.220   0.655   8.665  0.2578 -0.1736  0.1053
  102loPI   C4A 1626   7.072   0.583   8.273  0.0133 -0.2156  0.0934
  102loPI   C5A 1627   7.189   0.699   7.837 -0.1148 -0.0218  0.2808
  102loPI   C6A 1628   7.304   0.849   7.479  0.1796  0.1750  0.1418
  102loPI   C1B 1629   8.087   0.116   9.155 -0.0784  0.0088  0.0519
  102loPI   C2B 1630   8.021   0.139   8.710 -0.0306  0.1956  0.0148
  102loPI   C3B 1631   7.966   0.112   8.321  0.3279 -0.1940  0.2904
  102loPI   C4B 1632   7.957   0.092   7.799  0.0750 -0.0518  0.1356
  103loPI    C1 1633  11.893  18.345   9.751 -0.2766 -0.0677 -0.0678
  103loPI    C2 1634  11.585  18.441   9.987 -0.0486  0.2509  0.1086
  103loPI    C3 1635  11.957  18.443  10.133  0.0557  0.0311 -0.1451
  103loPI   PO4 1636  11.794  18.289   9.475 -0.2001  0.3378 -0.0390
  103loPI   GL1 1637  11.850  18.055   9.111  0.0368  0.0919 -0.3835
  103loPI   GL2 1638  11.934  17.706   9.166  0.0582 -0.0333  0.0886
  103loPI   C1A 1639  11.791  18.036   8.646 -0.1275  0.0388 -0.5049
  103loPI   C2A 1640  11.819  18.106   8.234 -0.1722  0.0393  0.1564
  103loPI   C3A 1641  12.013  18.125   7.783 -0.1002 -0.1725  0.0184
  103loPI   C4A 1642  12.195  18.292   7.394 -0.0388 -0.0659  0.0078
  103loPI   C5A 1643  12.512  18.501   7.238  0.0940 -0.3715  0.1127
  103loPI   C6A 1644  12.906  18.371   7.577 -0.1010 -0.1416 -0.0280
  103loPI   C1B 1645  12.156  17.733   8.791 -0.1673 -0.1391  0.0422
  103loPI   C2B 1646  12.088  17.634   8.447 -0.1525  0.1877  0.1999
  103loPI   C3B 1647  12.197  17.659   7.970  0.3172  0.3282  0.1761
  103loPI   C4B 1648  12.148  17.670   7.485  0.0709 -0.1500  0.0902
  104loPI    C1 1649   7.904   7.216  10.803  0.2881  0.1090  0.1528
  104loPI    C2 1650   7.782   7.503  11.053 -0.1700  0.1360 -0.0907
  104loPI    C3 1651   7.719   7.119  11.144  0.0293  0.1284  0.0206
  104loPI   PO4 1652   7.965   7.388  10.547  0.2956  0.0555  0.2351
  104loPI   GL1 1653   7.836   7.652  10.194 -0.1122 -0.1984 -0.3883
  104loPI   GL2 1654   7.551   7.576  10.221 -0.0869 -0.0319  0.2699
  104loPI   C1A 1655   7.883   7.563   9.767  0.2431  0.1811  0.1767
  104loPI   C2A 1656   8.016   7.774   9.478 -0.2401 -0.0924 -0.1135
  104loPI   C3A 1657   7.931   7.671   9.032  0.1159  0.0525  0.1155
  104loPI   C4A 1658   7.951   7.738   8.615 -0.1622  0.0784 -0.0677
  104loPI   C5A 1659   7.806   7.606   8.227  0.2366  0.0827 -0.2016
  104loPI   C6A 1660   7.623   7.927   7.956 -0.2414  0.1508 -0.2166
  104loPI   C1B 1661   7.421   7.659   9.812 -0.0215  0.2880 -0.1279
  104loPI   C2B 1662   7.528   7.727   9.424 -0.1176 -0.0062 -0.3134
  104loPI   C3B 1663   7.450   7.701   8.919  0.1302  0.1135 -0.0036
  104loPI   C4B 1664   7.388   7.810   8.448  0.2042 -0.2569  0.0944
  105loPI    C1 1665  10.390  11.642   9.852  0.0160 -0.0455 -0.1902
  105loPI    C2 1666  10.152  11.847   9.604 -0.1467  0.1546  0.1244
  105loPI    C3 1667  10.402  12.042   9.848 -0.0358 -0.0369  0.1660
  105loPI   PO4 1668  10.388  11.393   9.726  0.1137 -0.0302 -0.1022
  105loPI   GL1 1669  10.366  11.458   9.296  0.1391  0.1936  0.1417
  105loPI   GL2 1670  10.042  11.287   9.371 -0.2741  0.4129  0.0898
  105loPI   C1A 1671  10.237  11.459   8.900 -0.2090  0.2706 -0.0367
  105loPI   C2A 1672  10.410  11.585   8.439 -0.4700  0.3813 -0.1056
  105loPI   C3A 1673  10.827  11.840   8.282  0.1585  0.2464 -0.0099
  105loPI   C4A 1674  11.030  11.928   7.924 -0.6221  0.0712  0.1957
  105loPI   C5A 1675  11.112  11.908   7.480  0.1282 -0.3448  0.0563
  105loPI   C6A 1676  11.047  11.800   7.075 -0.2562 -0.0212  0.1977
  105loPI   C1B 1677   9.859  11.117   8.990 -0.1006  0.0452 -0.2012
  105loPI   C2B 1678   9.639  10.891   8.674 -0.1742 -0.2102 -0.0061
  105loPI   C3B 1679   9.410  10.790   8.252  0.0288 -0.2331 -0.0699
  105loPI   C4B 1680   9.685  11.084   7.985 -0.0093 -0.0636 -0.0958
  106loPI    C1 1681   5.815   9.838  10.817  0.1309  0.1862  0.1593
  106loPI    C2 1682   5.930   9.462  10.891 -0.0800  0.0786 -0.0482
  106loPI    C3 1683   5.965   9.741  11.175  0.1403 -0.0817  0.0853
  106loPI   PO4 1684   5.828   9.939  10.576  0.1207  0.0253 -0.1102
  106loPI   GL1 1685   5.844  10.044  10.168  0.1675  0.3467  0.3909
  106loPI   GL2 1686   6.014   9.853  10.057  0.2912 -0.4043  0.2522
  106loPI   C1A 1687   5.703  10.091   9.681  0.2581 -0.0832  0.0487
  106loPI   C2A 1688   5.789  10.101   9.265  0.1381  0.1917 -0.1013
  106loPI   C3A 1689   5.696  10.111   8.826 -0.0352 -0.0678 -0.2150
  106loPI   C4A 1690   5.695  10.013   8.328  0.3790  0.2707  0.0987
  106loPI   C5A 1691   6.065   9.924   8.015  0.1794 -0.1628 -0.1788
  106loPI   C6A 1692   6.125  10.047   7.631  0.3294  0.3859  0.0929
  106loPI   C1B 1693   5.948   9.696   9.554  0.1290 -0.2023  0.2404
  106loPI   C2B 1694   6.018   9.654   9.104  0.2010  0.0028  0.0039
  106loPI   C3B 1695   5.900   9.709   8.668 -0.2473  0.0225 -0.1270
  106loPI   C4B 1696   5.950   9.421   8.192 -0.0009 -0.0498  0.0372
  107loPI    C1 1697   2.273   8.002  10.914  0.0850 -0.0080  0.1258
  107loPI    C2 1698   2.012   8.042  11.214 -0.0463  0.0119  0.0100
  107loPI    C3 1699   2.364   8.231  11.229 -0.0542  0.0170  0.1484
  107loPI   PO4 1700   2.254   8.062  10.599 -0.0769 -0.2101  0.0141
  107loPI   GL1 1701   2.342   8.054  10.186 -0.0203 -0.0209 -0.0294
  107loPI   GL2 1702   2.662   8.247  10.114  0.0484 -0.1828 -0.0769
  107loPI   C1A 1703   1.933   8.000   9.895  0.0199  0.2280  0.1636
  107loPI   C2A 1704   1.856   8.191   9.568 -0.0173 -0.0850 -0.0123
  107loPI   C3A 1705   1.826   8.262   9.139 -0.0065  0.1187  0.0444
  107loPI   C4A 1706   1.864   8.200   8.688  0.3163  0.0642 -0.0144
  107loPI   C5A 1707   2.140   8.246   8.365  0.0866  0.2277  0.0638
  107loPI   C6A 1708   2.273   8.383   7.918 -0.0003  0.0014  0.0570
  107loPI   C1B 1709   2.561   8.110   9.693 -0.0214  0.0012 -0.1644
  107loPI   C2B 1710   2.738   8.011   9.169  0.1871 -0.3433 -0.1245
  107loPI   C3B 1711   3.164   7.933   9.072 -0.1350  0.0980 -0.1528
  107loPI   C4B 1712   3.568   7.862   8.745 -0.1008  0.0748 -0.0750
  108loPI    C1 1713  13.900  12.961   9.585 -0.0252  0.2725  0.0357
  108loPI    C2 1714  14.011  13.012   9.966 -0.1210  0.1033  0.0871
  108loPI    C3 1715  13.633  13.085   9.856 -0.1822 -0.1826  0.0985
  108loPI   PO4 1716  14.039  13.114   9.449 -0.1099  0.0078  0.1694
  108loPI   GL1 1717  14.466  13.032   9.201  0.1847  0.4099 -0.2455
  108loPI   GL2 1718  14.647  12.723   9.284  0.0676  0.2661 -0.0219
  108loPI   C1A 1719  14.237  12.737   9.014  0.3444 -0.0435  0.0771
  108loPI   C2A 1720  14.054  12.536   8.632 -0.1725 -0.3321 -0.0089
  108loPI   C3A 1721  13.924  12.643   8.250  0.4329  0.2241  0.0187
  108loPI   C4A 1722  13.623  12.846   7.902 -0.0083 -0.1112  0.4324
  108loPI   C5A 1723  13.389  13.059   7.631 -0.0914 -0.1924 -0.2104
  108loPI   C6A 1724  13.486  13.059   7.182  0.5363  0.0889 -0.0037
  108loPI   C1B 1725  14.714  12.725   8.861 -0.0239  0.1161 -0.0618
  108loPI   C2B 1726  14.464  12.801   8.530 -0.3943 -0.1461 -0.2120
  108loPI   C3B 1727  14.461  12.850   8.049 -0.2769 -0.0532  0.0692
  108loPI   C4B 1728  14.736  12.722   7.669 -0.1538  0.3160  0.2761
  109loPI    C1 1729   8.134  16.571   9.616 -0.0196 -0.0563  0.0162
  109loPI    C2 1730   8.090  16.456   9.997  0.1440  0.2976  0.1463
  109loPI    C3 1731   8.407  16.333   9.785 -0.0676 -0.0917  0.0443
  109loPI   PO4 1732   8.149  16.765   9.532 -0.0996 -0.1719 -0.2727
  109loPI   GL1 1733   7.911  16.977   9.343  0.2582 -0.0831  0.0334
  109loPI   GL2 1734   7.604  17.088   9.409  0.2138 -0.0681 -0.0976
  109loPI   C1A 1735   7.831  17.119   8.911  0.1649  0.2740 -0.1279
  109loPI   C2A 1736   7.811  17.128   8.470 -0.2187  0.2379  0.3355
  109loPI   C3A 1737   7.929  17.161   8.052 -0.0946  0.0712 -0.1821
  109loPI   C4A 1738   8.003  17.168   7.611  0.2091 -0.0355  0.0186
  109loPI   C5A 1739   8.203  17.130   7.233  0.1815 -0.0522 -0.2715
  109loPI   C6A 1740   8.312  16.984   6.811  0.2743 -0.0941 -0.2040
  109loPI   C1B 1741   7.384  17.004   9.161  0.0821 -0.0357  0.1287
  109loPI   C2B 1742   7.376  16.818   8.741  0.0123 -0.0219 -0.3070
  109loPI   C3B 1743   7.475  16.725   8.343 -0.1387 -0.2395 -0.5067
  109loPI   C4B 1744   7.614  16.807   8.127 -0.1593  0.0664 -0.2229
  110loPI    C1 1745  18.307   6.030  10.847 -0.0277 -0.0989 -0.0166
  110loPI    C2 1746  18.575   5.876  11.101  0.0603  0.0339 -0.0278
  110loPI    C3 1747  18.184   5.844  11.180  0.0838 -0.0223  0.0683
  110loPI   PO4 1748  18.455   6.221  10.706  0.0764  0.0194  0.0758
  110loPI   GL1 1749  18.541   6.234  10.324  0.0453 -0.1388  0.0650
  110loPI   GL2 1750  18.836   6.343  10.309  0.1913  0.1097  0.2090
  110loPI   C1A 1751  18.329   6.115   9.932 -0.1512  0.0098 -0.0884
  110loPI   C2A 1752  18.468   6.047   9.501  0.1745 -0.0273  0.2843
  110loPI   C3A 1753  18.571   6.132   9.198  0.0411 -0.0326  0.1297
  110loPI   C4A 1754  18.573   6.111   8.716  0.0068 -0.2669  0.0156
  110loPI   C5A 1755  18.591   6.275   8.226 -0.3413  0.2596 -0.2845
  110loPI   C6A 1756  18.671   5.916   7.927  0.1950  0.0649 -0.1342
  110loPI   C1B 1757  18.825   6.258   9.879  0.2982  0.3822 -0.2904
  110loPI   C2B 1758  18.829   6.435   9.533 -0.2445  0.1566 -0.0855
  110loPI   C3B 1759  18.820   6.539   9.094 -0.0942 -0.1276  0.1991
  110loPI   C4B 1760  18.797   6.645   8.719 -0.2997  0.0939 -0.1016
  111loPI    C1 1761  15.348   9.302  10.471 -0.0842  0.1040 -0.1181
  111loPI    C2 1762  15.233   9.590  10.724 -0.1546 -0.1090  0.0961
  111loPI    C3 1763  15.583   9.404  10.779 -0.1237 -0.0866 -0.0232
  111loPI   PO4 1764  15.290   9.410  10.225  0.1994 -0.0419 -0.1598
  111loPI   GL1 1765  15.156   9.199   9.804 -0.0303  0.1898  0.0092
  111loPI   GL2 1766  15.419   9.160   9.554 -0.1027  0.0090 -0.1733
  111loPI   C1A 1767  14.985   8.946   9.501  0.1211 -0.2536  0.0737
  111loPI   C2A 1768  15.004   8.742   9.085  0.1597 -0.0822 -0.0073
  111loPI   C3A 1769  15.152   8.645   8.661  0.3507 -0.0266  0.1638
  111loPI   C4A 1770  15.074   8.727   8.247 -0.0106  0.1410 -0.2292
  111loPI   C5A 1771  14.796   8.962   8.122 -0.2719 -0.1360 -0.0862
  111loPI   C6A 1772  14.465   9.060   7.934  0.0250  0.1300 -0.1316
  111loPI   C1B 1773  15.389   9.129   9.128  0.2703 -0.2874  0.1138
  111loPI   C2B 1774  15.379   9.088   8.678  0.0701 -0.2763  0.1293
  111loPI   C3B 1775  15.384   9.121   8.207  0.2468 -0.1522 -0.2580
  111loPI   C4B 1776  15.558   9.059   7.739  0.1235 -0.0293 -0.1441
  112loPI    C1 1777   2.772  13.001  10.312  0.2816 -0.1491  0.2682
  112loPI    C2 1778   2.977  13.150  10.002 -0.2513  0.0898  0.0166
  112loPI    C3 1779   3.011  13.318  10.364  0.1522 -0.0090  0.0294
  112loPI   PO4 1780   2.510  12.967  10.199 -0.3574 -0.0489  0.3494
  112loPI   GL1 1781   2.292  12.704   9.869 -0.1047 -0.0949 -0.2216
  112loPI   GL2 1782   1.934  12.806   9.850  0.0740  0.1125  0.0183
  112loPI   C1A 1783   2.200  12.511   9.538 -0.2224 -0.2929  0.0357
  112loPI   C2A 1784   2.227  12.522   9.155  0.2225 -0.0171 -0.2675
  112loPI   C3A 1785   2.326  12.425   8.761 -0.1582 -0.2961  0.0816
  112loPI   C4A 1786   2.408  12.343   8.359 -0.2729 -0.1381  0.0664
  112loPI   C5A 1787   2.759  12.217   8.067  0.0992 -0.4988  0.0206
  112loPI   C6A 1788   3.085  12.459   7.948  0.0500  0.1631  0.4291
  112loPI   C1B 1789   1.814  12.797   9.375  0.0247  0.0263  0.1488
  112loPI   C2B 1790   1.937  12.845   8.868 -0.2242 -0.1712  0.1141
  112loPI   C3B 1791   2.151  12.752   8.435  0.1481  0.1937  0.0835
  112loPI   C4B 1792   2.137  12.823   8.018  0.2254 -0.1595 -0.1268
  113loPI    C1 1793  11.608  17.523  10.027 -0.0605  0.1522 -0.1410
  113loPI    C2 1794  11.785  17.878   9.978 -0.1794  0.2483  0.1096
  113loPI    C3 1795  11.750  17.722  10.345 -0.0244 -0.0775 -0.0111
  113loPI   PO4 1796  11.477  17.465   9.799  0.0099 -0.2592  0.0403
  113loPI   GL1 1797  11.405  17.335   9.378  0.4112 -0.0621 -0.0358
  113loPI   GL2 1798  11.145  17.490   9.358  0.2598 -0.1704 -0.3119
  113loPI   C1A 1799  11.420  17.008   8.961 -0.0037  0.1460  0.1705
  113loPI   C2A 1800  11.225  16.878   8.627  0.5154 -0.0160  0.0896
  113loPI   C3A 1801  11.203  16.882   8.210 -0.2093 -0.0093  0.0096
  113loPI   C4A 1802  11.544  16.955   7.933  0.0474 -0.0925  0.1524
  113loPI   C5A 1803  11.808  16.819   7.662 -0.0426 -0.4820 -0.0851
  113loPI   C6A 1804  11.996  16.970   7.242  0.0397 -0.0756 -0.4562
  113loPI   C1B 1805  11.464  17.479   8.907  0.2913  0.1199  0.2474
  113loPI   C2B 1806  11.644  17.587   8.538 -0.0683 -0.0217  0.1788
  113loPI   C3B 1807  11.626  17.647   8.116 -0.0872  0.2349  0.2223
  113loPI   C4B 1808  11.639  17.827   7.755 -0.0179 -0.3968 -0.0100
  114loPI    C1 1809   6.166   6.373  11.047 -0.1252  0.0799 -0.0680
  114loPI    C2 1810   6.381   6.125  11.277  0.0878  0.0287 -0.3164
  114loPI    C3 1811   6.059   5.989  11.083  0.0464  0.0143 -0.2380
  114loPI   PO4 1812   6.287   6.473  10.888 -0.1486  0.3250  0.2493
  114loPI   GL1 1813   6.376   6.513  10.318 -0.0361 -0.0010 -0.2171
  114loPI   GL2 1814   6.519   6.174  10.297  0.4290  0.0615  0.0401
  114loPI   C1A 1815   6.452   6.746   9.958  0.1451 -0.0136  0.0732
  114loPI   C2A 1816   6.370   6.936   9.591 -0.0065  0.1427  0.0406
  114loPI   C3A 1817   6.425   6.909   9.165  0.1426  0.0991  0.0753
  114loPI   C4A 1818   6.230   6.924   8.721  0.1739 -0.3922 -0.0142
  114loPI   C5A 1819   6.097   6.990   8.268  0.0006  0.4193 -0.1647
  114loPI   C6A 1820   5.857   7.291   7.914 -0.2290 -0.1299  0.1574
  114loPI   C1B 1821   6.590   6.209   9.867  0.0362  0.2194  0.2311
  114loPI   C2B 1822   6.563   6.425   9.399 -0.0338 -0.0869 -0.0415
  114loPI   C3B 1823   6.528   6.421   9.033 -0.1326 -0.0577  0.0037
  114loPI   C4B 1824   6.393   6.470   8.601 -0.0714 -0.0624  0.1039
  115loPI    C1 1825  12.018   7.288  10.238  0.4803  0.0341  0.1117
  115loPI    C2 1826  11.774   7.550  10.417  0.3793  0.0021  0.0220
  115loPI    C3 1827  11.844   7.193  10.585  0.3149 -0.0130  0.0168
  115loPI   PO4 1828  11.953   7.104  10.076 -0.0792 -0.1850 -0.2466
  115loPI   GL1 1829  11.958   6.908   9.743 -0.1162  0.1797 -0.0073
  115loPI   GL2 1830  11.672   7.016   9.595 -0.3158  0.2952  0.1529
  115loPI   C1A 1831  12.031   6.908   9.270 -0.1980  0.1152  0.2671
  115loPI   C2A 1832  11.979   6.935   8.795 -0.2055  0.3248  0.0174
  115loPI   C3A 1833  12.024   6.811   8.424 -0.1527 -0.1581 -0.2702
  115loPI   C4A 1834  12.174   6.871   8.025  0.0318 -0.1822  0.1868
  115loPI   C5A 1835  12.463   6.853   7.713  0.0469 -0.0131  0.0042
  115loPI   C6A 1836  12.634   6.567   7.521  0.1937  0.0261 -0.2916
  115loPI   C1B 1837  11.467   7.252   9.243 -0.1280  0.1873 -0.1320
  115loPI   C2B 1838  11.392   7.184   8.827 -0.1943  0.0902 -0.0150
  115loPI   C3B 1839  11.554   7.142   8.485  0.1269 -0.2855  0.0966
  115loPI   C4B 1840  11.664   7.049   8.045  0.0288  0.0490 -0.0170
  116loPI    C1 1841   4.716   6.156  10.574 -0.2274 -0.2755  0.0802
  116loPI    C2 1842   4.790   6.236  10.959  0.0301 -0.1522  0.0072
  116loPI    C3 1843   4.439   6.076  10.852 -0.1528  0.0707  0.2598
  116loPI   PO4 1844   4.748   6.313  10.388  0.2111 -0.4096  0.1788
  116loPI   GL1 1845   4.977   6.458  10.051 -0.0748  0.0980  0.0046
  116loPI   GL2 1846   5.067   6.326   9.776  0.0859 -0.1867  0.1094
  116loPI   C1A 1847   4.720   6.731   9.793  0.0795  0.1884  0.2702
  116loPI   C2A 1848   4.677   7.024   9.499  0.2132  0.0003  0.1639
  116loPI   C3A 1849   4.712   6.980   9.101  0.0790  0.0477 -0.0601
  116loPI   C4A 1850   4.684   6.948   8.602  0.2294  0.1273 -0.4188
  116loPI   C5A 1851   4.587   6.735   8.127  0.2102 -0.0544  0.2854
  116loPI   C6A 1852   4.329   6.315   7.892  0.0082  0.0674 -0.2713
  116loPI   C1B 1853   4.893   6.499   9.357  0.0078  0.0551 -0.1463
  116loPI   C2B 1854   4.941   6.512   8.904 -0.0576  0.0086 -0.0699
  116loPI   C3B 1855   4.896   6.490   8.477  0.1034 -0.0565 -0.2191
  116loPI   C4B 1856   4.911   6.198   8.139  0.0537 -0.2261 -0.2134
  117loPI    C1 1857  11.672  14.986   9.546  0.1646 -0.1593 -0.1482
  117loPI    C2 1858  11.867  15.234   9.300  0.1874 -0.0786 -0.0492
  117loPI    C3 1859  11.800  15.340   9.680  0.0111 -0.1352 -0.0639
  117loPI   PO4 1860  11.506  14.906   9.406  0.0581  0.0390  0.0332
  117loPI   GL1 1861  11.274  15.185   9.107  0.1375 -0.0529 -0.1672
  117loPI   GL2 1862  10.967  15.018   8.966 -0.1910  0.3433 -0.1800
  117loPI   C1A 1863  11.530  15.402   8.830  0.1126 -0.0052  0.2564
  117loPI   C2A 1864  11.607  15.448   8.365 -0.1824  0.3630  0.1365
  117loPI   C3A 1865  11.456  15.364   7.985  0.1208 -0.0328 -0.2868
  117loPI   C4A 1866  11.432  15.270   7.503  0.1050  0.1739  0.2346
  117loPI   C5A 1867  11.577  15.500   7.171  0.1005 -0.0209  0.0102
  117loPI   C6A 1868  11.948  15.539   6.878  0.5299  0.1476  0.4016
  117loPI   C1B 1869  11.263  14.673   8.839 -0.2966  0.2639  0.1139
  117loPI   C2B 1870  11.265  14.337   8.582  0.0051 -0.1044  0.1536
  117loPI   C3B 1871  11.192  14.107   8.185  0.3123  0.2824 -0.0302
  117loPI   C4B 1872  11.115  14.017   7.718 -0.1390 -0.0058 -0.0586
  118loPI    C1 1873   2.681   9.179  10.789  0.0866 -0.0523 -0.3307
  118loPI    C2 1874   2.568   9.120  11.168  0.0380  0.2788 -0.2910
  118loPI    C3 1875   2.947   9.052  11.060  0.0514  0.1807 -0.1842
  118loPI   PO4 1876   2.506   9.067  10.639 -0.0146  0.6466  0.2982
  118loPI   GL1 1877   2.363   9.121  10.258  0.1634  0.0511 -0.0084
  118loPI   GL2 1878   2.420   9.380  10.054 -0.1650 -0.0719  0.0282
  118loPI   C1A 1879   2.251   8.936   9.925  0.0281 -0.0157  0.1846
  118loPI   C2A 1880   2.190   8.912   9.571  0.3299  0.0536 -0.0285
  118loPI   C3A 1881   2.116   8.738   9.104  0.0245  0.0863  0.0315
  118loPI   C4A 1882   2.133   8.773   8.735 -0.1223  0.0691 -0.0920
  118loPI   C5A 1883   2.129   8.767   8.342  0.1718  0.1382  0.0971
  118loPI   C6A 1884   2.488   8.796   8.122  0.1327  0.1377  0.0291
  118loPI   C1B 1885   2.494   9.293   9.689  0.5715 -0.1576  0.4533
  118loPI   C2B 1886   2.489   9.230   9.261  0.2581 -0.0226 -0.0144
  118loPI   C3B 1887   2.455   9.231   8.813  0.1199  0.1085 -0.3188
  118loPI   C4B 1888   2.427   9.302   8.333  0.0672  0.2541 -0.1075
  119loPI    C1 1889   0.104   3.927  10.354 -0.3314  0.0607  0.1215
  119loPI    C2 1890  -0.060   3.575  10.448 -0.0089 -0.0810  0.1685
  119loPI    C3 1891   0.271   3.697  10.636  0.1077  0.0641 -0.1260
  119loPI   PO4 1892  -0.216   4.035  10.234 -0.1089  0.3231 -0.1505
  119loPI   GL1 1893  -0.508   3.855   9.917 -0.0986 -0.2108 -0.4237
  119loPI   GL2 1894  -0.514   4.170   9.852  0.1050 -0.0539 -0.3454
  119loPI   C1A 1895  -0.403   3.784   9.429 -0.0699 -0.1347  0.0058
  119loPI   C2A 1896  -0.418   3.929   8.973  0.2431 -0.1354  0.1030
  119loPI   C3A 1897  -0.401   3.929   8.516  0.0029  0.2436 -0.1068
  119loPI   C4A 1898  -0.524   4.049   8.067  0.1340  0.0423  0.0327
  119loPI   C5A 1899  -0.432   4.367   7.778 -0.1003  0.2766  0.0534
  119loPI   C6A 1900  -0.026   4.532   7.848 -0.0493 -0.0926  0.2706
  119loPI   C1B 1901  -0.807   4.363   9.514 -0.4535 -0.0288 -0.2923
  119loPI   C2B 1902  -0.719   4.418   9.050 -0.0485  0.1488  0.0373
  119loPI   C3B 1903  -0.656   4.371   8.624 -0.3158 -0.0436  0.3816
  119loPI   C4B 1904  -0.544   4.524   8.222 -0.0350 -0.0663 -0.2012
  120loPI    C1 1905  14.987  13.032   9.678 -0.1956  0.3729 -0.0009
  120loPI    C2 1906  15.205  13.346   9.796  0.0638  0.1896  0.0162
  120loPI    C3 1907  15.051  13.096  10.068  0.0405  0.1798 -0.0058
  120loPI   PO4 1908  14.866  13.141   9.523  0.1950  0.1391  0.1142
  120loPI   GL1 1909  14.985  13.193   9.136 -0.1078 -0.0388 -0.4237
  120loPI   GL2 1910  14.790  13.409   9.028 -0.0721  0.2366 -0.0464
  120loPI   C1A 1911  14.912  13.142   8.690 -0.0621  0.1596  0.1299
  120loPI   C2A 1912  14.947  13.203   8.306 -0.1021  0.3716 -0.0714
  120loPI   C3A 1913  15.059  13.370   7.917  0.1975  0.1499 -0.0560
  120loPI   C4A 1914  15.098  13.426   7.497 -0.3406  0.0924  0.2265
  120loPI   C5A 1915  14.944  13.486   7.138 -0.2357  0.0741  0.2220
  120loPI   C6A 1916  15.075  13.326   6.788 -0.0091  0.1174 -0.3830
  120loPI   C1B 1917  14.874  13.647   8.645  0.2742 -0.0459 -0.2860
  120loPI   C2B 1918  14.911  13.733   8.256  0.1557 -0.0517 -0.2268
  120loPI   C3B 1919  14.974  13.897   7.764 -0.2328 -0.0044 -0.2581
  120loPI   C4B 1920  14.692  13.807   7.442 -0.1172  0.0557  0.0044
  121loPI    C1 1921   2.902   9.632  10.828 -0.3133  0.0283 -0.1842
  121loPI    C2 1922   2.546   9.609  11.008 -0.2321  0.0346 -0.0209
  121loPI    C3 1923   2.880   9.538  11.216 -0.1404 -0.0205 -0.1852
  121loPI   PO4 1924   2.824   9.709  10.611 -0.0154 -0.0612  0.1316
  121loPI   GL1 1925   2.837   9.377  10.308 -0.2154 -0.4412  0.4073
  121loPI   GL2 1926   3.114   9.587  10.231  0.0489 -0.2237  0.1977
  121loPI   C1A 1927   2.888   9.221   9.947 -0.1282 -0.1557  0.1545
  121loPI   C2A 1928   3.020   9.230   9.581 -0.4096  0.0617 -0.3386
  121loPI   C3A 1929   3.027   9.229   9.165  0.1114  0.4181 -0.1440
  121loPI   C4A 1930   2.946   9.311   8.786 -0.0996  0.0242 -0.0187
  121loPI   C5A 1931   2.985   9.316   8.430  0.0260  0.1067 -0.1542
  121loPI   C6A 1932   2.876   9.240   7.994  0.0356  0.0831  0.0233
  121loPI   C1B 1933   3.307   9.769   9.952 -0.1577 -0.0720  0.0290
  121loPI   C2B 1934   3.300   9.735   9.499  0.1399  0.1989 -0.1491
  121loPI   C3B 1935   3.250   9.700   9.073  0.1116  0.4020 -0.0537
  121loPI   C4B 1936   3.214   9.718   8.649  0.0271  0.3482  0.0619
  122loPI    C1 1937   0.686   5.004  10.323  0.1018 -0.0194  0.1445
  122loPI    C2 1938   0.475   4.761  10.560 -0.0646  0.0059  0.0242
  122loPI    C3 1939   0.871   4.714  10.527 -0.0545 -0.0614  0.2280
  122loPI   PO4 1940   0.684   5.220  10.366 -0.1955 -0.1954 -0.0887
  122loPI   GL1 1941   1.047   5.410  10.075  0.0441  0.0124  0.0103
  122loPI   GL2 1942   1.155   5.617   9.927 -0.1136  0.0453  0.1389
  122loPI   C1A 1943   0.899   5.169   9.791 -0.1592 -0.2192 -0.2416
  122loPI   C2A 1944   0.987   5.127   9.336 -0.1271 -0.3009  0.0230
  122loPI   C3A 1945   0.851   5.258   9.004 -0.4826  0.2640  0.2296
  122loPI   C4A 1946   0.869   5.275   8.619  0.1488 -0.1410  0.2041
  122loPI   C5A 1947   0.955   5.184   8.214  0.1052  0.3713  0.0157
  122loPI   C6A 1948   1.133   5.074   7.837  0.0122 -0.0773 -0.3186
  122loPI   C1B 1949   1.178   5.539   9.542 -0.1640 -0.0415  0.0160
  122loPI   C2B 1950   1.335   5.678   9.164 -0.0429  0.1724 -0.2236
  122loPI   C3B 1951   1.203   5.690   8.819 -0.1594 -0.2113  0.0121
  122loPI   C4B 1952   1.196   5.775   8.437  0.0522 -0.0628 -0.2552
  123loPI    C1 1953  10.615  14.037  10.170  0.1698 -0.1093 -0.0982
  123loPI    C2 1954  10.369  14.247  10.405  0.2871 -0.2453  0.1495
  123loPI    C3 1955  10.765  14.269  10.459  0.3462  0.0988 -0.3512
  123loPI   PO4 1956  10.441  14.129   9.933  0.1218 -0.0279 -0.0164
  123loPI   GL1 1957  10.224  14.150   9.507 -0.0531 -0.0996 -0.0122
  123loPI   GL2 1958  10.092  14.121   9.172 -0.0567  0.2735 -0.1823
  123loPI   C1A 1959  10.549  14.295   9.255 -0.1265  0.0311 -0.0609
  123loPI   C2A 1960  10.652  14.144   8.867 -0.2136 -0.0588  0.2879
  123loPI   C3A 1961  10.742  14.088   8.423 -0.0116 -0.1878 -0.1040
  123loPI   C4A 1962  10.737  14.202   7.952  0.0397  0.0220 -0.0037
  123loPI   C5A 1963  10.857  14.371   7.536 -0.2628  0.2410 -0.0886
  123loPI   C6A 1964  10.788  14.588   7.042 -0.0663 -0.1842  0.1022
  123loPI   C1B 1965  10.135  14.109   8.748 -0.1273 -0.0471  0.1337
  123loPI   C2B 1966  10.214  14.175   8.269 -0.3686 -0.0616 -0.0215
  123loPI   C3B 1967  10.304  14.286   7.834  0.3539  0.2192 -0.2354
  123loPI   C4B 1968  10.352  14.232   7.419  0.2529  0.2109  0.1861
  124loPI    C1 1969  13.760   5.232  10.535 -0.0818  0.2755  0.2125
  124loPI    C2 1970  13.748   4.846  10.640  0.0733  0.1490 -0.2150
  124loPI    C3 1971  13.985   5.101  10.838 -0.1390  0.0590  0.1630
  124loPI   PO4 1972  13.907   5.221  10.269  0.0053 -0.1815 -0.1211
  124loPI   GL1 1973  14.009   5.338   9.816  0.1909  0.3131 -0.4229
  124loPI   GL2 1974  13.671   5.225   9.765  0.4708  0.0006 -0.1603
  124loPI   C1A 1975  14.108   5.403   9.392  0.3134 -0.1225  0.3119
  124loPI   C2A 1976  14.157   5.391   9.086 -0.4655 -0.2986  0.1719
  124loPI   C3A 1977  14.125   5.424   8.641  0.0446 -0.3824  0.0352
  124loPI   C4A 1978  13.991   5.685   8.356 -0.1453 -0.1443  0.0131
  124loPI   C5A 1979  14.097   5.991   8.040  0.3096  0.1481 -0.0076
  124loPI   C6A 1980  14.121   6.105   7.645 -0.1505  0.1289 -0.1498
  124loPI   C1B 1981  13.647   5.144   9.339  0.1437 -0.1176 -0.1041
  124loPI   C2B 1982  13.699   5.220   8.935 -0.1543 -0.0598  0.1685
  124loPI   C3B 1983  13.634   5.320   8.555 -0.0436 -0.3486 -0.0588
  124loPI   C4B 1984  13.475   5.719   8.593  0.0416 -0.0359 -0.3211
  125loPI    C1 1985  12.266   5.091  10.339  0.0437 -0.0128  0.0100
  125loPI    C2 1986  12.059   4.834  10.564  0.0542  0.0159  0.0526
  125loPI    C3 1987  12.458   4.835  10.578  0.0615 -0.1180 -0.1158
  125loPI   PO4 1988  12.152   5.089  10.122  0.2852  0.0656  0.0832
  125loPI   GL1 1989  11.889   5.174   9.652 -0.0467  0.4045  0.3000
  125loPI   GL2 1990  11.741   4.824   9.672 -0.1748 -0.1402 -0.0890
  125loPI   C1A 1991  11.811   5.181   9.256  0.1071  0.2660 -0.2220
  125loPI   C2A 1992  11.768   5.171   8.888 -0.0228  0.1661  0.4256
  125loPI   C3A 1993  11.701   5.156   8.456  0.1323 -0.0793 -0.0020
  125loPI   C4A 1994  11.721   5.231   7.974  0.0954  0.1039  0.0344
  125loPI   C5A 1995  11.468   5.172   7.650 -0.1466  0.1354 -0.0723
  125loPI   C6A 1996  11.200   5.045   7.429  0.1165 -0.1328 -0.1758
  125loPI   C1B 1997  11.483   4.774   9.196 -0.2723  0.0515 -0.0584
  125loPI   C2B 1998  11.341   4.708   8.724 -0.0706  0.0841  0.3755
  125loPI   C3B 1999  11.025   4.746   8.413 -0.0492 -0.2630 -0.0409
  125loPI   C4B 2000  11.104   4.747   7.964 -0.0099  0.1474  0.2202
  126loPI    C1 2001  11.037  16.502  10.176 -0.1600 -0.0773 -0.0852
  126loPI    C2 2002  10.905  16.826  10.370 -0.1592 -0.0387 -0.1492
  126loPI    C3 2003  11.280  16.697  10.427 -0.0979  0.0843 -0.2685
  126loPI   PO4 2004  10.954  16.515   9.944  0.0207  0.1063  0.0872
  126loPI   GL1 2005  10.965  16.401   9.557  0.2084  0.1024  0.1010
  126loPI   GL2 2006  10.788  16.153   9.505  0.1301 -0.0093 -0.0916
  126loPI   C1A 2007  11.043  16.493   9.206 -0.2118 -0.3150  0.2314
  126loPI   C2A 2008  11.098  16.372   8.726 -0.0773 -0.2831 -0.0347
  126loPI   C3A 2009  11.202  16.353   8.330 -0.1504 -0.1354  0.2910
  126loPI   C4A 2010  11.369  16.448   7.879 -0.0764 -0.1560  0.4174
  126loPI   C5A 2011  11.690  16.292   7.557  0.2330  0.0785 -0.0055
  126loPI   C6A 2012  11.864  15.902   7.366 -0.1771  0.2849 -0.0683
  126loPI   C1B 2013  10.784  16.075   9.118  0.1117 -0.0118 -0.3528
  126loPI   C2B 2014  10.572  16.273   8.811 -0.2284  0.1974  0.0619
  126loPI   C3B 2015  10.537  16.115   8.374  0.0181  0.1208 -0.2050
  126loPI   C4B 2016  10.494  16.009   7.950  0.2611 -0.5316  0.1664
  127loPI    C1 2017   4.688   5.150  10.577 -0.0755  0.0127  0.1565
  127loPI    C2 2018   5.007   4.970  10.737  0.0401  0.0351 -0.0464
  127loPI    C3 2019   4.711   5.098  10.973  0.1972  0.0465  0.1466
  127loPI   PO4 2020   4.683   5.161  10.399 -0.3113 -0.1583  0.1797
  127loPI   GL1 2021   4.499   5.223  10.088  0.0381 -0.1977 -0.0447
  127loPI   GL2 2022   4.686   4.893   9.865  0.3467 -0.0817  0.1769
  127loPI   C1A 2023   4.696   5.366   9.706  0.0623 -0.0594 -0.0017
  127loPI   C2A 2024   4.932   5.421   9.382 -0.2031  0.2487 -0.1961
  127loPI   C3A 2025   4.918   5.557   9.057 -0.0571  0.1706  0.0339
  127loPI   C4A 2026   4.916   5.542   8.588  0.0584 -0.0070  0.1800
  127loPI   C5A 2027   4.903   5.713   8.253 -0.0929 -0.1091 -0.1096
  127loPI   C6A 2028   4.749   5.631   7.881  0.3734 -0.0289 -0.2077
  127loPI   C1B 2029   4.801   4.947   9.460  0.0992  0.1383 -0.0422
  127loPI   C2B 2030   4.781   4.962   9.054 -0.3174 -0.1345  0.1120
  127loPI   C3B 2031   4.657   5.143   8.610 -0.1077  0.0198  0.1731
  127loPI   C4B 2032   4.705   5.252   8.229 -0.1929 -0.1257  0.1415
  128loPI    C1 2033   2.110  16.893  10.240  0.1468 -0.0598  0.0005
  128loPI    C2 2034   2.105  17.180  10.518  0.0967 -0.0131 -0.0486
  128loPI    C3 2035   1.781  16.953  10.460  0.1577 -0.1221  0.0342
  128loPI   PO4 2036   2.312  16.952  10.023 -0.0443  0.0688  0.0531
  128loPI   GL1 2037   2.337  16.968   9.528  0.1167 -0.0098 -0.2443
  128loPI   GL2 2038   2.291  16.643   9.458  0.0253  0.0799  0.1747
  128loPI   C1A 2039   2.685  17.066   9.330 -0.1425  0.1274  0.1286
  128loPI   C2A 2040   2.800  16.979   8.931 -0.0207 -0.1725  0.4148
  128loPI   C3A 2041   2.915  16.881   8.542  0.3310 -0.1519  0.1203
  128loPI   C4A 2042   3.045  17.143   8.381  0.0500  0.0704 -0.1589
  128loPI   C5A 2043   3.157  17.196   7.983 -0.1788 -0.0620  0.0499
  128loPI   C6A 2044   3.465  17.059   7.587 -0.1231 -0.0790  0.1384
  128loPI   C1B 2045   2.658  16.556   9.177  0.0473  0.0253  0.1904
  128loPI   C2B 2046   2.837  16.398   8.803  0.3794  0.0872 -0.4298
  128loPI   C3B 2047   2.999  16.371   8.393 -0.2359 -0.1427  0.0230
  128loPI   C4B 2048   3.217  16.309   7.914  0.0560  0.0890 -0.0783
  129loPI    C1 2049  14.193   4.768  10.333  0.0851 -0.0135 -0.0106
  129loPI    C2 2050  14.291   5.006  10.027 -0.0904 -0.0674 -0.1110
  129loPI    C3 2051  14.482   5.040  10.377  0.2007 -0.0919 -0.2642
  129loPI   PO4 2052  14.119   4.566  10.193  0.0832 -0.2406 -0.2652
  129loPI   GL1 2053  14.123   4.602   9.758 -0.3754 -0.2409  0.1102
  129loPI   GL2 2054  14.018   4.854   9.626  0.2846 -0.1622 -0.2287
  129loPI   C1A 2055  14.037   4.363   9.340  0.0674 -0.1037 -0.1700
  129loPI   C2A 2056  14.120   4.377   8.921 -0.0091 -0.3641  0.0716
  129loPI   C3A 2057  14.221   4.287   8.470  0.2672 -0.2500  0.1237
  129loPI   C4A 2058  14.082   4.264   8.017 -0.0317  0.2325  0.0502
  129loPI   C5A 2059  13.994   4.328   7.631  0.2202  0.1483  0.1332
  129loPI   C6A 2060  13.965   4.526   7.198  0.0963  0.1288  0.2772
  129loPI   C1B 2061  14.112   4.902   9.234  0.2092  0.1658  0.2254
  129loPI   C2B 2062  14.331   4.936   8.878 -0.0198  0.0286 -0.0604
  129loPI   C3B 2063  14.450   4.958   8.518 -0.0282 -0.0393 -0.0582
  129loPI   C4B 2064  14.192   5.133   8.202  0.0717  0.3890  0.0737
  130loPI    C1 2065   8.849   3.270  10.348 -0.2133  0.0026 -0.0287
  130loPI    C2 2066   8.908   3.119  10.713 -0.0520 -0.0514 -0.0762
  130loPI    C3 2067   8.737   3.478  10.670  0.1992  0.0886  0.0655
  130loPI   PO4 2068   8.737   3.025  10.231  0.2023  0.1152  0.2639
  130loPI   GL1 2069   8.614   2.924   9.806 -0.3190  0.0805 -0.4626
  130loPI   GL2 2070   8.515   2.580   9.780  0.0450 -0.4011 -0.0191
  130loPI   C1A 2071   8.516   3.167   9.441  0.2700  0.1078  0.0047
  130loPI   C2A 2072   8.662   3.078   8.997  0.2676 -0.0797  0.4962
  130loPI   C3A 2073   8.642   3.026   8.575  0.1141 -0.1001 -0.0854
  130loPI   C4A 2074   8.550   3.093   8.200  0.3591  0.1124 -0.2519
  130loPI   C5A 2075   8.727   3.243   7.913  0.3743 -0.0727  0.4339
  130loPI   C6A 2076   8.742   3.614   7.671  0.0955 -0.0316  0.4864
  130loPI   C1B 2077   8.522   2.649   9.295 -0.0837  0.3363  0.0437
  130loPI   C2B 2078   8.418   2.592   8.865  0.0628 -0.1974 -0.0336
  130loPI   C3B 2079   8.339   2.549   8.451 -0.2449  0.0741  0.1708
  130loPI   C4B 2080   8.375   2.607   8.127  0.0864 -0.1189 -0.1297
  131loPI    C1 2081  14.993   1.465   9.640  0.0925 -0.0389 -0.0483
  131loPI    C2 2082  15.345   1.626   9.738  0.1118  0.0290 -0.2269
  131loPI    C3 2083  15.219   1.295   9.923  0.2785 -0.0074 -0.1765
  131loPI   PO4 2084  14.914   1.693   9.510 -0.1360  0.0844 -0.0612
  131loPI   GL1 2085  15.122   1.686   9.205 -0.0885  0.0639 -0.0892
  131loPI   GL2 2086  15.380   1.824   9.284  0.1090  0.0173  0.4065
  131loPI   C1A 2087  15.251   1.565   8.848  0.1775  0.1852 -0.0801
  131loPI   C2A 2088  15.198   1.587   8.457 -0.3124  0.1162  0.0705
  131loPI   C3A 2089  15.246   1.591   8.058 -0.5000 -0.0737  0.1512
  131loPI   C4A 2090  15.153   1.679   7.681 -0.2704 -0.2456  0.3365
  131loPI   C5A 2091  15.119   1.772   7.243 -0.2187 -0.1365 -0.0177
  131loPI   C6A 2092  14.762   1.716   6.979  0.2756  0.2457 -0.3158
  131loPI   C1B 2093  15.579   2.040   9.094  0.1627  0.0353 -0.1772
  131loPI   C2B 2094  15.637   2.166   8.728 -0.0814  0.2030  0.0822
  131loPI   C3B 2095  15.683   2.172   8.307  0.0634 -0.0896  0.0534
  131loPI   C4B 2096  15.537   2.119   7.920  0.1295  0.1837 -0.1300
  132loPI    C1 2097  15.665  12.351  10.392  0.1925 -0.0378 -0.1670
  132loPI    C2 2098  15.653  12.189  10.757 -0.0443 -0.0027 -0.1575
  132loPI    C3 2099  15.655  12.586  10.715 -0.1480 -0.0062 -0.1974
  132loPI   PO4 2100  15.689  12.267  10.220 -0.0322  0.1613  0.1702
  132loPI   GL1 2101  15.691  12.159   9.826  0.1149 -0.3541 -0.0567
  132loPI   GL2 2102  15.717  12.493   9.753  0.0586  0.2169 -0.0871
  132loPI   C1A 2103  15.776  12.031   9.381  0.0375 -0.0064 -0.2292
  132loPI   C2A 2104  15.734  11.985   8.926 -0.0427  0.1015  0.2665
  132loPI   C3A 2105  15.812  11.856   8.513  0.0692 -0.1441 -0.0146
  132loPI   C4A 2106  15.896  11.833   8.104 -0.1302  0.2462  0.0107
  132loPI   C5A 2107  15.736  11.612   7.705  0.1756  0.2451  0.3906
  132loPI   C6A 2108  15.491  11.270   7.798 -0.2479 -0.2205  0.0182
  132loPI   C1B 2109  15.756  12.646   9.301  0.3075  0.1141 -0.0299
  132loPI   C2B 2110  15.516  12.451   8.988 -0.0286  0.0451 -0.1995
  132loPI   C3B 2111  15.440  12.354   8.617  0.0557 -0.0320 -0.5436
  132loPI   C4B 2112  15.399  12.554   8.244 -0.2238  0.2621 -0.0263
  133loPI    C1 2113   3.122  16.082  10.049 -0.0159 -0.1691  0.0421
  133loPI    C2 2114   2.857  16.117  10.348 -0.1119 -0.4200 -0.0105
  133loPI    C3 2115   3.238  16.227  10.403 -0.1709 -0.2902  0.1442
  133loPI   PO4 2116   2.954  16.168   9.810 -0.0702 -0.0896 -0.0347
  133loPI   GL1 2117   3.049  15.814   9.561  0.0492 -0.3050 -0.2257
  133loPI   GL2 2118   3.358  15.763   9.525 -0.1991  0.0455  0.0851
  133loPI   C1A 2119   3.051  15.499   9.158  0.0718 -0.1161 -0.2782
  133loPI   C2A 2120   3.107  15.453   8.601  0.0210  0.1999  0.1945
  133loPI   C3A 2121   2.999  15.048   8.334  0.3163 -0.1465  0.2252
  133loPI   C4A 2122   3.191  14.837   8.008  0.5129 -0.2161  0.0344
  133loPI   C5A 2123   3.366  14.915   7.632 -0.1502 -0.0944 -0.2915
  133loPI   C6A 2124   3.428  15.237   7.303  0.1682  0.2289  0.2042
  133loPI   C1B 2125   3.600  15.555   9.288  0.1070  0.0761  0.1191
  133loPI   C2B 2126   3.647  15.519   8.769  0.1384  0.0735 -0.2963
  133loPI   C3B 2127   3.526  15.403   8.336  0.0629 -0.0746 -0.0145
  133loPI   C4B 2128   3.493  15.240   7.998  0.0908  0.0446  0.0019
  134loPI    C1 2129   6.150   7.797  10.447  0.0382 -0.0277 -0.0494
  134loPI    C2 2130   5.933   7.472  10.357  0.0136 -0.0591  0.1196
  134loPI    C3 2131   6.280   7.540  10.169 -0.0669 -0.0903 -0.0414
  134loPI   PO4 2132   5.875   8.013  10.452 -0.1361 -0.2216  0.1644
  134loPI   GL1 2133   5.943   8.372  10.070  0.0945 -0.1427  0.3881
  134loPI   GL2 2134   5.623   8.249   9.984  0.2934 -0.2361 -0.3288
  134loPI   C1A 2135   6.137   8.262   9.657 -0.1551 -0.0433  0.0509
  134loPI   C2A 2136   6.184   8.315   9.281  0.0398  0.0060 -0.0422
  134loPI   C3A 2137   6.055   8.264   8.850  0.0154  0.4330 -0.0255
  134loPI   C4A 2138   5.988   8.306   8.360 -0.0100 -0.0846  0.0262
  134loPI   C5A 2139   5.911   8.275   7.919  0.0371  0.3847 -0.0210
  134loPI   C6A 2140   5.651   8.378   7.595  0.2467 -0.2457  0.2749
  134loPI   C1B 2141   5.555   8.264   9.598  0.3194  0.0664  0.3351
  134loPI   C2B 2142   5.647   8.313   9.145 -0.1165 -0.2031 -0.0689
  134loPI   C3B 2143   5.573   8.275   8.707 -0.0786  0.4510  0.0164
  134loPI   C4B 2144   5.497   8.297   8.254  0.1128 -0.1082 -0.3850
  135loPI    C1 2145   3.153   0.831  10.008 -0.2260  0.1101 -0.0974
  135loPI    C2 2146   3.246   0.836  10.398 -0.1843 -0.0100 -0.1057
  135loPI    C3 2147   2.992   0.561  10.255 -0.1045 -0.0434 -0.1844
  135loPI   PO4 2148   3.417   0.932   9.936  0.1618 -0.1204 -0.0452
  135loPI   GL1 2149   3.620   0.873   9.663 -0.2838 -0.0721  0.2246
  135loPI   GL2 2150   3.556   0.514   9.685 -0.0317 -0.3639  0.1180
  135loPI   C1A 2151   3.509   0.824   9.194 -0.1625  0.2021 -0.2787
  135loPI   C2A 2152   3.442   0.778   8.760 -0.2762 -0.2719 -0.0171
  135loPI   C3A 2153   3.743   0.654   8.416  0.0100 -0.5568  0.1098
  135loPI   C4A 2154   3.868   0.298   8.126 -0.0671 -0.1911  0.1563
  135loPI   C5A 2155   3.845   0.085   7.711 -0.1166 -0.0984  0.1088
  135loPI   C6A 2156   3.685  -0.056   7.226  0.0484 -0.1960  0.1419
  135loPI   C1B 2157   3.465   0.327   9.317 -0.3850 -0.1752 -0.1739
  135loPI   C2B 2158   3.584  -0.020   9.278 -0.1384 -0.3998 -0.1055
  135loPI   C3B 2159   3.553  -0.394   9.122  0.3056 -0.2704  0.1211
  135loPI   C4B 2160   3.618  -0.555   8.677  0.2384  0.0415 -0.3154
  136loPI    C1 2161  13.006  10.776  10.143  0.0327 -0.0383  0.1146
  136loPI    C2 2162  13.369  10.608  10.147  0.0391 -0.0493 -0.3579
  136loPI    C3 2163  13.071  10.445  10.359  0.2998 -0.0513  0.0184
  136loPI   PO4 2164  12.969  10.809   9.834  0.1974 -0.0650  0.3651
  136loPI   GL1 2165  12.676  10.521   9.506  0.0450 -0.1493  0.0724
  136loPI   GL2 2166  12.630  10.256   9.443 -0.3023  0.2665  0.2576
  136loPI   C1A 2167  12.652  10.683   9.179 -0.0758 -0.0631  0.2793
  136loPI   C2A 2168  12.786  10.711   8.791  0.0101  0.0248 -0.0335
  136loPI   C3A 2169  12.885  10.721   8.342 -0.0769  0.0477  0.0385
  136loPI   C4A 2170  12.902  10.769   7.889 -0.1635  0.0685 -0.1654
  136loPI   C5A 2171  12.869  10.424   7.557  0.4275 -0.0429  0.1204
  136loPI   C6A 2172  12.971  10.105   7.326 -0.1179 -0.0423  0.0511
  136loPI   C1B 2173  12.799  10.214   9.009 -0.1608 -0.3241 -0.1624
  136loPI   C2B 2174  12.820  10.231   8.559 -0.1706 -0.1474  0.0992
  136loPI   C3B 2175  12.963  10.179   8.219  0.2981  0.0719 -0.0695
  136loPI   C4B 2176  13.216  10.214   7.788 -0.1964  0.2701 -0.2242
  137loPI    C1 2177  12.740  17.962   9.610  0.1729  0.1098 -0.0130
  137loPI    C2 2178  12.525  17.687   9.805 -0.0354  0.2179 -0.0863
  137loPI    C3 2179  12.924  17.658   9.792 -0.0407  0.0447  0.0969
  137loPI   PO4 2180  12.594  18.013   9.351  0.0630 -0.4916 -0.0443
  137loPI   GL1 2181  12.328  18.243   9.163  0.1035  0.1057  0.0070
  137loPI   GL2 2182  12.134  18.481   9.218 -0.1949  0.0557  0.0134
  137loPI   C1A 2183  12.422  18.147   8.756  0.1602 -0.2018  0.3423
  137loPI   C2A 2184  12.422  18.119   8.261  0.2121  0.0881  0.1349
  137loPI   C3A 2185  12.524  18.066   7.779  0.0758  0.2706 -0.0900
  137loPI   C4A 2186  12.613  17.973   7.380  0.2778 -0.0832 -0.1359
  137loPI   C5A 2187  12.782  17.787   6.981 -0.1526 -0.0499 -0.1517
  137loPI   C6A 2188  12.690  17.369   6.966  0.1667 -0.0029  0.1413
  137loPI   C1B 2189  12.063  18.510   8.822 -0.1380 -0.0438 -0.0793
  137loPI   C2B 2190  12.050  18.482   8.449  0.3060 -0.1724 -0.0103
  137loPI   C3B 2191  12.039  18.676   8.031  0.0757 -0.1227  0.4431
  137loPI   C4B 2192  11.953  18.647   7.659  0.0193  0.0054  0.0601
  138loPI    C1 2193   5.527   0.017  10.551  0.0487  0.1788  0.1101
  138loPI    C2 2194   5.572   0.307  10.823  0.3443  0.0412  0.2117
  138loPI    C3 2195   5.859   0.032  10.773  0.1080 -0.1819  0.0524
  138loPI   PO4 2196   5.532   0.112  10.350  0.1643  0.4275  0.6072
  138loPI   GL1 2197   5.556   0.052   9.919 -0.1912  0.1102  0.2214
  138loPI   GL2 2198   5.683  -0.205   9.849  0.5087  0.0550 -0.1114
  138loPI   C1A 2199   5.500   0.049   9.429  0.1270  0.0237  0.1284
  138loPI   C2A 2200   5.625   0.283   8.880  0.1037 -0.1152 -0.0957
  138loPI   C3A 2201   5.733   0.219   8.420 -0.0238  0.0462 -0.0760
  138loPI   C4A 2202   5.688   0.172   8.018  0.3269  0.1682 -0.0306
  138loPI   C5A 2203   5.449  -0.159   7.849 -0.3898  0.0292 -0.1325
  138loPI   C6A 2204   5.126  -0.351   7.718  0.4521 -0.0859  0.2267
  138loPI   C1B 2205   5.671  -0.470   9.429  0.0681 -0.1173 -0.4672
  138loPI   C2B 2206   5.624  -0.269   9.007 -0.0418 -0.1028  0.1315
  138loPI   C3B 2207   5.465  -0.183   8.596  0.0560  0.0018 -0.0131
  138loPI   C4B 2208   5.477  -0.449   8.228  0.0760 -0.2286 -0.1299
  139loPI    C1 2209   3.104   6.137  10.753  0.0299 -0.0555  0.1123
  139loPI    C2 2210   3.320   6.387  10.979 -0.1368  0.0594  0.1463
  139loPI    C3 2211   3.002   6.200  11.135 -0.0489 -0.1284  0.1037
  139loPI   PO4 2212   3.129   6.330  10.540 -0.1620  0.0299 -0.1618
  139loPI   GL1 2213   3.084   6.263  10.041 -0.3180  0.0245 -0.2165
  139loPI   GL2 2214   2.988   6.586  10.133  0.1502  0.0581  0.0208
  139loPI   C1A 2215   3.053   5.981   9.740 -0.1153  0.1639 -0.1023
  139loPI   C2A 2216   3.052   6.080   9.337  0.1575  0.0219  0.2154
  139loPI   C3A 2217   3.038   6.139   8.961 -0.1893 -0.3242 -0.1902
  139loPI   C4A 2218   2.991   6.159   8.524  0.1506  0.2846  0.2135
  139loPI   C5A 2219   2.903   6.229   8.048  0.2418 -0.1504  0.0908
  139loPI   C6A 2220   2.527   6.444   7.984 -0.1443 -0.0686  0.1740
  139loPI   C1B 2221   2.787   6.520   9.743 -0.1100  0.1420  0.0704
  139loPI   C2B 2222   2.820   6.588   9.403 -0.2090  0.2415 -0.1513
  139loPI   C3B 2223   2.828   6.595   8.992 -0.2788 -0.1687 -0.0854
  139loPI   C4B 2224   2.804   6.599   8.514 -0.1428 -0.0836 -0.0749
  140loPI    C1 2225   6.117   4.356  10.528 -0.0329 -0.1458  0.1594
  140loPI    C2 2226   6.364   4.066  10.650  0.0310 -0.2224 -0.1436
  140loPI    C3 2227   5.974   4.049  10.741  0.1213 -0.1349  0.2800
  140loPI   PO4 2228   6.167   4.435  10.289  0.0870  0.1286  0.3120
  140loPI   GL1 2229   6.162   4.467   9.846 -0.0922 -0.1027  0.0123
  140loPI   GL2 2230   6.425   4.645   9.707  0.4802  0.3162 -0.0941
  140loPI   C1A 2231   5.943   4.592   9.589 -0.2889 -0.0612  0.1974
  140loPI   C2A 2232   5.953   4.736   9.114 -0.4105 -0.0394  0.0632
  140loPI   C3A 2233   5.887   4.755   8.693  0.1089  0.1710  0.1001
  140loPI   C4A 2234   5.921   4.749   8.283 -0.1010 -0.0913 -0.0842
  140loPI   C5A 2235   5.904   4.847   7.880  0.0253 -0.2834 -0.0142
  140loPI   C6A 2236   5.958   5.114   7.665  0.2683 -0.2426  0.0440
  140loPI   C1B 2237   6.393   4.870   9.354  0.1913  0.3119  0.0451
  140loPI   C2B 2238   6.396   4.889   8.883  0.3104  0.0028  0.0337
  140loPI   C3B 2239   6.261   5.022   8.514 -0.1237  0.4028 -0.0805
  140loPI   C4B 2240   6.315   5.179   8.011 -0.2946  0.1486 -0.0803
  141loPI    C1 2241  10.344   4.930  10.183  0.0553  0.2640 -0.0688
  141loPI    C2 2242  10.739   4.981  10.153  0.0505  0.4167  0.1102
  141loPI    C3 2243  10.588   4.771  10.458  0.0244 -0.0947 -0.2433
  141loPI   PO4 2244  10.282   4.909   9.871 -0.1807 -0.1645  0.1453
  141loPI   GL1 2245  10.256   5.029   9.486  0.2678 -0.3567 -0.0775
  141loPI   GL2 2246  10.229   5.401   9.441 -0.2399 -0.1838  0.1732
  141loPI   C1A 2247  10.390   4.803   9.144  0.0601  0.1093  0.0601
  141loPI   C2A 2248  10.408   4.822   8.703  0.1606 -0.1534 -0.0309
  141loPI   C3A 2249  10.340   4.783   8.377 -0.0739  0.0190 -0.1876
  141loPI   C4A 2250  10.540   4.592   8.127  0.0690 -0.0882 -0.1525
  141loPI   C5A 2251  10.340   4.338   7.790  0.1914  0.3183 -0.0242
  141loPI   C6A 2252  10.163   3.918   7.683  0.0707  0.1974  0.0605
  141loPI   C1B 2253  10.163   5.236   8.995 -0.0389 -0.0226  0.1150
  141loPI   C2B 2254  10.238   5.308   8.544  0.2134  0.2267  0.0236
  141loPI   C3B 2255  10.146   5.256   8.061 -0.5264  0.1362 -0.0577
  141loPI   C4B 2256  10.357   5.458   7.701  0.1325 -0.1562  0.1162
  142loPI    C1 2257  17.963  16.212  10.026 -0.3267  0.0804 -0.0514
  142loPI    C2 2258  17.915  16.032  10.380 -0.1127  0.3052  0.0954
  142loPI    C3 2259  17.999  16.422  10.364 -0.0286  0.2774 -0.2010
  142loPI   PO4 2260  17.811  16.230   9.827 -0.0829  0.2785  0.2736
  142loPI   GL1 2261  17.768  16.248   9.385  0.0943 -0.1893 -0.1136
  142loPI   GL2 2262  17.990  16.048   9.322  0.1341  0.1377  0.2395
  142loPI   C1A 2263  17.683  16.067   8.918 -0.0120 -0.0849  0.1003
  142loPI   C2A 2264  17.796  16.025   8.547  0.0328  0.0584  0.0913
  142loPI   C3A 2265  17.779  15.992   8.118 -0.0186 -0.0537  0.2290
  142loPI   C4A 2266  17.685  16.066   7.687 -0.0477  0.0004 -0.2489
  142loPI   C5A 2267  18.025  16.174   7.275 -0.1686 -0.1087 -0.1014
  142loPI   C6A 2268  18.064  16.542   6.937  0.2781  0.1083 -0.2680
  142loPI   C1B 2269  18.173  15.992   8.962  0.2396  0.1661 -0.3218
  142loPI   C2B 2270  18.320  15.918   8.573  0.1987  0.0993 -0.1427
  142loPI   C3B 2271  18.321  16.094   8.041  0.0636  0.2335  0.0532
  142loPI   C4B 2272  18.245  15.895   7.648 -0.1304 -0.2770  0.0645
  143loPI    C1 2273   4.907  10.915  10.404  0.0919  0.3296  0.0315
  143loPI    C2 2274   4.860  11.223  10.655  0.2721  0.1591  0.2786
  143loPI    C3 2275   5.208  11.026  10.643  0.1274 -0.0965  0.1932
  143loPI   PO4 2276   4.806  10.942  10.216 -0.1536 -0.0533 -0.1883
  143loPI   GL1 2277   4.627  10.819   9.903 -0.0095  0.1795  0.1137
  143loPI   GL2 2278   4.452  11.107   9.854  0.3215 -0.1051 -0.0338
  143loPI   C1A 2279   4.316  10.693   9.620  0.0352 -0.1697  0.0689
  143loPI   C2A 2280   4.379  10.588   9.200  0.1749 -0.2719 -0.0127
  143loPI   C3A 2281   4.387  10.460   8.776 -0.3440 -0.0526 -0.0819
  143loPI   C4A 2282   4.436  10.615   8.382  0.2196 -0.0830 -0.2792
  143loPI   C5A 2283   4.189  10.688   7.952  0.0669 -0.0966  0.0112
  143loPI   C6A 2284   3.952  10.576   7.574 -0.2383  0.0604  0.1704
  143loPI   C1B 2285   4.724  10.958   9.436 -0.2260  0.1822  0.4189
  143loPI   C2B 2286   4.703  10.987   8.963  0.1702 -0.0459 -0.0601
  143loPI   C3B 2287   4.673  11.059   8.511  0.1812  0.0781  0.2168
  143loPI   C4B 2288   4.748  11.148   8.067  0.0339  0.0140 -0.0915
  144loPI    C1 2289  10.534   7.126  10.617 -0.0654  0.3766 -0.0739
  144loPI    C2 2290  10.908   6.989  10.655 -0.1963  0.0326  0.0178
  144loPI    C3 2291  10.774   7.275  10.900  0.0116  0.1741 -0.0308
  144loPI   PO4 2292  10.498   7.218  10.412  0.2289 -0.1220 -0.1373
  144loPI   GL1 2293  10.465   7.474  10.083 -0.1621  0.0243 -0.3646
  144loPI   GL2 2294  10.649   7.560   9.828 -0.1735  0.0031  0.1991
  144loPI   C1A 2295  10.354   7.250   9.633  0.0386 -0.3481  0.0292
  144loPI   C2A 2296  10.356   7.228   9.143  0.1072  0.0538  0.0059
  144loPI   C3A 2297  10.388   7.308   8.716 -0.0631 -0.0146  0.1929
  144loPI   C4A 2298  10.113   7.333   8.355  0.1085  0.2060 -0.3062
  144loPI   C5A 2299  10.230   7.589   8.043  0.3614 -0.3911 -0.2224
  144loPI   C6A 2300  10.414   7.785   7.645  0.0931 -0.1829  0.2250
  144loPI   C1B 2301  10.655   7.679   9.402 -0.2876 -0.2567 -0.0036
  144loPI   C2B 2302  10.721   7.713   9.033  0.0398 -0.1298  0.2236
  144loPI   C3B 2303  10.648   7.746   8.607 -0.1895 -0.2465  0.1066
  144loPI   C4B 2304  10.727   7.740   8.135  0.2139 -0.0513  0.3982
  145loPI    C1 2305  11.902  11.630   9.979  0.1113  0.0495 -0.2340
  145loPI    C2 2306  12.098  11.571  10.323 -0.2000  0.1500 -0.0352
  145loPI    C3 2307  11.953  11.933  10.235 -0.3692  0.0589 -0.1396
  145loPI   PO4 2308  11.783  11.360   9.958  0.3526  0.2430  0.2364
  145loPI   GL1 2309  11.788  11.261   9.584 -0.0077  0.1687 -0.0036
  145loPI   GL2 2310  11.512  11.474   9.502 -0.0749 -0.0674  0.1378
  145loPI   C1A 2311  11.734  11.300   9.057 -0.2727 -0.1675 -0.2233
  145loPI   C2A 2312  11.840  11.280   8.559  0.0780  0.1821  0.0897
  145loPI   C3A 2313  11.874  11.162   8.148  0.0697  0.4280 -0.0212
  145loPI   C4A 2314  11.936  11.162   7.742  0.2678 -0.2486  0.0043
  145loPI   C5A 2315  11.691  11.017   7.392 -0.1589 -0.1386  0.1382
  145loPI   C6A 2316  11.294  10.972   7.197 -0.0719  0.1136  0.3393
  145loPI   C1B 2317  11.278  11.555   9.159 -0.0290  0.1262  0.0729
  145loPI   C2B 2318  11.118  11.464   8.807 -0.0515 -0.0073  0.2009
  145loPI   C3B 2319  10.946  11.409   8.434 -0.1045  0.0466  0.0670
  145loPI   C4B 2320  10.870  11.412   8.047 -0.1028  0.0327  0.1242
  146loPI    C1 2321   3.951   7.554  10.754 -0.2077  0.0252  0.0026
  146loPI    C2 2322   4.125   7.912  10.722  0.2137 -0.1523  0.2163
  146loPI    C3 2323   3.964   7.799  11.070 -0.3185 -0.0023  0.0289
  146loPI   PO4 2324   4.197   7.429  10.607  0.2917  0.0467 -0.0949
  146loPI   GL1 2325   4.286   7.204  10.220 -0.0886 -0.3007 -0.2390
  146loPI   GL2 2326   4.308   7.604  10.146 -0.1343 -0.0327  0.1928
  146loPI   C1A 2327   4.158   6.934   9.788  0.0830 -0.1521  0.1628
  146loPI   C2A 2328   4.246   6.778   9.320 -0.1939 -0.1448 -0.3302
  146loPI   C3A 2329   4.190   6.957   8.879  0.1892 -0.0078 -0.1796
  146loPI   C4A 2330   4.138   6.975   8.531  0.1303  0.2172  0.3451
  146loPI   C5A 2331   4.268   7.099   8.122 -0.0810  0.0019  0.1597
  146loPI   C6A 2332   4.004   7.180   7.783  0.0118 -0.3198  0.1321
  146loPI   C1B 2333   4.438   7.390   9.774 -0.1730 -0.1147 -0.2265
  146loPI   C2B 2334   4.486   7.475   9.321 -0.0202  0.1704 -0.1439
  146loPI   C3B 2335   4.414   7.387   8.925 -0.0507 -0.5007 -0.1442
  146loPI   C4B 2336   4.427   7.431   8.510  0.1343 -0.0276  0.3393
  147loPI    C1 2337   2.882   1.778  10.085  0.0302 -0.3625 -0.0110
  147loPI    C2 2338   3.160   1.675  10.354  0.0840  0.2463  0.1817
  147loPI    C3 2339   2.855   1.910  10.462 -0.2031  0.0422 -0.1632
  147loPI   PO4 2340   3.013   1.872   9.907 -0.0632  0.1324  0.0431
  147loPI   GL1 2341   3.058   1.996   9.386 -0.1360 -0.0282 -0.2055
  147loPI   GL2 2342   2.775   2.007   9.198  0.2897 -0.0997  0.2791
  147loPI   C1A 2343   3.264   1.908   9.042  0.0355  0.1650 -0.1813
  147loPI   C2A 2344   3.382   1.773   8.555 -0.0293  0.2616 -0.1285
  147loPI   C3A 2345   3.260   1.673   8.112 -0.1791  0.3510  0.0715
  147loPI   C4A 2346   3.173   1.764   7.791 -0.0616  0.4741  0.1318
  147loPI   C5A 2347   2.945   1.935   7.561 -0.2710  0.0953 -0.1944
  147loPI   C6A 2348   2.739   2.361   7.531  0.1558  0.0819 -0.2663
  147loPI   C1B 2349   2.845   2.104   8.810  0.1873  0.4269 -0.3007
  147loPI   C2B 2350   2.940   2.168   8.430  0.1538  0.1766 -0.0325
  147loPI   C3B 2351   2.947   2.328   8.005  0.4882  0.1333  0.1940
  147loPI   C4B 2352   3.303   2.310   7.719  0.3782  0.0853 -0.0192
  148loPI    C1 2353  17.811  11.782  10.162 -0.0000  0.0271  0.1572
  148loPI    C2 2354  17.774  11.548  10.484 -0.4217  0.2424  0.2735
  148loPI    C3 2355  18.132  11.696  10.383 -0.1791 -0.3066  0.2942
  148loPI   PO4 2356  17.495  11.722  10.028 -0.2050  0.1118  0.1864
  148loPI   GL1 2357  17.265  11.853   9.725 -0.1087 -0.0058  0.2070
  148loPI   GL2 2358  16.912  11.843   9.691 -0.3175  0.0729  0.2494
  148loPI   C1A 2359  17.308  11.723   9.322 -0.0309  0.1954  0.1945
  148loPI   C2A 2360  17.249  11.714   9.045  0.1009 -0.0868 -0.0194
  148loPI   C3A 2361  17.247  11.608   8.654 -0.4828  0.0626 -0.1034
  148loPI   C4A 2362  17.307  11.561   8.264  0.0523 -0.1251 -0.0374
  148loPI   C5A 2363  17.307  11.535   7.884 -0.3659 -0.1141 -0.2212
  148loPI   C6A 2364  17.274  11.625   7.577 -0.0453 -0.0474 -0.0442
  148loPI   C1B 2365  16.763  11.894   9.270  0.1886  0.1208 -0.0487
  148loPI   C2B 2366  16.659  11.741   8.922  0.0179 -0.1113  0.0864
  148loPI   C3B 2367  16.788  11.629   8.555  0.0970 -0.0605 -0.3441
  148loPI   C4B 2368  16.804  11.476   8.142 -0.1866 -0.0775  0.4491
  149loPI    C1 2369   0.806   9.752  10.601 -0.0462 -0.0255 -0.0747
  149loPI    C2 2370   0.529   9.959  10.802  0.1866  0.1214  0.1001
  149loPI    C3 2371   0.816   9.763  11.001  0.0012 -0.3316 -0.0652
  149loPI   PO4 2372   0.678   9.682  10.373 -0.1137  0.1218  0.0333
  149loPI   GL1 2373   0.935   9.783  10.018 -0.3005  0.2597  0.2512
  149loPI   GL2 2374   1.299   9.559  10.018 -0.0238 -0.3478  0.1280
  149loPI   C1A 2375   1.234   9.994   9.765  0.2527  0.1264 -0.0758
  149loPI   C2A 2376   1.184   9.815   9.279 -0.5264  0.1443 -0.0467
  149loPI   C3A 2377   1.166   9.755   8.858  0.1353 -0.4942 -0.0088
  149loPI   C4A 2378   1.078   9.752   8.445 -0.2695 -0.1994 -0.1978
  149loPI   C5A 2379   1.072   9.563   8.062 -0.1216  0.2972  0.2785
  149loPI   C6A 2380   1.354   9.588   7.744  0.0334  0.0348 -0.4008
  149loPI   C1B 2381   1.381   9.457   9.626 -0.3642  0.1029 -0.2475
  149loPI   C2B 2382   1.454   9.318   9.267 -0.0018  0.0976 -0.1448
  149loPI   C3B 2383   1.387   9.289   8.891 -0.0439 -0.0969  0.1998
  149loPI   C4B 2384   1.318   9.328   8.483  0.2029 -0.2167 -0.2258
  150loPI    C1 2385  14.745  17.127   9.317 -0.0369 -0.1817 -0.0446
  150loPI    C2 2386  14.595  16.969   9.652 -0.0590  0.0882  0.0753
  150loPI    C3 2387  14.447  17.312   9.509  0.1335  0.1158 -0.0604
  150loPI   PO4 2388  14.985  17.253   9.355 -0.0664 -0.1200 -0.3474
  150loPI   GL1 2389  15.321  17.388   9.074 -0.0526  0.2706  0.0988
  150loPI   GL2 2390  15.545  17.174   9.075 -0.0254 -0.0785  0.2262
  150loPI   C1A 2391  15.176  17.441   8.650  0.0374  0.2599 -0.0628
  150loPI   C2A 2392  15.187  17.534   8.237  0.0243 -0.2420 -0.1507
  150loPI   C3A 2393  15.459  17.498   7.891  0.0324  0.0155  0.2827
  150loPI   C4A 2394  15.684  17.543   7.549  0.0918 -0.0794  0.0201
  150loPI   C5A 2395  16.000  17.246   7.270  0.0258 -0.4870  0.2147
  150loPI   C6A 2396  16.401  17.287   7.204 -0.0219 -0.1041 -0.2645
  150loPI   C1B 2397  15.559  17.101   8.732 -0.0372  0.0988 -0.2762
  150loPI   C2B 2398  15.726  17.233   8.305  0.0293  0.1985 -0.0991
  150loPI   C3B 2399  15.747  17.136   7.906 -0.1178  0.1747  0.1858
  150loPI   C4B 2400  15.614  17.044   7.471 -0.1935  0.1256  0.0502
  151loPI    C1 2401   6.427   9.591  10.894 -0.1157  0.2427 -0.0806
  151loPI    C2 2402   6.699   9.883  10.930 -0.0677  0.1714  0.1524
  151loPI    C3 2403   6.443   9.811  11.228 -0.2027  0.0973  0.0200
  151loPI   PO4 2404   6.321   9.689  10.611  0.4516  0.0853  0.2083
  151loPI   GL1 2405   6.389   9.568  10.194  0.2519 -0.1397  0.1272
  151loPI   GL2 2406   6.344   9.278  10.159 -0.1489 -0.0488  0.1425
  151loPI   C1A 2407   6.392   9.637   9.752 -0.4315 -0.0860  0.1325
  151loPI   C2A 2408   6.409   9.457   9.340 -0.0611 -0.0570 -0.1140
  151loPI   C3A 2409   6.467   9.552   8.892 -0.0131  0.0626 -0.5232
  151loPI   C4A 2410   6.459   9.585   8.523  0.1605 -0.1000  0.2604
  151loPI   C5A 2411   6.419   9.550   8.127  0.1542  0.1539 -0.5065
  151loPI   C6A 2412   6.502   9.687   7.735  0.0148 -0.0353 -0.1878
  151loPI   C1B 2413   6.122   9.196   9.761 -0.0296  0.4172 -0.1419
  151loPI   C2B 2414   6.158   9.043   9.449 -0.0229 -0.2412 -0.3021
  151loPI   C3B 2415   6.219   9.089   9.081 -0.1183  0.2370 -0.1721
  151loPI   C4B 2416   6.097   9.237   8.646 -0.0897  0.1116 -0.0721
  152loPI    C1 2417  12.403  13.748   9.687 -0.1412 -0.1766 -0.1329
  152loPI    C2 2418  12.057  13.688   9.879 -0.1369 -0.1733 -0.1245
  152loPI    C3 2419  12.388  13.777  10.086 -0.1298 -0.1821 -0.1322
  152loPI   PO4 2420  12.473  13.886   9.471  0.0270 -0.3466  0.0636
  152loPI   GL1 2421  12.605  14.049   9.063 -0.0189 -0.0140 -0.2360
  152loPI   GL2 2422  12.802  14.060   8.874  0.0241  0.2576  0.1941
  152loPI   C1A 2423  12.753  13.582   8.926 -0.3036 -0.0734  0.0861
  152loPI   C2A 2424  12.591  13.391   8.600  0.0912 -0.2316  0.1772
  152loPI   C3A 2425  12.495  13.333   8.231  0.0796  0.1053 -0.1539
  152loPI   C4A 2426  12.414  13.402   7.805  0.0721 -0.0985 -0.4052
  152loPI   C5A 2427  12.445  13.216   7.390 -0.3099  0.1412  0.1087
  152loPI   C6A 2428  12.417  13.238   6.994 -0.1666 -0.1792 -0.0768
  152loPI   C1B 2429  12.779  14.014   8.401  0.2181  0.0660 -0.1098
  152loPI   C2B 2430  12.957  13.754   8.109  0.2920  0.0764  0.2197
  152loPI   C3B 2431  12.919  13.323   7.958 -0.0055  0.0579 -0.0256
  152loPI   C4B 2432  12.821  13.072   7.673 -0.1590  0.1482 -0.1977
  153loPI    C1 2433   7.291   3.136   9.634  0.0262 -0.1613 -0.0424
  153loPI    C2 2434   7.221   3.253  10.010  0.0657  0.2271 -0.1516
  153loPI    C3 2435   6.935   3.065   9.802  0.0683 -0.0561  0.0930
  153loPI   PO4 2436   7.453   2.979   9.617 -0.0943 -0.0322  0.3238
  153loPI   GL1 2437   7.675   3.016   9.320  0.0447 -0.3259 -0.2711
  153loPI   GL2 2438   7.607   2.613   9.245  0.0583  0.1448 -0.2874
  153loPI   C1A 2439   7.622   3.218   8.902  0.2821 -0.1873 -0.1821
  153loPI   C2A 2440   7.745   3.288   8.510 -0.0376 -0.0773  0.2051
  153loPI   C3A 2441   7.648   3.285   8.049 -0.2686  0.2979  0.0421
  153loPI   C4A 2442   7.798   2.997   7.679 -0.3600 -0.0352 -0.0424
  153loPI   C5A 2443   7.944   2.850   7.351 -0.0827 -0.1783  0.1395
  153loPI   C6A 2444   8.117   3.005   6.922  0.1549 -0.0320 -0.3463
  153loPI   C1B 2445   7.636   2.712   8.847  0.0774 -0.2876 -0.3588
  153loPI   C2B 2446   7.491   2.898   8.481  0.1491  0.0864  0.1373
  153loPI   C3B 2447   7.388   2.837   8.160 -0.1527  0.1663  0.2527
  153loPI   C4B 2448   7.419   2.358   8.052 -0.1113 -0.0661 -0.1056
  154loPI    C1 2449  10.166  10.627  10.159 -0.0186  0.1825 -0.0071
  154loPI    C2 2450   9.781  10.733  10.144 -0.0108  0.1887 -0.1810
  154loPI    C3 2451  10.057  10.999  10.258 -0.0419  0.2253 -0.1913
  154loPI   PO4 2452  10.211  10.468   9.944 -0.1344  0.0009 -0.2074
  154loPI   GL1 2453  10.307  10.224   9.641 -0.0465 -0.2513  0.2050
  154loPI   GL2 2454  10.463  10.436   9.368  0.1490  0.0604 -0.0032
  154loPI   C1A 2455  10.008  10.089   9.293  0.0014 -0.0026  0.2199
  154loPI   C2A 2456   9.977   9.972   8.818 -0.2194 -0.1024  0.0410
  154loPI   C3A 2457   9.830   9.878   8.428 -0.2597 -0.1881 -0.0637
  154loPI   C4A 2458   9.614  10.059   8.071  0.1337  0.0604 -0.2797
  154loPI   C5A 2459   9.647   9.756   7.790  0.1075 -0.3290 -0.5563
  154loPI   C6A 2460   9.858   9.581   7.516 -0.0687  0.2973 -0.2081
  154loPI   C1B 2461  10.309  10.382   8.940 -0.0067  0.0120 -0.2146
  154loPI   C2B 2462  10.216  10.315   8.552 -0.0385  0.0929 -0.1832
  154loPI   C3B 2463  10.131  10.209   8.082 -0.1823 -0.0192 -0.1592
  154loPI   C4B 2464  10.037  10.060   7.660  0.1111  0.2004 -0.0768
  155loPI    C1 2465  10.957  13.065  10.110 -0.0582  0.0689  0.0538
  155loPI    C2 2466  11.112  13.424  10.029 -0.1046  0.0266 -0.2342
  155loPI    C3 2467  10.887  13.372  10.356  0.3614  0.1233  0.1121
  155loPI   PO4 2468  10.858  13.063   9.781 -0.1798 -0.1909  0.2318
  155loPI   GL1 2469  10.591  12.785   9.617 -0.0890  0.0646  0.0471
  155loPI   GL2 2470  10.503  12.507   9.777  0.1743  0.1664  0.0592
  155loPI   C1A 2471  10.425  12.762   9.238 -0.0606  0.1543 -0.0248
  155loPI   C2A 2472  10.414  12.629   8.735  0.2134  0.0321  0.2369
  155loPI   C3A 2473  10.475  12.641   8.271  0.0429  0.0842 -0.4536
  155loPI   C4A 2474  10.559  12.561   7.930 -0.1069 -0.0480 -0.0541
  155loPI   C5A 2475  10.288  12.418   7.745  0.0968 -0.2361  0.0631
  155loPI   C6A 2476   9.950  12.079   7.677 -0.1031  0.0552 -0.0107
  155loPI   C1B 2477  10.130  12.445   9.551 -0.1661 -0.4203 -0.0084
  155loPI   C2B 2478   9.909  12.543   9.240  0.4323  0.0493  0.0551
  155loPI   C3B 2479   9.972  12.522   8.886  0.0250 -0.2274  0.0322
  155loPI   C4B 2480   9.992  12.599   8.505  0.1152 -0.2769  0.5903
  156loPI    C1 2481   4.423  11.037  10.525  0.1064 -0.0266 -0.2868
  156loPI    C2 2482   4.616  10.764  10.745  0.4084  0.2774 -0.1653
  156loPI    C3 2483   4.436  11.074  10.923 -0.0249  0.1065 -0.2940
  156loPI   PO4 2484   4.269  10.991  10.369 -0.0591  0.0051  0.1920
  156loPI   GL1 2485   3.977  10.986  10.061  0.2191  0.1174 -0.2271
  156loPI   GL2 2486   3.989  11.283  10.012  0.1803  0.2757 -0.1742
  156loPI   C1A 2487   3.800  10.683   9.709 -0.1122 -0.1803 -0.4078
  156loPI   C2A 2488   3.934  10.614   9.302  0.1005  0.1776 -0.3833
  156loPI   C3A 2489   3.796  10.481   8.842 -0.0721 -0.1024  0.2194
  156loPI   C4A 2490   3.954  10.599   8.428 -0.2241  0.1036  0.5696
  156loPI   C5A 2491   3.722  10.825   8.045  0.1422 -0.0265 -0.2607
  156loPI   C6A 2492   3.499  10.486   7.777  0.0777 -0.3441 -0.2375
  156loPI   C1B 2493   4.026  11.121   9.598  0.0610  0.1095 -0.0610
  156loPI   C2B 2494   4.253  11.106   9.285 -0.0656  0.0587  0.2567
  156loPI   C3B 2495   4.235  10.921   8.843 -0.0238 -0.2334 -0.0486
  156loPI   C4B 2496   4.194  11.010   8.309 -0.3390  0.0751 -0.1855
  157loPI    C1 2497   6.728   3.561   9.978  0.1023 -0.0133  0.1063
  157loPI    C2 2498   6.932   3.467  10.309  0.1298 -0.1425  0.0536
  157loPI    C3 2499   6.640   3.227  10.179  0.1524 -0.1179 -0.0435
  157loPI   PO4 2500   6.977   3.693   9.816 -0.0480  0.1092  0.0015
  157loPI   GL1 2501   7.128   3.589   9.517 -0.2244  0.0221  0.2794
  157loPI   GL2 2502   6.849   3.379   9.398 -0.1918 -0.0590 -0.1272
  157loPI   C1A 2503   7.283   3.674   9.063  0.1969  0.1119 -0.0854
  157loPI   C2A 2504   7.312   3.591   8.792 -0.3487  0.0013 -0.0497
  157loPI   C3A 2505   7.304   3.691   8.340  0.0667 -0.2157 -0.0152
  157loPI   C4A 2506   7.332   3.680   7.853 -0.1164 -0.4376 -0.1606
  157loPI   C5A 2507   7.157   3.972   7.613  0.4792 -0.1443  0.0175
  157loPI   C6A 2508   7.113   4.256   7.498 -0.1460  0.1018  0.0916
  157loPI   C1B 2509   6.780   3.552   8.934  0.3478 -0.1722 -0.0717
  157loPI   C2B 2510   6.814   3.583   8.477 -0.3508  0.0289 -0.1883
  157loPI   C3B 2511   6.870   3.696   8.092  0.0798 -0.1951  0.0474
  157loPI   C4B 2512   6.495   3.794   7.901  0.0085  0.0802  0.1239
  158loPI    C1 2513   9.553  16.700   9.836  0.0046  0.1587 -0.0252
  158loPI    C2 2514   9.273  16.652  10.117  0.0292 -0.0120 -0.0284
  158loPI    C3 2515   9.544  16.944  10.152 -0.1035  0.1073  0.0119
  158loPI   PO4 2516   9.478  16.664   9.610  0.0697 -0.1706  0.3795
  158loPI   GL1 2517   9.498  16.642   9.235  0.2191 -0.0790 -0.0195
  158loPI   GL2 2518   9.620  16.269   9.255  0.0277  0.2182  0.1624
  158loPI   C1A 2519   9.638  16.840   8.899  0.1598 -0.0327  0.0609
  158loPI   C2A 2520   9.631  16.956   8.539 -0.1655  0.0253 -0.0724
  158loPI   C3A 2521   9.621  17.094   8.245 -0.2511  0.1471 -0.1665
  158loPI   C4A 2522   9.456  17.059   7.873 -0.0742 -0.2184 -0.3310
  158loPI   C5A 2523   9.232  17.284   7.526  0.0017 -0.4769  0.1214
  158loPI   C6A 2524   9.090  17.300   7.191  0.1687  0.1342  0.0467
  158loPI   C1B 2525   9.700  16.307   8.791 -0.1697  0.2569  0.0065
  158loPI   C2B 2526   9.665  16.469   8.464  0.0401 -0.0289  0.1347
  158loPI   C3B 2527   9.768  16.676   8.113 -0.1047  0.1423  0.1386
  158loPI   C4B 2528   9.932  16.729   7.639 -0.0056 -0.3722  0.2286
  159loPI    C1 2529   5.455   0.855  10.358 -0.0270 -0.0092 -0.2126
  159loPI    C2 2530   5.457   0.892  10.757 -0.2619 -0.2549 -0.1863
  159loPI    C3 2531   5.802   0.886  10.555 -0.1496  0.1386 -0.0152
  159loPI   PO4 2532   5.362   1.005  10.268 -0.1247 -0.1455  0.0211
  159loPI   GL1 2533   5.257   0.920   9.789 -0.1573 -0.0005  0.0880
  159loPI   GL2 2534   5.574   0.934   9.800 -0.1589  0.1687  0.1945
  159loPI   C1A 2535   5.283   1.045   9.322  0.1173  0.0314  0.2415
  159loPI   C2A 2536   5.179   1.050   8.847  0.1960 -0.1060 -0.2016
  159loPI   C3A 2537   5.068   0.957   8.491 -0.1007 -0.1777  0.2370
  159loPI   C4A 2538   4.912   0.678   8.080  0.1917  0.0129  0.1614
  159loPI   C5A 2539   4.798   0.450   7.770 -0.0666  0.1008 -0.1183
  159loPI   C6A 2540   4.769   0.085   7.482 -0.1669  0.0924 -0.3072
  159loPI   C1B 2541   5.727   1.001   9.469 -0.1296 -0.2625 -0.1270
  159loPI   C2B 2542   5.664   0.897   9.070  0.1821  0.0052 -0.2169
  159loPI   C3B 2543   5.707   0.722   8.607 -0.0753 -0.2997  0.3732
  159loPI   C4B 2544   5.757   0.701   8.138 -0.3277  0.1263 -0.1836
  160loPI    C1 2545  16.426   7.116  10.318 -0.3088  0.2014 -0.0924
  160loPI    C2 2546  16.266   7.344  10.605  0.1124 -0.0479  0.3567
  160loPI    C3 2547  16.595   7.466  10.414 -0.0523  0.0251  0.1142
  160loPI   PO4 2548  16.235   7.072  10.101  0.0848  0.0765 -0.0931
  160loPI   GL1 2549  16.155   6.738   9.840 -0.2183 -0.2351  0.3325
  160loPI   GL2 2550  15.914   6.712   9.572 -0.0819  0.2474  0.0085
  160loPI   C1A 2551  16.404   6.819   9.437  0.1053  0.0853 -0.3373
  160loPI   C2A 2552  16.429   6.993   9.006  0.1950 -0.1151 -0.0662
  160loPI   C3A 2553  16.258   7.248   8.695  0.0021  0.3147 -0.0069
  160loPI   C4A 2554  16.334   7.354   8.170 -0.1405 -0.1902  0.0924
  160loPI   C5A 2555  16.690   7.478   7.952 -0.3278 -0.1121 -0.0379
  160loPI   C6A 2556  17.172   7.534   8.097  0.0487  0.1772  0.0220
  160loPI   C1B 2557  15.832   6.795   9.213  0.0647  0.0628  0.1977
  160loPI   C2B 2558  15.980   6.838   8.759 -0.0861 -0.0040 -0.0802
  160loPI   C3B 2559  16.244   6.794   8.343  0.0294  0.1025  0.0394
  160loPI   C4B 2560  16.358   6.850   8.011  0.0824  0.0265  0.0732
  161loPI    C1 2561  16.246  18.596   9.903  0.1935  0.0175 -0.0257
  161loPI    C2 2562  16.110  18.297  10.132 -0.0909 -0.0059 -0.2206
  161loPI    C3 2563  16.155  18.663  10.287 -0.0146 -0.0840 -0.0558
  161loPI   PO4 2564  16.185  18.652   9.673  0.0772 -0.0017  0.0280
  161loPI   GL1 2565  16.205  18.508   9.259  0.3200 -0.1012 -0.0254
  161loPI   GL2 2566  16.573  18.612   9.323  0.1829  0.1060 -0.2574
  161loPI   C1A 2567  16.236  18.546   8.852 -0.0409  0.2237 -0.1430
  161loPI   C2A 2568  16.274  18.755   8.514 -0.1110 -0.1234  0.1361
  161loPI   C3A 2569  16.259  19.089   8.240 -0.1819 -0.2928 -0.3037
  161loPI   C4A 2570  16.459  19.221   7.823  0.0833 -0.3112 -0.0237
  161loPI   C5A 2571  16.491  19.140   7.362  0.0009  0.0007 -0.2558
  161loPI   C6A 2572  16.564  18.794   7.204  0.2303  0.0041  0.0209
  161loPI   C1B 2573  16.772  18.635   8.954  0.0285  0.1542  0.1439
  161loPI   C2B 2574  16.800  18.547   8.483  0.0747  0.1715  0.2322
  161loPI   C3B 2575  16.794  18.692   8.114 -0.0180 -0.0809  0.0628
  161loPI   C4B 2576  16.661  18.782   7.743  0.3958 -0.1083  0.1257
  162loPI    C1 2577  18.540   7.250  10.609  0.0105 -0.0256  0.2043
  162loPI    C2 2578  18.296   7.401  10.888 -0.0895 -0.1138  0.1652
  162loPI    C3 2579  18.621   7.194  10.997  0.1131  0.2260  0.2213
  162loPI   PO4 2580  18.273   7.187  10.407 -0.1264 -0.0042  0.1353
  162loPI   GL1 2581  18.143   7.010   9.977 -0.0148 -0.0357  0.4941
  162loPI   GL2 2582  18.348   7.216   9.912  0.0852 -0.1384 -0.0910
  162loPI   C1A 2583  17.856   7.056   9.521  0.1033  0.0041 -0.1155
  162loPI   C2A 2584  17.980   7.096   9.054  0.4073  0.6585  0.3251
  162loPI   C3A 2585  18.048   7.016   8.698  0.0209 -0.0110  0.0242
  162loPI   C4A 2586  18.056   7.018   8.218  0.1094  0.0218 -0.0053
  162loPI   C5A 2587  18.086   7.115   7.818  0.1253 -0.3913  0.1434
  162loPI   C6A 2588  18.192   6.903   7.469  0.2368 -0.0178  0.0513
  162loPI   C1B 2589  18.357   7.175   9.364 -0.0434 -0.1610 -0.0871
  162loPI   C2B 2590  18.474   7.053   8.931  0.1842 -0.1763 -0.0803
  162loPI   C3B 2591  18.591   7.103   8.485  0.0834  0.0252 -0.0481
  162loPI   C4B 2592  18.564   7.086   8.040  0.3652 -0.1616 -0.2511
  163loPI    C1 2593  11.150   6.610  10.465  0.1696 -0.2545 -0.1169
  163loPI    C2 2594  11.377   6.833  10.709 -0.2074 -0.2201  0.2126
  163loPI    C3 2595  11.471   6.450  10.642  0.2121 -0.0803 -0.0340
  163loPI   PO4 2596  11.135   6.682  10.250  0.0613 -0.2835  0.0098
  163loPI   GL1 2597  11.105   6.768   9.857 -0.1552  0.2376  0.2265
  163loPI   GL2 2598  10.910   6.486   9.709  0.2336  0.0896  0.1832
  163loPI   C1A 2599  11.255   6.782   9.490  0.0752  0.1886 -0.4311
  163loPI   C2A 2600  11.126   6.810   9.081 -0.0244 -0.2544 -0.0065
  163loPI   C3A 2601  11.035   6.866   8.578 -0.1585 -0.1418  0.0178
  163loPI   C4A 2602  11.168   6.950   8.203 -0.0776  0.1185  0.1098
  163loPI   C5A 2603  11.172   6.981   7.723 -0.0026  0.0134 -0.3290
  163loPI   C6A 2604  11.063   6.838   7.430 -0.2016  0.2125 -0.1326
  163loPI   C1B 2605  10.827   6.439   9.297  0.2301 -0.1035  0.0505
  163loPI   C2B 2606  10.900   6.452   8.826  0.2163  0.0401 -0.1586
  163loPI   C3B 2607  10.855   6.521   8.318  0.2732  0.2877  0.0167
  163loPI   C4B 2608  11.184   6.457   7.988  0.0572 -0.1260  0.1071
  164loPI    C1 2609  15.072   8.923  10.354 -0.2126  0.0990 -0.2240
  164loPI    C2 2610  15.091   8.658  10.653  0.0048  0.3977  0.0342
  164loPI    C3 2611  14.737   8.805  10.537 -0.0887  0.2151  0.0851
  164loPI   PO4 2612  15.196   8.826  10.131 -0.2011 -0.0282  0.0791
  164loPI   GL1 2613  15.367   8.482   9.900  0.1432 -0.0747  0.0842
  164loPI   GL2 2614  15.002   8.471   9.813  0.2790 -0.0196 -0.1357
  164loPI   C1A 2615  15.435   8.645   9.504  0.0217 -0.1081 -0.0236
  164loPI   C2A 2616  15.555   8.647   8.991 -0.1849 -0.1042 -0.0279
  164loPI   C3A 2617  15.664   8.686   8.577  0.0234 -0.2914 -0.2755
  164loPI   C4A 2618  15.928   8.801   8.233  0.0010  0.0472 -0.1921
  164loPI   C5A 2619  16.258   8.684   7.947 -0.0367 -0.3740 -0.1669
  164loPI   C6A 2620  16.560   8.345   7.814  0.3815  0.0047  0.1990
  164loPI   C1B 2621  15.045   8.338   9.410  0.0466  0.0499  0.0201
  164loPI   C2B 2622  14.824   8.300   9.054 -0.1139 -0.2267 -0.0670
  164loPI   C3B 2623  14.858   8.194   8.678 -0.0587 -0.1191  0.1176
  164loPI   C4B 2624  14.737   8.284   8.292 -0.0720 -0.0700  0.3513
  165loPI    C1 2625  13.497  11.637   9.998 -0.1083  0.0708 -0.1701
  165loPI    C2 2626  13.643  11.984   9.862  0.0640  0.0229 -0.1097
  165loPI    C3 2627  13.798  11.816  10.191 -0.0511 -0.0873 -0.1108
  165loPI   PO4 2628  13.495  11.531   9.777 -0.0335 -0.1023 -0.1114
  165loPI   GL1 2629  13.382  11.313   9.452 -0.1077 -0.0410  0.0981
  165loPI   GL2 2630  13.173  11.139   9.488 -0.0059 -0.2394  0.0133
  165loPI   C1A 2631  13.401  11.238   8.984  0.2369 -0.0453 -0.0567
  165loPI   C2A 2632  13.638  11.102   8.596 -0.5778 -0.0827  0.1163
  165loPI   C3A 2633  13.734  11.001   8.140 -0.1295 -0.1176 -0.2137
  165loPI   C4A 2634  13.896  10.722   7.975  0.0829  0.1357 -0.1052
  165loPI   C5A 2635  13.985  10.505   7.664 -0.4078 -0.2703  0.0873
  165loPI   C6A 2636  13.968  10.095   7.594 -0.1468 -0.0075 -0.2406
  165loPI   C1B 2637  12.865  11.136   9.048  0.0020 -0.1669 -0.1018
  165loPI   C2B 2638  12.965  11.144   8.555  0.0313 -0.0104 -0.1955
  165loPI   C3B 2639  13.244  11.005   8.210  0.0751  0.3169  0.2078
  165loPI   C4B 2640  13.349  10.652   8.016  0.2706 -0.2140  0.0411
  166loPI    C1 2641  14.720  11.078  10.279 -0.0265 -0.0018  0.0246
  166loPI    C2 2642  14.410  11.169  10.515  0.0389  0.0741  0.0814
  166loPI    C3 2643  14.777  11.138  10.670  0.0326 -0.1932  0.0463
  166loPI   PO4 2644  14.811  11.154  10.068  0.0196 -0.2029 -0.0043
  166loPI   GL1 2645  14.938  10.784   9.785  0.2856 -0.0756 -0.3866
  166loPI   GL2 2646  14.710  10.752   9.775 -0.1531 -0.0579  0.1622
  166loPI   C1A 2647  14.967  10.894   9.360  0.0179  0.0065  0.1301
  166loPI   C2A 2648  14.807  10.988   8.995 -0.2654 -0.0887  0.1791
  166loPI   C3A 2649  14.959  10.958   8.671  0.2674 -0.1053 -0.0300
  166loPI   C4A 2650  14.966  10.931   8.195 -0.2041  0.0190 -0.2919
  166loPI   C5A 2651  14.669  11.172   7.892 -0.2690  0.0936 -0.4167
  166loPI   C6A 2652  14.411  11.291   7.553  0.0784 -0.4506 -0.3705
  166loPI   C1B 2653  14.581  10.532   9.402  0.0370  0.0935 -0.2035
  166loPI   C2B 2654  14.673  10.453   9.023 -0.2720  0.2537  0.1295
  166loPI   C3B 2655  14.920  10.427   8.695  0.0540 -0.0304  0.2416
  166loPI   C4B 2656  15.280  10.501   8.367  0.1699  0.0222  0.1498
  167loPI    C1 2657   6.090   2.934   9.959  0.1520  0.1768  0.2833
  167loPI    C2 2658   6.040   2.548  10.049  0.0532  0.0771 -0.1762
  167loPI    C3 2659   5.767   2.817  10.164 -0.0236 -0.0317 -0.1013
  167loPI   PO4 2660   6.350   2.968   9.850 -0.0729 -0.2094  0.2060
  167loPI   GL1 2661   6.448   3.122   9.555 -0.1975 -0.2261  0.1604
  167loPI   GL2 2662   6.453   2.812   9.354 -0.0552  0.0950  0.1504
  167loPI   C1A 2663   6.408   3.222   9.079 -0.1335  0.0650  0.2349
  167loPI   C2A 2664   6.384   3.330   8.663 -0.2427  0.3383 -0.0664
  167loPI   C3A 2665   6.463   3.334   8.220 -0.1626  0.0360  0.1678
  167loPI   C4A 2666   6.471   3.197   7.889 -0.1679 -0.0753 -0.0586
  167loPI   C5A 2667   6.270   3.053   7.514 -0.1464  0.0627 -0.0061
  167loPI   C6A 2668   6.117   2.661   7.396 -0.1884 -0.0268  0.0017
  167loPI   C1B 2669   6.486   2.756   8.960  0.0047 -0.1561  0.0508
  167loPI   C2B 2670   6.515   2.714   8.578 -0.0619 -0.2576  0.2460
  167loPI   C3B 2671   6.440   2.850   8.197  0.1225  0.1400  0.0682
  167loPI   C4B 2672   5.995   2.897   7.906  0.0498 -0.0471  0.0472
  168loPI    C1 2673   2.511  17.898  10.307 -0.2467 -0.3026  0.1006
  168loPI    C2 2674   2.714  17.905  10.651 -0.0442  0.0420 -0.0205
  168loPI    C3 2675   2.351  18.073  10.629 -0.0756 -0.0182  0.0353
  168loPI   PO4 2676   2.734  17.770  10.137  0.1440  0.0784  0.0936
  168loPI   GL1 2677   2.845  17.840   9.711 -0.4018 -0.0949  0.1465
  168loPI   GL2 2678   3.068  18.131   9.691  0.0023 -0.1026  0.0105
  168loPI   C1A 2679   2.896  17.598   9.428 -0.3989  0.1889 -0.1466
  168loPI   C2A 2680   2.804  17.497   9.020 -0.2066 -0.0370 -0.0479
  168loPI   C3A 2681   2.745  17.531   8.601 -0.2290  0.2321  0.1960
  168loPI   C4A 2682   2.830  17.562   8.162 -0.0785 -0.1157  0.0196
  168loPI   C5A 2683   2.656  17.483   7.770  0.2435  0.0551 -0.0731
  168loPI   C6A 2684   2.394  17.843   7.566 -0.3529 -0.1025  0.0037
  168loPI   C1B 2685   3.130  18.401   9.418 -0.1406 -0.1099  0.1609
  168loPI   C2B 2686   3.145  18.571   9.029 -0.0355  0.0691 -0.0163
  168loPI   C3B 2687   3.243  18.502   8.488  0.1091  0.0345  0.0411
  168loPI   C4B 2688   3.305  18.146   8.120 -0.1458 -0.1927 -0.2757
  169loPI    C1 2689  13.150   1.209   9.872 -0.1479  0.1239  0.2301
  169loPI    C2 2690  13.414   1.208  10.173  0.0497 -0.0287  0.0590
  169loPI    C3 2691  13.503   1.026   9.827 -0.1116  0.2780 -0.1485
  169loPI   PO4 2692  12.903   1.563   9.733  0.2387  0.2271 -0.1088
  169loPI   GL1 2693  12.890   1.595   9.377 -0.1385  0.0770 -0.1088
  169loPI   GL2 2694  12.879   1.295   9.295  0.1354  0.2535  0.0796
  169loPI   C1A 2695  12.587   1.797   9.120  0.0453  0.0843 -0.2852
  169loPI   C2A 2696  12.551   1.813   8.749 -0.2184 -0.1348 -0.0478
  169loPI   C3A 2697  12.531   1.906   8.309  0.0611  0.1724 -0.2007
  169loPI   C4A 2698  12.313   1.690   7.953  0.0264 -0.2100 -0.1590
  169loPI   C5A 2699  12.258   1.588   7.531 -0.1708 -0.1748 -0.0206
  169loPI   C6A 2700  12.406   1.325   7.275 -0.1319 -0.0266  0.1678
  169loPI   C1B 2701  12.816   1.362   8.938 -0.0218  0.0686  0.1354
  169loPI   C2B 2702  12.747   1.366   8.580  0.0109 -0.3579  0.2250
  169loPI   C3B 2703  12.803   1.333   8.251  0.1176 -0.1409  0.0109
  169loPI   C4B 2704  12.733   1.405   7.833  0.0578  0.3015 -0.0823
  170loPI    C1 2705   3.913   1.631  10.275  0.1437  0.0596 -0.0649
  170loPI    C2 2706   3.689   1.898  10.471  0.1342  0.1092 -0.1429
  170loPI    C3 2707   3.818   1.569  10.658  0.0351  0.1034 -0.0845
  170loPI   PO4 2708   4.033   1.830  10.069  0.1096  0.2396  0.1198
  170loPI   GL1 2709   3.908   1.823   9.652  0.1682 -0.2560 -0.0305
  170loPI   GL2 2710   4.166   1.622   9.574 -0.1232  0.2296  0.1869
  170loPI   C1A 2711   3.814   1.568   9.217  0.0001  0.0291 -0.0371
  170loPI   C2A 2712   3.733   1.827   8.856 -0.2071  0.0404 -0.0176
  170loPI   C3A 2713   3.841   1.598   8.437 -0.4492 -0.1750 -0.3371
  170loPI   C4A 2714   3.931   1.477   8.049  0.2598 -0.0108  0.0904
  170loPI   C5A 2715   3.988   1.708   7.560  0.0435  0.0369 -0.0879
  170loPI   C6A 2716   4.206   2.117   7.388 -0.3792 -0.0887 -0.0588
  170loPI   C1B 2717   4.221   1.850   9.054  0.1063  0.0990 -0.0416
  170loPI   C2B 2718   4.143   2.041   8.588 -0.1689 -0.2431 -0.2706
  170loPI   C3B 2719   3.934   2.022   8.249  0.1609 -0.0157  0.1248
  170loPI   C4B 2720   3.637   1.944   7.907 -0.1266 -0.2212  0.1418
  171loPI    C1 2721   6.024   6.994  10.699 -0.0134 -0.2262  0.0175
  171loPI    C2 2722   5.761   6.892  10.982 -0.0455  0.1309  0.1217
  171loPI    C3 2723   6.134   6.994  11.083 -0.0633  0.2807  0.0385
  171loPI   PO4 2724   6.045   6.775  10.558  0.1854 -0.2325 -0.0893
  171loPI   GL1 2725   5.891   6.918  10.197 -0.0237 -0.1079  0.0309
  171loPI   GL2 2726   5.856   6.569  10.132 -0.3983 -0.0150 -0.1657
  171loPI   C1A 2727   5.860   6.840   9.703  0.0226  0.3118  0.2276
  171loPI   C2A 2728   5.762   6.893   9.344 -0.0639  0.2599 -0.1352
  171loPI   C3A 2729   5.730   6.981   8.921 -0.0085  0.2513  0.0446
  171loPI   C4A 2730   5.680   6.867   8.513  0.2370 -0.1252 -0.2288
  171loPI   C5A 2731   5.543   6.877   8.082  0.3967  0.0195  0.1227
  171loPI   C6A 2732   5.707   6.722   7.647 -0.3080  0.2666 -0.1208
  171loPI   C1B 2733   6.105   6.419   9.735  0.1776 -0.0642 -0.0207
  171loPI   C2B 2734   6.051   6.474   9.390  0.0054  0.1571 -0.0169
  171loPI   C3B 2735   5.987   6.535   8.965 -0.2755 -0.1471 -0.5262
  171loPI   C4B 2736   5.900   6.482   8.559 -0.0910 -0.2124  0.2777
  172loPI    C1 2737  11.697   2.881  10.228  0.2796  0.1458  0.1246
  172loPI    C2 2738  11.735   2.960  10.618 -0.1469  0.2771  0.1446
  172loPI    C3 2739  11.422   2.749  10.486  0.2091 -0.1248 -0.0837
  172loPI   PO4 2740  11.960   2.846  10.131 -0.1127 -0.1875  0.3071
  172loPI   GL1 2741  11.790   2.803   9.572  0.0346  0.0574 -0.1145
  172loPI   GL2 2742  11.534   2.632   9.816 -0.1747  0.0970  0.0964
  172loPI   C1A 2743  11.874   2.523   9.457  0.1769  0.1617  0.0485
  172loPI   C2A 2744  11.716   2.478   9.063 -0.1812  0.1151  0.0400
  172loPI   C3A 2745  11.651   2.365   8.658  0.3424  0.0645  0.0597
  172loPI   C4A 2746  11.413   2.381   8.376 -0.0610 -0.2072 -0.1152
  172loPI   C5A 2747  11.178   2.367   7.904  0.1010  0.3098 -0.0379
  172loPI   C6A 2748  10.814   2.244   7.578  0.2912 -0.0157 -0.3817
  172loPI   C1B 2749  11.386   2.616   9.435  0.3452  0.0966 -0.1262
  172loPI   C2B 2750  11.229   2.676   8.988  0.0926  0.0770  0.0272
  172loPI   C3B 2751  11.030   2.949   8.649 -0.0309  0.2888  0.3777
  172loPI   C4B 2752  10.643   2.854   8.590  0.0633 -0.3218  0.0864
  173loPI    C1 2753  16.551   2.313  10.011  0.0179  0.1163  0.1330
  173loPI    C2 2754  16.862   2.203  10.237  0.0502 -0.1032 -0.0146
  173loPI    C3 2755  16.491   2.187  10.386  0.0797 -0.1552  0.0542
  173loPI   PO4 2756  16.693   2.358   9.764  0.1206  0.4143  0.1753
  173loPI   GL1 2757  16.602   2.544   9.511  0.0648  0.1726  0.0809
  173loPI   GL2 2758  16.934   2.701   9.401  0.4310 -0.2317 -0.0188
  173loPI   C1A 2759  16.499   2.453   9.114 -0.0585  0.0991  0.2575
  173loPI   C2A 2760  16.517   2.062   8.859  0.0574  0.1645  0.1915
  173loPI   C3A 2761  16.623   2.033   8.427  0.0690  0.2742  0.2124
  173loPI   C4A 2762  16.779   1.999   8.083  0.3634 -0.0543 -0.0160
  173loPI   C5A 2763  16.965   2.218   7.653  0.1821  0.2513  0.1547
  173loPI   C6A 2764  16.857   2.599   7.510 -0.3202  0.0347  0.0478
  173loPI   C1B 2765  16.969   2.868   8.910 -0.1877  0.0259 -0.2371
  173loPI   C2B 2766  17.221   3.075   8.550 -0.0248 -0.1676 -0.0841
  173loPI   C3B 2767  17.302   3.034   8.150  0.1162 -0.1471  0.1676
  173loPI   C4B 2768  17.061   2.710   7.914  0.1991  0.0923  0.1155
  174loPI    C1 2769  14.672  12.187  10.199 -0.0975 -0.0404 -0.0704
  174loPI    C2 2770  14.324  12.167  10.396 -0.1077 -0.3599 -0.1151
  174loPI    C3 2771  14.642  12.338  10.568 -0.3154  0.0441 -0.1205
  174loPI   PO4 2772  14.654  12.006  10.081  0.4403  0.0169 -0.0978
  174loPI   GL1 2773  14.599  11.782   9.709 -0.1082 -0.2518  0.0078
  174loPI   GL2 2774  14.862  11.820   9.477  0.2608 -0.1203 -0.0318
  174loPI   C1A 2775  14.333  11.870   9.406 -0.0752 -0.0328  0.0073
  174loPI   C2A 2776  14.355  11.738   8.970  0.2448  0.0126 -0.0839
  174loPI   C3A 2777  14.456  11.725   8.508 -0.0838  0.1475  0.1036
  174loPI   C4A 2778  14.347  11.914   8.032 -0.1893  0.0444  0.1676
  174loPI   C5A 2779  14.731  12.131   7.866  0.0451 -0.1269  0.1100
  174loPI   C6A 2780  15.137  12.298   7.764 -0.3218 -0.1982 -0.0816
  174loPI   C1B 2781  14.822  11.899   9.043 -0.0716  0.0285  0.4921
  174loPI   C2B 2782  14.865  12.006   8.557 -0.1527 -0.5611 -0.3145
  174loPI   C3B 2783  15.103  12.080   8.208 -0.1017 -0.0426  0.2174
  174loPI   C4B 2784  15.354  11.828   7.893  0.2032  0.0130 -0.1883
  175loPI    C1 2785   5.158   5.422  10.500  0.2412 -0.0564 -0.0469
  175loPI    C2 2786   5.117   5.773  10.687  0.1320 -0.0661 -0.0520
  175loPI    C3 2787   5.047   5.433  10.884 -0.0366 -0.0746 -0.1243
  175loPI   PO4 2788   5.132   5.503  10.217  0.0043  0.1541 -0.0640
  175loPI   GL1 2789   5.273   5.402   9.819 -0.1560  0.0115 -0.0459
  175loPI   GL2 2790   5.116   5.720   9.792 -0.2550  0.2600  0.0597
  175loPI   C1A 2791   5.439   5.520   9.304 -0.0383  0.1073 -0.1372
  175loPI   C2A 2792   5.513   5.644   9.047  0.1628 -0.1047 -0.0424
  175loPI   C3A 2793   5.478   5.643   8.682  0.0746 -0.5132  0.3528
  175loPI   C4A 2794   5.447   5.586   8.314 -0.2728  0.1362 -0.0164
  175loPI   C5A 2795   5.256   5.573   7.980  0.0717 -0.0179  0.1010
  175loPI   C6A 2796   5.461   5.207   7.831  0.0962  0.0151  0.1532
  175loPI   C1B 2797   5.326   5.989   9.453  0.0415  0.0480  0.1384
  175loPI   C2B 2798   5.202   6.090   9.036  0.3079  0.3279  0.1985
  175loPI   C3B 2799   4.993   6.013   8.680 -0.1732  0.0487 -0.3792
  175loPI   C4B 2800   4.613   6.046   8.556 -0.2720 -0.2623  0.0450
  176loPI    C1 2801   8.157  18.049   9.965  0.0853 -0.1098  0.1705
  176loPI    C2 2802   7.934  18.352   9.830  0.2323 -0.1106 -0.0811
  176loPI    C3 2803   8.162  18.400  10.156 -0.0026 -0.0583  0.0784
  176loPI   PO4 2804   8.325  18.010   9.815 -0.0912 -0.1685 -0.2331
  176loPI   GL1 2805   8.365  18.119   9.281 -0.1878 -0.0800 -0.0435
  176loPI   GL2 2806   8.118  18.305   9.416  0.0299  0.1818 -0.1403
  176loPI   C1A 2807   8.328  18.029   8.810  0.0718 -0.3718 -0.4104
  176loPI   C2A 2808   8.301  17.972   8.507 -0.0780 -0.0221 -0.0761
  176loPI   C3A 2809   8.460  17.938   8.160 -0.2205 -0.0251  0.0783
  176loPI   C4A 2810   8.535  17.953   7.723 -0.0108 -0.2668 -0.2066
  176loPI   C5A 2811   8.234  17.941   7.426  0.3018  0.0329 -0.1181
  176loPI   C6A 2812   7.927  17.580   7.345 -0.0072 -0.0950  0.2834
  176loPI   C1B 2813   7.948  18.328   8.870  0.1080 -0.0386  0.2173
  176loPI   C2B 2814   7.901  18.286   8.375 -0.0772 -0.0728  0.0885
  176loPI   C3B 2815   7.708  18.169   7.823  0.0979 -0.0423 -0.1035
  176loPI   C4B 2816   7.760  18.424   7.492 -0.0986  0.2005  0.1806
  177loPI    C1 2817   2.038  17.774  10.035 -0.1959 -0.0092  0.0627
  177loPI    C2 2818   2.036  17.710  10.430  0.0401  0.0869  0.0809
  177loPI    C3 2819   1.894  18.054  10.283  0.1930  0.1605  0.1035
  177loPI   PO4 2820   2.268  17.757   9.898  0.0148  0.0122 -0.1710
  177loPI   GL1 2821   2.381  17.933   9.560  0.1670 -0.0019  0.0185
  177loPI   GL2 2822   2.446  18.195   9.614  0.2207  0.2257 -0.1210
  177loPI   C1A 2823   2.144  18.126   9.156  0.3447 -0.1809  0.0242
  177loPI   C2A 2824   2.278  18.296   8.851  0.0344 -0.1158  0.0114
  177loPI   C3A 2825   2.109  18.270   8.400  0.0737 -0.0717  0.0872
  177loPI   C4A 2826   1.873  18.160   8.104  0.1240 -0.0177  0.1813
  177loPI   C5A 2827   1.634  18.168   7.720  0.0192 -0.1826 -0.0368
  177loPI   C6A 2828   1.430  17.913   7.730 -0.2045 -0.1567 -0.0594
  177loPI   C1B 2829   2.713  18.155   9.256  0.2113 -0.1682 -0.1526
  177loPI   C2B 2830   2.416  17.866   8.907 -0.2826  0.1065 -0.0094
  177loPI   C3B 2831   2.413  17.902   8.521 -0.0416 -0.1601  0.0176
  177loPI   C4B 2832   2.459  17.874   8.156  0.1259  0.1000  0.0304
  178loPI    C1 2833  14.631  10.617  10.513 -0.1600  0.0319  0.0486
  178loPI    C2 2834  14.671  10.300  10.754 -0.2784  0.0103  0.0402
  178loPI    C3 2835  14.846  10.647  10.850 -0.1562 -0.0545  0.0540
  178loPI   PO4 2836  14.712  10.570  10.226 -0.1012 -0.1245 -0.0477
  178loPI   GL1 2837  14.844  10.262   9.957  0.0952  0.0930 -0.0780
  178loPI   GL2 2838  15.252  10.439   9.927  0.0255 -0.2369  0.5183
  178loPI   C1A 2839  14.973  10.319   9.472  0.0919  0.1836 -0.1242
  178loPI   C2A 2840  15.031  10.075   9.003 -0.0247 -0.0626 -0.2740
  178loPI   C3A 2841  14.849   9.976   8.475 -0.2053  0.1180  0.4884
  178loPI   C4A 2842  15.041   9.996   8.092  0.1302 -0.1768  0.3421
  178loPI   C5A 2843  15.191  10.383   7.913  0.0570 -0.0593  0.1929
  178loPI   C6A 2844  15.371  10.748   7.937  0.5240  0.2245  0.0978
  178loPI   C1B 2845  15.395  10.578   9.526  0.2354  0.0955 -0.1465
  178loPI   C2B 2846  15.251  10.516   9.105  0.0036 -0.2801  0.0950
  178loPI   C3B 2847  15.570  10.531   8.764  0.0052 -0.4245 -0.1547
  178loPI   C4B 2848  15.799  10.425   8.394 -0.2342 -0.2295  0.0817
  179loPI    C1 2849   6.695   8.694  10.834  0.1725 -0.0675  0.0135
  179loPI    C2 2850   6.690   8.295  10.812  0.2671 -0.0773  0.1586
  179loPI    C3 2851   6.558   8.478  11.141 -0.1906  0.0292 -0.0754
  179loPI   PO4 2852   6.610   8.743  10.622 -0.1099  0.0284 -0.1106
  179loPI   GL1 2853   6.653   8.652  10.285  0.1667 -0.0950  0.1818
  179loPI   GL2 2854   6.701   8.901  10.078  0.2204  0.1132  0.2757
  179loPI   C1A 2855   6.748   8.362   9.946  0.3352  0.2972 -0.0261
  179loPI   C2A 2856   6.688   8.254   9.435 -0.2923  0.3419 -0.0131
  179loPI   C3A 2857   6.674   8.212   8.966 -0.1582 -0.3600 -0.0471
  179loPI   C4A 2858   6.496   8.172   8.504 -0.4254 -0.0806 -0.0775
  179loPI   C5A 2859   6.399   8.152   8.077 -0.2744  0.0170 -0.0405
  179loPI   C6A 2860   6.395   8.356   7.774 -0.0341 -0.1866  0.0686
  179loPI   C1B 2861   6.613   9.116   9.712  0.3007  0.3690 -0.0968
  179loPI   C2B 2862   6.708   9.028   9.338 -0.2546 -0.0518  0.2765
  179loPI   C3B 2863   6.678   9.109   8.884  0.1749 -0.1366 -0.0581
  179loPI   C4B 2864   6.737   9.152   8.474 -0.0016 -0.1245 -0.0571
  180loPI    C1 2865  10.523   0.125  10.078  0.1613  0.0666  0.1384
  180loPI    C2 2866  10.520   0.501  10.215  0.1470  0.0481  0.1890
  180loPI    C3 2867  10.840   0.268  10.274  0.1943  0.0829  0.0739
  180loPI   PO4 2868  10.406   0.151   9.818  0.0679 -0.0593 -0.1200
  180loPI   GL1 2869  10.426   0.151   9.447  0.0684  0.0865 -0.1707
  180loPI   GL2 2870  10.575  -0.018   9.239  0.0584  0.1769 -0.0683
  180loPI   C1A 2871  10.405   0.432   9.135  0.0740 -0.0806  0.2368
  180loPI   C2A 2872  10.326   0.446   8.677 -0.0748  0.0761 -0.0420
  180loPI   C3A 2873  10.300   0.476   8.274 -0.0080 -0.1060  0.1189
  180loPI   C4A 2874  10.287   0.279   7.889 -0.2906 -0.2322  0.1906
  180loPI   C5A 2875  10.098  -0.049   7.555  0.0433 -0.1741 -0.1572
  180loPI   C6A 2876  10.314  -0.530   7.500  0.3074 -0.0849  0.2813
  180loPI   C1B 2877  10.613   0.097   8.861 -0.0463  0.0801 -0.0983
  180loPI   C2B 2878  10.718   0.104   8.470 -0.0612  0.0937 -0.1830
  180loPI   C3B 2879  10.686   0.061   8.088  0.1134  0.2141  0.4142
  180loPI   C4B 2880  10.622  -0.041   7.685 -0.0991  0.0491 -0.0100
  181loPI    C1 2881  10.996   7.199  10.173 -0.0894 -0.2361  0.2670
  181loPI    C2 2882  11.325   7.280  10.385  0.0155  0.3113 -0.0844
  181loPI    C3 2883  10.977   7.450  10.484 -0.0610  0.1110 -0.0049
  181loPI   PO4 2884  11.060   7.234   9.920 -0.4724 -0.2286  0.0887
  181loPI   GL1 2885  10.825   7.106   9.603  0.3969  0.0237 -0.0438
  181loPI   GL2 2886  10.590   6.854   9.445 -0.0986  0.1160  0.3787
  181loPI   C1A 2887  10.849   7.238   9.216 -0.2258  0.0669 -0.2253
  181loPI   C2A 2888  10.854   7.272   8.783 -0.0316  0.0695 -0.2671
  181loPI   C3A 2889  10.755   7.263   8.324  0.0421  0.3967  0.1649
  181loPI   C4A 2890  10.706   7.288   7.870  0.1479 -0.1526  0.2828
  181loPI   C5A 2891  10.893   7.608   7.677 -0.1028  0.1371 -0.1651
  181loPI   C6A 2892  11.061   7.620   7.240 -0.2076 -0.3269 -0.0022
  181loPI   C1B 2893  10.621   6.829   8.963 -0.0509  0.0743  0.0808
  181loPI   C2B 2894  10.527   6.875   8.509 -0.0303  0.3051  0.1470
  181loPI   C3B 2895  10.448   6.947   8.126 -0.2507  0.2130 -0.1828
  181loPI   C4B 2896  10.752   6.800   7.930  0.0329  0.1652 -0.2239
  182loPI    C1 2897   4.228  17.256   9.853  0.0243  0.0706  0.0196
  182loPI    C2 2898   4.349  17.605  10.007  0.0781  0.1343 -0.1640
  182loPI    C3 2899   4.013  17.433  10.140  0.1394  0.1727  0.0439
  182loPI   PO4 2900   4.498  17.136   9.824 -0.1018 -0.1676 -0.1019
  182loPI   GL1 2901   4.653  16.858   9.594 -0.0864  0.0737 -0.0116
  182loPI   GL2 2902   4.933  16.897   9.639 -0.1402  0.0255 -0.1054
  182loPI   C1A 2903   4.563  17.064   9.206 -0.1295  0.0155  0.0889
  182loPI   C2A 2904   4.485  17.078   8.826  0.1887 -0.0224 -0.3306
  182loPI   C3A 2905   4.399  17.083   8.352 -0.2382 -0.0782 -0.1314
  182loPI   C4A 2906   4.283  17.154   7.952 -0.1289 -0.1384 -0.0372
  182loPI   C5A 2907   4.478  17.153   7.553  0.1773 -0.0148  0.1621
  182loPI   C6A 2908   4.781  17.281   7.250 -0.1360 -0.2218 -0.2299
  182loPI   C1B 2909   5.064  16.976   9.262 -0.1595  0.3120  0.1438
  182loPI   C2B 2910   5.007  17.045   8.827  0.0989 -0.1992  0.0211
  182loPI   C3B 2911   4.952  16.917   8.366  0.0294 -0.2403 -0.1165
  182loPI   C4B 2912   4.833  17.050   7.987  0.0378 -0.0077  0.1301
  183loPI    C1 2913   4.211   5.341  10.550  0.1430 -0.0097  0.2832
  183loPI    C2 2914   4.051   5.034  10.751  0.2006 -0.1684  0.0896
  183loPI    C3 2915   4.255   5.317  10.946 -0.0275 -0.1434  0.2953
  183loPI   PO4 2916   4.062   5.325  10.350  0.0183  0.1121  0.1701
  183loPI   GL1 2917   4.066   5.566  10.010  0.0502 -0.1954  0.0446
  183loPI   GL2 2918   3.817   5.649   9.887  0.1390 -0.1270 -0.1840
  183loPI   C1A 2919   4.348   5.740   9.727  0.1543  0.0795 -0.2042
  183loPI   C2A 2920   4.392   5.660   9.319  0.0951 -0.1160  0.4912
  183loPI   C3A 2921   4.456   5.684   8.801  0.4754  0.1584 -0.2350
  183loPI   C4A 2922   4.362   5.583   8.424 -0.0355  0.2326  0.2879
  183loPI   C5A 2923   4.099   5.430   8.070  0.1237  0.1136 -0.0549
  183loPI   C6A 2924   3.901   5.086   7.833 -0.1323  0.0531  0.1246
  183loPI   C1B 2925   3.886   5.685   9.433  0.0359  0.0032  0.1265
  183loPI   C2B 2926   3.811   5.708   8.966  0.0421  0.1075  0.2509
  183loPI   C3B 2927   3.843   5.638   8.473  0.2963  0.1979 -0.1865
  183loPI   C4B 2928   3.689   5.753   8.104 -0.2006 -0.0441  0.1018
  184loPI    C1 2929   6.816   5.222  10.452 -0.2865 -0.1498 -0.2616
  184loPI    C2 2930   6.656   5.578  10.540 -0.2959 -0.2105 -0.0276
  184loPI    C3 2931   6.430   5.248  10.552 -0.2861 -0.2260 -0.2394
  184loPI   PO4 2932   6.918   5.208  10.244 -0.0042 -0.0430 -0.0141
  184loPI   GL1 2933   7.060   5.331   9.893 -0.4322  0.2521  0.1933
  184loPI   GL2 2934   7.435   5.375   9.867  0.1870 -0.0898  0.0215
  184loPI   C1A 2935   7.046   5.424   9.416  0.0676  0.0423  0.0424
  184loPI   C2A 2936   7.093   5.564   9.030 -0.1100  0.2805  0.0997
  184loPI   C3A 2937   7.088   5.434   8.694  0.1423 -0.0252  0.0298
  184loPI   C4A 2938   7.148   5.429   8.229  0.3453 -0.0819  0.0094
  184loPI   C5A 2939   7.252   5.559   7.796 -0.0694 -0.0758  0.0556
  184loPI   C6A 2940   7.426   5.262   7.566  0.0587 -0.1694  0.0652
  184loPI   C1B 2941   7.554   5.292   9.539 -0.0184 -0.2561  0.3104
  184loPI   C2B 2942   7.517   5.360   9.113 -0.2087 -0.1380  0.1039
  184loPI   C3B 2943   7.632   5.485   8.712 -0.2152 -0.1863 -0.2638
  184loPI   C4B 2944   7.610   5.595   8.215 -0.1434 -0.1541  0.2445
  185loPI    C1 2945  13.293   0.529   9.800 -0.2433 -0.0624 -0.2744
  185loPI    C2 2946  13.122   0.169   9.776 -0.0304 -0.1714 -0.1865
  185loPI    C3 2947  13.225   0.318  10.133 -0.0520 -0.0546 -0.2287
  185loPI   PO4 2948  13.399   0.569   9.562  0.2283  0.4317  0.0806
  185loPI   GL1 2949  13.116   0.890   9.411 -0.1340 -0.0353 -0.0747
  185loPI   GL2 2950  12.826   0.743   9.456  0.2029  0.2137 -0.1916
  185loPI   C1A 2951  13.032   0.855   8.960 -0.1676 -0.1050 -0.0568
  185loPI   C2A 2952  13.111   0.994   8.614 -0.0585 -0.1558  0.0720
  185loPI   C3A 2953  13.075   0.880   8.179 -0.0514  0.0023  0.1402
  185loPI   C4A 2954  13.056   0.910   7.725 -0.0650 -0.1817 -0.5323
  185loPI   C5A 2955  12.770   1.039   7.469  0.0992 -0.1257 -0.2465
  185loPI   C6A 2956  12.719   1.025   7.055 -0.1578  0.2137 -0.0290
  185loPI   C1B 2957  12.589   0.865   9.219 -0.2374  0.2903 -0.1936
  185loPI   C2B 2958  12.537   0.945   8.816 -0.1021  0.0664  0.1326
  185loPI   C3B 2959  12.530   0.915   8.407 -0.3369  0.1243  0.2949
  185loPI   C4B 2960  12.569   0.897   8.008 -0.1425  0.0482 -0.1525
  186loPI    C1 2961   4.962  16.029  10.178  0.0546 -0.1679 -0.5700
  186loPI    C2 2962   5.301  16.144  10.000  0.1710 -0.0579 -0.2832
  186loPI    C3 2963   5.306  16.021  10.381 -0.1358  0.1023 -0.2233
  186loPI   PO4 2964   4.789  15.983  10.014  0.3250  0.2825  0.3763
  186loPI   GL1 2965   4.702  15.882   9.593 -0.3408 -0.2801  0.0509
  186loPI   GL2 2966   5.108  15.950   9.625 -0.0505 -0.0139  0.1848
  186loPI   C1A 2967   4.834  15.736   9.195  0.1606 -0.2038 -0.1604
  186loPI   C2A 2968   4.888  15.700   8.738  0.0439 -0.1682  0.3825
  186loPI   C3A 2969   4.879  15.520   8.357 -0.0552 -0.1559 -0.1099
  186loPI   C4A 2970   4.984  15.213   8.044  0.1012  0.1442  0.2745
  186loPI   C5A 2971   5.250  15.056   7.585 -0.0060 -0.1275 -0.1529
  186loPI   C6A 2972   5.477  15.211   7.348  0.0567 -0.3751 -0.1010
  186loPI   C1B 2973   5.137  16.080   9.132 -0.0528  0.0511 -0.2477
  186loPI   C2B 2974   5.061  16.216   8.794 -0.1412  0.1597 -0.1496
  186loPI   C3B 2975   4.958  16.435   8.444  0.2410 -0.0482  0.1288
  186loPI   C4B 2976   5.092  16.498   8.033 -0.0342  0.0004  0.1725
  187loPI    C1 2977   1.023  13.229  10.183  0.2136 -0.0586 -0.0456
  187loPI    C2 2978   1.112  13.081  10.543  0.1118 -0.2156 -0.0841
  187loPI    C3 2979   0.937  13.439  10.512  0.0992 -0.2120  0.0234
  187loPI   PO4 2980   1.229  13.075  10.031  0.2207 -0.2344  0.2924
  187loPI   GL1 2981   1.549  13.112   9.781  0.0968  0.0774 -0.1485
  187loPI   GL2 2982   1.810  13.251   9.611  0.0250 -0.2323 -0.0595
  187loPI   C1A 2983   1.290  12.723   9.357  0.1898  0.0447 -0.2509
  187loPI   C2A 2984   1.338  12.541   8.953 -0.1533 -0.3609 -0.0605
  187loPI   C3A 2985   1.405  12.553   8.587  0.0967  0.0592  0.0207
  187loPI   C4A 2986   1.405  12.446   8.198 -0.0395 -0.0361  0.1388
  187loPI   C5A 2987   1.250  12.138   8.079  0.1841  0.1948  0.1019
  187loPI   C6A 2988   1.031  11.713   8.060  0.1407  0.1170 -0.3033
  187loPI   C1B 2989   1.952  13.236   9.209  0.2915  0.0307 -0.1671
  187loPI   C2B 2990   1.820  13.413   8.795  0.2417  0.0899  0.0111
  187loPI   C3B 2991   1.859  13.681   8.476 -0.1168  0.1546  0.0058
  187loPI   C4B 2992   2.140  13.754   8.158 -0.0931 -0.0969  0.0942
  188loPI    C1 2993   0.424   5.519  10.671 -0.1072  0.0640  0.0469
  188loPI    C2 2994   0.059   5.511  10.832 -0.1907 -0.1235 -0.1469
  188loPI    C3 2995   0.379   5.433  11.059 -0.2783 -0.0575  0.0010
  188loPI   PO4 2996   0.468   5.688  10.439 -0.1756  0.0950 -0.1280
  188loPI   GL1 2997   0.416   5.558  10.036  0.1671 -0.3026  0.1196
  188loPI   GL2 2998   0.255   5.812   9.953  0.1062 -0.1181  0.2130
  188loPI   C1A 2999   0.710   5.662   9.764  0.0169 -0.2901 -0.3183
  188loPI   C2A 3000   0.742   5.703   9.323 -0.0411  0.0284 -0.0071
  188loPI   C3A 3001   0.720   5.746   8.929 -0.0299 -0.0121  0.0308
  188loPI   C4A 3002   0.667   5.714   8.466  0.0970 -0.2739 -0.2094
  188loPI   C5A 3003   0.864   5.664   8.097 -0.0566 -0.1153  0.1815
  188loPI   C6A 3004   0.830   5.457   7.777 -0.0401 -0.1131 -0.0225
  188loPI   C1B 3005   0.365   5.993   9.499 -0.4205 -0.1909  0.0704
  188loPI   C2B 3006   0.381   6.070   9.044 -0.0413 -0.0099 -0.0810
  188loPI   C3B 3007   0.472   6.148   8.647  0.4751  0.1447 -0.1606
  188loPI   C4B 3008   0.440   6.232   8.263  0.0580  0.0019  0.1203
  189loPI    C1 3009   6.805  13.678  10.547  0.0091 -0.0745 -0.0281
  189loPI    C2 3010   7.036  13.962  10.706 -0.0487  0.0479 -0.1603
  189loPI    C3 3011   7.176  13.590  10.667  0.0526  0.0738 -0.0513
  189loPI   PO4 3012   6.703  13.858  10.301 -0.0749 -0.3525  0.0412
  189loPI   GL1 3013   6.811  13.891   9.888 -0.2218 -0.1017  0.5291
  189loPI   GL2 3014   6.603  14.232   9.957 -0.4258  0.1110 -0.1010
  189loPI   C1A 3015   6.783  13.736   9.489 -0.0768 -0.2752  0.4502
  189loPI   C2A 3016   6.658  13.768   9.122 -0.3138  0.3041 -0.1021
  189loPI   C3A 3017   6.662  13.658   8.663  0.0631 -0.0931  0.0572
  189loPI   C4A 3018   6.783  13.543   8.294  0.0073  0.3514 -0.1155
  189loPI   C5A 3019   6.870  13.641   7.916  0.2090  0.1244 -0.1766
  189loPI   C6A 3020   6.969  13.662   7.432 -0.1704 -0.0048  0.1883
  189loPI   C1B 3021   6.648  14.188   9.521 -0.1878  0.2357 -0.3154
  189loPI   C2B 3022   6.886  14.218   9.099 -0.0880  0.0008 -0.3974
  189loPI   C3B 3023   6.784  14.080   8.730  0.1530  0.0181 -0.4122
  189loPI   C4B 3024   6.888  14.008   8.418  0.4961 -0.2170  0.0189
  190loPI    C1 3025   0.976  11.243  10.419 -0.0759 -0.1997  0.1414
  190loPI    C2 3026   0.766  11.318  10.751  0.1374  0.0923  0.2141
  190loPI    C3 3027   1.147  11.199  10.778  0.0698 -0.1620  0.0774
  190loPI   PO4 3028   1.012  11.474  10.240 -0.0455 -0.5507  0.1160
  190loPI   GL1 3029   1.234  11.712   9.950 -0.0515 -0.0402  0.3428
  190loPI   GL2 3030   1.334  11.940  10.003 -0.0372  0.2314 -0.0741
  190loPI   C1A 3031   1.125  11.672   9.552 -0.1400  0.0508  0.0521
  190loPI   C2A 3032   1.122  11.536   9.119  0.2681 -0.0395 -0.2499
  190loPI   C3A 3033   1.171  11.537   8.703  0.0448 -0.0868 -0.0590
  190loPI   C4A 3034   1.350  11.447   8.322 -0.1034 -0.0499 -0.2395
  190loPI   C5A 3035   1.577  11.618   7.968  0.0488 -0.1825 -0.2405
  190loPI   C6A 3036   1.332  11.880   7.601  0.1616  0.1325  0.1975
  190loPI   C1B 3037   1.562  12.164   9.595 -0.0459  0.1388 -0.0376
  190loPI   C2B 3038   1.735  12.281   9.160 -0.3401  0.0793  0.2448
  190loPI   C3B 3039   1.828  12.279   8.686 -0.0906  0.0768  0.0145
  190loPI   C4B 3040   1.917  12.391   8.169 -0.2352  0.1099 -0.0321
  191loPI    C1 3041   9.730   5.592  10.394 -0.0333 -0.0874  0.1520
  191loPI    C2 3042  10.041   5.797  10.540  0.0240 -0.1025  0.0527
  191loPI    C3 3043  10.097   5.432  10.386 -0.0323 -0.0783 -0.0257
  191loPI   PO4 3044   9.664   5.756  10.201  0.0715 -0.0202 -0.1444
  191loPI   GL1 3045   9.607   5.954   9.843 -0.2342 -0.1227 -0.0282
  191loPI   GL2 3046   9.711   6.337   9.766  0.0362 -0.0043  0.0893
  191loPI   C1A 3047   9.490   5.909   9.452  0.0032 -0.1036 -0.0715
  191loPI   C2A 3048   9.524   5.953   9.038  0.1283 -0.0367  0.0252
  191loPI   C3A 3049   9.601   5.798   8.573  0.0992 -0.1845  0.0219
  191loPI   C4A 3050   9.264   5.855   8.183 -0.0595 -0.0631  0.0301
  191loPI   C5A 3051   9.045   5.931   7.857 -0.0855 -0.0556  0.3877
  191loPI   C6A 3052   8.908   5.895   7.417  0.0142 -0.2637  0.1334
  191loPI   C1B 3053   9.866   6.276   9.290  0.0873 -0.2080 -0.2197
  191loPI   C2B 3054   9.880   6.214   8.822  0.1512  0.0963  0.0373
  191loPI   C3B 3055   9.842   6.206   8.403 -0.1752  0.2780 -0.3581
  191loPI   C4B 3056   9.911   6.350   7.917  0.3615  0.0254  0.0251
  192loPI    C1 3057   6.428  17.079  10.428  0.0203 -0.0601  0.0547
  192loPI    C2 3058   6.517  16.726  10.594 -0.3631 -0.2900 -0.2126
  192loPI    C3 3059   6.296  16.991  10.796  0.0535 -0.1322  0.0494
  192loPI   PO4 3060   6.374  17.074  10.273 -0.0834  0.2221 -0.1699
  192loPI   GL1 3061   6.472  17.034   9.809  0.1839  0.1970 -0.1975
  192loPI   GL2 3062   6.487  17.332   9.773  0.1211  0.0497 -0.0379
  192loPI   C1A 3063   6.449  16.994   9.362 -0.1927 -0.1271 -0.2529
  192loPI   C2A 3064   6.530  17.050   8.963  0.0221  0.1931 -0.0494
  192loPI   C3A 3065   6.420  16.958   8.610  0.1457 -0.0041  0.0348
  192loPI   C4A 3066   6.578  17.083   8.231 -0.0695  0.2087  0.0735
  192loPI   C5A 3067   6.724  17.252   7.940 -0.1164  0.0299 -0.0349
  192loPI   C6A 3068   6.913  17.204   7.453  0.2531  0.1406  0.3289
  192loPI   C1B 3069   6.539  17.461   9.364 -0.2730  0.0288  0.1581
  192loPI   C2B 3070   6.428  17.776   9.020 -0.0627 -0.3404 -0.0561
  192loPI   C3B 3071   6.536  17.928   8.586  0.2064 -0.1311 -0.0781
  192loPI   C4B 3072   6.383  18.207   8.253  0.0744  0.1070  0.2618
  193loPI    C1 3073  13.144   7.686  10.396  0.0678 -0.2386 -0.1188
  193loPI    C2 3074  13.162   7.289  10.433 -0.1059 -0.2420 -0.0640
  193loPI    C3 3075  12.820   7.464  10.322 -0.0397 -0.1054 -0.0540
  193loPI   PO4 3076  13.325   7.692  10.211 -0.2296 -0.0481 -0.0346
  193loPI   GL1 3077  13.377   7.905   9.828  0.1105  0.1369 -0.1891
  193loPI   GL2 3078  13.535   7.729   9.704  0.2091 -0.5465  0.0948
  193loPI   C1A 3079  13.305   8.093   9.328 -0.0871  0.0925 -0.2918
  193loPI   C2A 3080  13.292   8.371   8.984 -0.1623 -0.0022 -0.0243
  193loPI   C3A 3081  13.324   8.466   8.513  0.0847 -0.3104  0.0151
  193loPI   C4A 3082  13.332   8.480   8.097  0.1281 -0.0833 -0.1144
  193loPI   C5A 3083  12.940   8.275   7.875 -0.2356  0.0939  0.0552
  193loPI   C6A 3084  12.905   7.981   7.468 -0.0472  0.0640  0.1038
  193loPI   C1B 3085  13.824   7.583   9.339 -0.0095 -0.3770  0.0259
  193loPI   C2B 3086  13.931   7.862   8.980 -0.3634  0.2353  0.2928
  193loPI   C3B 3087  14.027   7.755   8.569 -0.1798 -0.0008 -0.0175
  193loPI   C4B 3088  14.005   7.653   8.165 -0.1113  0.0847 -0.0905
  194loPI    C1 3089   7.088  14.756  10.171 -0.0533 -0.3604 -0.0580
  194loPI    C2 3090   7.435  14.926  10.276 -0.2317  0.1126 -0.2082
  194loPI    C3 3091   7.233  14.704  10.540  0.0827  0.0014 -0.0561
  194loPI   PO4 3092   7.042  14.923   9.914 -0.1712  0.0307 -0.1508
  194loPI   GL1 3093   6.769  15.009   9.517  0.3062  0.3713  0.0532
  194loPI   GL2 3094   6.847  14.745   9.453  0.0970  0.1415 -0.0472
  194loPI   C1A 3095   6.870  15.181   9.163  0.0133  0.1551  0.0720
  194loPI   C2A 3096   6.717  15.222   8.757  0.2080 -0.3958 -0.2245
  194loPI   C3A 3097   6.443  15.030   8.357 -0.0897 -0.0087  0.0939
  194loPI   C4A 3098   6.496  15.008   7.957  0.0270 -0.0007  0.0853
  194loPI   C5A 3099   6.649  14.940   7.505  0.1118  0.1732 -0.0574
  194loPI   C6A 3100   6.857  14.748   7.199 -0.3987  0.0686 -0.0407
  194loPI   C1B 3101   6.795  14.742   8.938  0.1562  0.2163 -0.1396
  194loPI   C2B 3102   6.720  14.607   8.507  0.2194  0.0570 -0.1185
  194loPI   C3B 3103   6.573  14.548   8.103  0.3094  0.2616 -0.0077
  194loPI   C4B 3104   6.183  14.556   7.797  0.0577  0.3005 -0.0517
  195loPI    C1 3105   1.010  16.217  10.303 -0.0893  0.1278  0.2135
  195loPI    C2 3106   0.623  16.161  10.385 -0.1287  0.1206  0.0267
  195loPI    C3 3107   0.881  16.236  10.681 -0.2827  0.1868  0.1454
  195loPI   PO4 3108   0.995  16.263   9.957 -0.2348 -0.0756 -0.1246
  195loPI   GL1 3109   0.870  16.050   9.609 -0.1272  0.1526  0.0068
  195loPI   GL2 3110   1.131  15.845   9.733 -0.1446 -0.0477 -0.0304
  195loPI   C1A 3111   0.953  16.071   9.175  0.2703 -0.0919 -0.0351
  195loPI   C2A 3112   0.858  16.387   8.929  0.1991 -0.0766  0.5272
  195loPI   C3A 3113   0.585  16.693   8.756  0.2195 -0.1587  0.0726
  195loPI   C4A 3114   0.526  16.940   8.368  0.0819  0.5104  0.1517
  195loPI   C5A 3115   0.371  16.799   7.963  0.0644 -0.2794 -0.0313
  195loPI   C6A 3116   0.188  16.816   7.589  0.0902  0.0722  0.2333
  195loPI   C1B 3117   1.323  15.800   9.360  0.0339  0.4583 -0.2103
  195loPI   C2B 3118   1.304  15.749   8.868 -0.2843  0.1458 -0.2105
  195loPI   C3B 3119   1.290  15.666   8.460 -0.0244 -0.0606  0.1934
  195loPI   C4B 3120   1.238  15.866   8.028 -0.0898 -0.1577  0.0903
  196loPI    C1 3121  17.955  13.706  10.167  0.1304 -0.1185 -0.0540
  196loPI    C2 3122  18.142  13.845   9.842 -0.0075  0.0788 -0.0513
  196loPI    C3 3123  18.188  14.030  10.194  0.0470 -0.0639  0.0176
  196loPI   PO4 3124  17.693  13.619   9.986 -0.1482  0.1043  0.4149
  196loPI   GL1 3125  17.828  13.563   9.491 -0.0794  0.0222  0.0036
  196loPI   GL2 3126  17.610  13.406   9.335 -0.3927  0.0665 -0.0165
  196loPI   C1A 3127  18.179  13.746   9.289  0.0718  0.2519  0.2121
  196loPI   C2A 3128  18.369  13.737   8.779  0.0564  0.0560 -0.0394
  196loPI   C3A 3129  18.294  13.674   8.320 -0.2725 -0.0610 -0.3926
  196loPI   C4A 3130  18.270  13.566   7.903  0.1503 -0.0617  0.0430
  196loPI   C5A 3131  18.180  13.103   7.685  0.1287 -0.4611  0.1539
  196loPI   C6A 3132  17.892  12.861   7.404 -0.1425  0.1307 -0.2307
  196loPI   C1B 3133  17.531  13.325   8.996 -0.2431  0.0611 -0.2798
  196loPI   C2B 3134  17.504  13.262   8.553 -0.2594 -0.1773  0.0426
  196loPI   C3B 3135  17.431  12.942   8.204 -0.0731  0.2200 -0.0673
  196loPI   C4B 3136  17.664  12.923   7.806 -0.0564  0.2516  0.2066
  197loPI    C1 3137   7.267   1.082   9.955  0.3293  0.2127  0.0107
  197loPI    C2 3138   7.371   1.073  10.341 -0.1209  0.0167  0.1335
  197loPI    C3 3139   7.003   1.192  10.235 -0.0214  0.0102 -0.2322
  197loPI   PO4 3140   7.400   1.179   9.844 -0.0740 -0.0886  0.2319
  197loPI   GL1 3141   7.459   1.348   9.392 -0.2362  0.0904  0.1174
  197loPI   GL2 3142   7.516   1.677   9.256 -0.1438 -0.1798 -0.1281
  197loPI   C1A 3143   7.504   1.098   9.026  0.0387 -0.0814  0.0586
  197loPI   C2A 3144   7.463   1.083   8.574 -0.0104 -0.2179  0.2365
  197loPI   C3A 3145   7.495   0.822   8.207 -0.0700 -0.1061 -0.0270
  197loPI   C4A 3146   7.778   0.984   7.938 -0.0815 -0.0061  0.1054
  197loPI   C5A 3147   7.811   1.214   7.624  0.3022 -0.0465  0.1435
  197loPI   C6A 3148   8.194   1.494   7.672 -0.0854  0.1191  0.1534
  197loPI   C1B 3149   7.466   1.603   8.888 -0.0067 -0.0690 -0.0776
  197loPI   C2B 3150   7.495   1.567   8.569  0.1405  0.2651  0.0369
  197loPI   C3B 3151   7.345   1.437   8.236  0.0074  0.0498 -0.1111
  197loPI   C4B 3152   7.387   1.284   7.853  0.3320 -0.0440  0.0762
  198loPI    C1 3153   7.412   8.505  10.424  0.0276  0.0522 -0.0666
  198loPI    C2 3154   7.167   8.516  10.740 -0.1623 -0.2202 -0.2007
  198loPI    C3 3155   7.540   8.376  10.780 -0.0769  0.0493 -0.0297
  198loPI   PO4 3156   7.268   8.598  10.249 -0.2149 -0.0217  0.1457
  198loPI   GL1 3157   7.130   8.624   9.916  0.0087  0.1248 -0.1838
  198loPI   GL2 3158   7.161   8.956   9.882 -0.0475 -0.2315 -0.0301
  198loPI   C1A 3159   6.987   8.670   9.542  0.0462  0.1545 -0.2530
  198loPI   C2A 3160   7.029   8.599   9.027  0.1748  0.1446 -0.1724
  198loPI   C3A 3161   6.817   8.586   8.632 -0.0078  0.0640 -0.0497
  198loPI   C4A 3162   6.664   8.689   8.215  0.0778  0.1668  0.0692
  198loPI   C5A 3163   6.813   8.520   7.863  0.1282  0.0844 -0.3542
  198loPI   C6A 3164   7.088   8.273   7.706 -0.0244 -0.0888 -0.1458
  198loPI   C1B 3165   7.276   9.113   9.544 -0.1742 -0.2534  0.0901
  198loPI   C2B 3166   7.300   9.083   9.082 -0.1899 -0.2862 -0.0664
  198loPI   C3B 3167   7.279   9.128   8.550 -0.1729 -0.0342  0.3999
  198loPI   C4B 3168   7.108   8.973   8.187 -0.0129 -0.2939  0.3042
  199loPI    C1 3169  15.004   5.221  10.232 -0.0735  0.0540 -0.0028
  199loPI    C2 3170  14.771   5.458  10.454 -0.0875  0.0121  0.0274
  199loPI    C3 3171  15.156   5.551  10.400 -0.1382  0.1432 -0.1172
  199loPI   PO4 3172  14.848   5.181   9.948 -0.0982  0.1596  0.0439
  199loPI   GL1 3173  14.475   5.327   9.665 -0.1378 -0.4515  0.0860
  199loPI   GL2 3174  14.492   5.070   9.522  0.1243 -0.1377 -0.3421
  199loPI   C1A 3175  14.612   5.371   9.196  0.0872  0.2653  0.0744
  199loPI   C2A 3176  14.564   5.402   8.778  0.0878  0.1446  0.3281
  199loPI   C3A 3177  14.489   5.529   8.357  0.2187  0.1629 -0.2556
  199loPI   C4A 3178  14.414   5.568   8.017 -0.0057 -0.1039  0.0534
  199loPI   C5A 3179  14.687   5.421   7.535 -0.1350  0.4579 -0.3854
  199loPI   C6A 3180  15.050   5.219   7.339 -0.0937  0.1008 -0.2337
  199loPI   C1B 3181  14.773   4.952   9.090 -0.0621  0.3139  0.4052
  199loPI   C2B 3182  15.003   4.967   8.734  0.1419 -0.0472 -0.2815
  199loPI   C3B 3183  14.919   4.943   8.283  0.2689  0.3814  0.0971
  199loPI   C4B 3184  14.714   5.153   7.970 -0.2340  0.3944 -0.0251
  200loPI    C1 3185   4.542   2.707  10.176  0.0703 -0.1559 -0.0117
  200loPI    C2 3186   4.383   3.073  10.194  0.1188 -0.1305 -0.0920
  200loPI    C3 3187   4.455   2.870  10.531 -0.0521 -0.1293 -0.0534
  200loPI   PO4 3188   4.429   2.569   9.953 -0.1334 -0.0615  0.0771
  200loPI   GL1 3189   4.368   2.535   9.500  0.0694 -0.1887  0.1239
  200loPI   GL2 3190   4.073   2.449   9.439  0.1770  0.0527 -0.0413
  200loPI   C1A 3191   4.241   2.887   9.305 -0.1701 -0.2119  0.0448
  200loPI   C2A 3192   4.134   3.013   8.855 -0.2393 -0.0844  0.1716
  200loPI   C3A 3193   4.029   3.320   8.545 -0.1504  0.0786 -0.0986
  200loPI   C4A 3194   4.128   3.466   8.224  0.3923  0.0031 -0.0209
  200loPI   C5A 3195   4.362   3.334   7.922  0.1323  0.1966  0.1421
  200loPI   C6A 3196   4.217   2.944   7.710  0.0910 -0.1320 -0.1312
  200loPI   C1B 3197   4.164   2.425   9.036 -0.0187  0.2549  0.0772
  200loPI   C2B 3198   4.067   2.538   8.593 -0.1584  0.2831 -0.0082
  200loPI   C3B 3199   3.936   2.529   8.199 -0.0196  0.1221  0.1868
  200loPI   C4B 3200   3.531   2.742   7.858  0.0745  0.1343 -0.3648
  201loPI    C1 3201  10.892   2.923  10.651  0.0136 -0.1215 -0.1349
  201loPI    C2 3202  11.064   2.614  10.838  0.1687  0.2740  0.4014
  201loPI    C3 3203  10.675   2.691  10.894 -0.0197 -0.1585 -0.1995
  201loPI   PO4 3204  10.986   2.947  10.436 -0.1322 -0.0357 -0.0154
  201loPI   GL1 3205  11.279   3.073  10.069 -0.1249 -0.0652 -0.0857
  201loPI   GL2 3206  10.918   3.149   9.879  0.2928  0.1718 -0.1497
  201loPI   C1A 3207  11.291   3.100   9.586 -0.2170  0.3298 -0.0424
  201loPI   C2A 3208  11.258   3.121   9.226  0.0645  0.3193  0.0408
  201loPI   C3A 3209  11.365   3.266   8.958  0.2053 -0.1872 -0.0378
  201loPI   C4A 3210  11.698   3.301   8.759  0.1725 -0.1990 -0.0127
  201loPI   C5A 3211  11.854   3.150   8.444  0.1917  0.0940 -0.0476
  201loPI   C6A 3212  11.985   3.096   7.985 -0.2133  0.1336  0.1935
  201loPI   C1B 3213  10.698   3.263   9.592  0.0513 -0.3388 -0.1528
  201loPI   C2B 3214  10.792   3.402   9.212  0.2116  0.1441 -0.4057
  201loPI   C3B 3215  10.930   3.398   8.785  0.3838  0.1408 -0.0777
  201loPI   C4B 3216  11.320   3.378   8.464  0.1210  0.1370 -0.0653
  202loPI    C1 3217   6.636  12.488  10.217  0.4203  0.0181  0.0481
  202loPI    C2 3218   6.456  12.131  10.199  0.0526  0.2132 -0.2579
  202loPI    C3 3219   6.676  12.227  10.519 -0.1894 -0.1246  0.0182
  202loPI   PO4 3220   6.772  12.537   9.962  0.0890 -0.0007 -0.0293
  202loPI   GL1 3221   6.671  12.630   9.590  0.1064  0.1158  0.1058
  202loPI   GL2 3222   6.867  12.790   9.533 -0.0792 -0.2968  0.1677
  202loPI   C1A 3223   6.739  12.417   9.204  0.2909 -0.2307 -0.1954
  202loPI   C2A 3224   6.716  12.383   8.911 -0.3190 -0.0054 -0.1499
  202loPI   C3A 3225   6.616  12.276   8.578 -0.1963  0.1504  0.2585
  202loPI   C4A 3226   6.652  12.214   8.205 -0.0032  0.0853 -0.1683
  202loPI   C5A 3227   6.400  12.309   7.848 -0.1523 -0.2744 -0.1467
  202loPI   C6A 3228   6.204  12.668   7.766  0.3076 -0.0715 -0.0271
  202loPI   C1B 3229   6.941  12.856   9.117 -0.1672  0.2364 -0.1278
  202loPI   C2B 3230   6.872  12.711   8.580  0.2270  0.0696 -0.0187
  202loPI   C3B 3231   6.927  12.643   8.197 -0.0471  0.2444  0.1496
  202loPI   C4B 3232   6.905  12.376   7.810  0.0110 -0.2233 -0.2215
  203loPI    C1 3233   7.193  16.467  10.091 -0.1020 -0.2162  0.0691
  203loPI    C2 3234   7.550  16.498  10.270 -0.1147 -0.5292  0.1539
  203loPI    C3 3235   7.227  16.669  10.435  0.0105 -0.1585  0.0246
  203loPI   PO4 3236   7.256  16.601   9.830  0.0640  0.0259  0.3858
  203loPI   GL1 3237   7.263  16.541   9.415  0.4216 -0.0647 -0.2314
  203loPI   GL2 3238   7.538  16.539   9.407  0.1059 -0.0984 -0.1826
  203loPI   C1A 3239   7.230  16.450   8.991  0.1666  0.2142  0.0923
  203loPI   C2A 3240   7.185  16.369   8.601 -0.0511  0.3429 -0.0835
  203loPI   C3A 3241   7.064  16.462   8.306 -0.1155 -0.1591  0.0977
  203loPI   C4A 3242   6.700  16.613   8.113 -0.0755  0.2465  0.2232
  203loPI   C5A 3243   6.248  16.618   8.091  0.3488  0.1684  0.1382
  203loPI   C6A 3244   5.963  16.323   8.086 -0.2022 -0.1036  0.0636
  203loPI   C1B 3245   7.731  16.649   9.000 -0.1183 -0.3610  0.1390
  203loPI   C2B 3246   7.905  16.660   8.632 -0.0788 -0.1663  0.3392
  203loPI   C3B 3247   8.056  16.577   8.260  0.1319  0.1660 -0.0845
  203loPI   C4B 3248   8.290  16.533   7.873 -0.1006  0.3203  0.1699
  204loPI    C1 3249  17.597  17.797   9.768 -0.0400 -0.1989 -0.1139
  204loPI    C2 3250  17.390  18.076   9.570  0.1119 -0.0365 -0.0465
  204loPI    C3 3251  17.477  18.129   9.957  0.2892 -0.0977 -0.0773
  204loPI   PO4 3252  17.792  17.780   9.620  0.1778 -0.1483  0.1616
  204loPI   GL1 3253  17.909  17.542   9.159  0.0552 -0.0521 -0.0045
  204loPI   GL2 3254  18.167  17.591   9.129  0.0750 -0.0469  0.2132
  204loPI   C1A 3255  17.917  17.339   8.717 -0.0391 -0.0008  0.0240
  204loPI   C2A 3256  17.800  17.348   8.242  0.1005  0.0523  0.0711
  204loPI   C3A 3257  17.652  17.325   7.790 -0.0464 -0.0662 -0.0089
  204loPI   C4A 3258  17.573  17.130   7.342  0.0371  0.0187  0.3827
  204loPI   C5A 3259  17.648  16.810   7.041 -0.4091 -0.2204 -0.0082
  204loPI   C6A 3260  17.561  16.425   6.843 -0.0868 -0.0298 -0.1618
  204loPI   C1B 3261  18.105  17.866   8.652 -0.1972 -0.3235 -0.1844
  204loPI   C2B 3262  18.231  17.946   8.270  0.0710  0.1552  0.2655
  204loPI   C3B 3263  18.218  18.179   7.844  0.2384  0.2391  0.1985
  204loPI   C4B 3264  18.135  18.430   7.569  0.2447 -0.0351  0.0073
  205loPI    C1 3265  17.606   8.691  10.486 -0.2069 -0.1187 -0.0224
  205loPI    C2 3266  17.451   8.884  10.800 -0.1126  0.3022 -0.2279
  205loPI    C3 3267  17.245   8.589  10.625 -0.2898  0.2581  0.0494
  205loPI   PO4 3268  17.649   8.817  10.366  0.1720  0.3292 -0.1939
  205loPI   GL1 3269  17.513   8.917   9.961 -0.2932  0.0226 -0.0461
  205loPI   GL2 3270  17.752   9.025   9.742 -0.3405 -0.0428 -0.1673
  205loPI   C1A 3271  17.259   8.682   9.619  0.1491 -0.4478  0.0125
  205loPI   C2A 3272  17.172   8.344   9.350  0.1941 -0.0723 -0.0705
  205loPI   C3A 3273  17.070   8.274   8.900 -0.2981  0.0697 -0.1104
  205loPI   C4A 3274  17.036   8.134   8.455 -0.0668 -0.2471 -0.1228
  205loPI   C5A 3275  17.049   8.387   8.069 -0.4646  0.0199  0.1006
  205loPI   C6A 3276  17.378   8.499   7.807  0.0106 -0.3827 -0.1046
  205loPI   C1B 3277  17.640   9.029   9.373 -0.2080  0.2783 -0.1373
  205loPI   C2B 3278  17.741   9.051   8.994 -0.0262 -0.1626 -0.1306
  205loPI   C3B 3279  17.705   9.041   8.519  0.0165  0.2057 -0.1256
  205loPI   C4B 3280  17.365   8.896   8.145  0.1053 -0.1696  0.2710
  206loPI    C1 3281   3.008  12.316  10.401  0.0611 -0.3897  0.0885
  206loPI    C2 3282   3.251  12.300  10.718  0.1675 -0.1111  0.0242
  206loPI    C3 3283   2.936  12.546  10.721  0.1266 -0.1620 -0.0575
  206loPI   PO4 3284   3.023  12.289  10.148  0.1851  0.0350 -0.0178
  206loPI   GL1 3285   2.982  12.173   9.801 -0.1052 -0.1448  0.3093
  206loPI   GL2 3286   2.604  12.181   9.909 -0.1509 -0.1906 -0.0199
  206loPI   C1A 3287   3.031  12.105   9.436 -0.2368  0.2292 -0.6541
  206loPI   C2A 3288   3.146  12.135   9.064 -0.0156 -0.2040 -0.2330
  206loPI   C3A 3289   3.182  12.016   8.681 -0.1474  0.1685 -0.0297
  206loPI   C4A 3290   3.197  12.113   8.297  0.1138 -0.0396  0.2160
  206loPI   C5A 3291   3.166  11.795   7.948  0.0309 -0.1147  0.2050
  206loPI   C6A 3292   3.035  11.367   7.940 -0.1207 -0.0046 -0.2207
  206loPI   C1B 3293   2.570  12.178   9.498  0.2395 -0.0516  0.3407
  206loPI   C2B 3294   2.645  12.167   9.094  0.0054  0.0690 -0.1284
  206loPI   C3B 3295   2.702  11.951   8.707  0.1061 -0.0467 -0.2908
  206loPI   C4B 3296   2.779  11.787   8.333  0.2012  0.2524 -0.1420
  207loPI    C1 3297  13.476  16.887   9.609 -0.1666  0.0473 -0.0620
  207loPI    C2 3298  13.430  16.631   9.913 -0.1876  0.1234 -0.0007
  207loPI    C3 3299  13.658  16.956   9.959 -0.0722  0.0591 -0.1131
  207loPI   PO4 3300  13.514  16.745   9.402 -0.1601  0.0765 -0.2155
  207loPI   GL1 3301  13.391  16.643   9.014  0.0767 -0.0728 -0.0028
  207loPI   GL2 3302  13.103  16.629   9.049 -0.0271  0.0245  0.2532
  207loPI   C1A 3303  13.284  16.372   8.645  0.1465 -0.1406 -0.1018
  207loPI   C2A 3304  13.391  16.281   8.231  0.2070 -0.2423  0.0520
  207loPI   C3A 3305  13.529  16.382   7.806  0.1675  0.0892  0.1270
  207loPI   C4A 3306  13.655  16.337   7.471  0.0916  0.2063  0.0365
  207loPI   C5A 3307  13.833  16.715   7.277 -0.0323  0.0141  0.0260
  207loPI   C6A 3308  13.897  17.035   6.900 -0.0233  0.2310 -0.1841
  207loPI   C1B 3309  13.145  16.927   8.684  0.0684 -0.0041  0.1982
  207loPI   C2B 3310  13.224  16.811   8.314 -0.0724  0.0469 -0.0409
  207loPI   C3B 3311  13.453  16.915   7.943  0.1023 -0.2817  0.3160
  207loPI   C4B 3312  13.701  17.266   7.834 -0.1868 -0.0231 -0.3346
  208loPI    C1 3313   2.744  15.515  10.337  0.0005  0.1948 -0.1908
  208loPI    C2 3314   2.733  15.125  10.252 -0.0078  0.2213 -0.3139
  208loPI    C3 3315   2.535  15.266  10.570 -0.0295  0.1301 -0.2865
  208loPI   PO4 3316   2.744  15.723  10.057  0.1186 -0.1668  0.0212
  208loPI   GL1 3317   2.585  15.791   9.634  0.1003 -0.0116 -0.0373
  208loPI   GL2 3318   2.557  16.180   9.506 -0.1567 -0.0749 -0.1194
  208loPI   C1A 3319   2.325  15.669   9.230 -0.3812 -0.1293  0.2705
  208loPI   C2A 3320   2.212  15.774   8.806 -0.2069  0.1725 -0.0759
  208loPI   C3A 3321   2.183  15.720   8.426 -0.2432 -0.1657  0.1444
  208loPI   C4A 3322   2.114  15.712   7.968  0.1692  0.1327  0.1953
  208loPI   C5A 3323   1.800  15.499   7.678 -0.1563 -0.0251 -0.1766
  208loPI   C6A 3324   1.407  15.391   7.798  0.2331  0.4008 -0.0141
  208loPI   C1B 3325   2.795  15.976   9.125 -0.1565 -0.1074  0.1121
  208loPI   C2B 3326   2.819  15.947   8.613 -0.1145 -0.1480 -0.0000
  208loPI   C3B 3327   2.710  15.927   8.201 -0.2961  0.0440 -0.1908
  208loPI   C4B 3328   2.930  15.865   7.762  0.0914  0.1132  0.0500
  209loPI    C1 3329   1.931  11.188  10.767  0.1545  0.1153  0.1594
  209loPI    C2 3330   1.686  11.483  10.881 -0.2754 -0.1380 -0.0849
  209loPI    C3 3331   1.714  11.150  11.101 -0.1556 -0.1141 -0.0632
  209loPI   PO4 3332   1.898  11.178  10.538 -0.1418  0.0617 -0.3835
  209loPI   GL1 3333   1.557  11.154  10.325  0.0982  0.1759  0.3768
  209loPI   GL2 3334   1.599  11.350  10.091  0.0134 -0.4845 -0.1136
  209loPI   C1A 3335   1.675  10.859  10.075  0.0714 -0.1060  0.1392
  209loPI   C2A 3336   1.718  10.782   9.634 -0.2485 -0.1737  0.0847
  209loPI   C3A 3337   1.653  10.676   9.260 -0.0763 -0.2292  0.2318
  209loPI   C4A 3338   1.648  10.590   8.764 -0.2288 -0.2172 -0.0311
  209loPI   C5A 3339   1.650  10.602   8.301  0.0939  0.0912  0.1168
  209loPI   C6A 3340   1.798  10.554   7.905  0.2333  0.1038  0.0724
  209loPI   C1B 3341   1.400  11.255   9.687 -0.0760  0.1207 -0.1394
  209loPI   C2B 3342   1.362  11.148   9.318 -0.3074 -0.1951  0.1522
  209loPI   C3B 3343   1.397  11.071   8.945  0.1477  0.0442  0.1071
  209loPI   C4B 3344   1.381  10.982   8.522 -0.2615 -0.1678  0.2978
  210loPI    C1 3345   8.113  15.908  10.058 -0.0163  0.2325 -0.0778
  210loPI    C2 3346   7.826  16.085  10.274 -0.0384 -0.1057  0.1783
  210loPI    C3 3347   8.053  15.799  10.438  0.0076 -0.3048 -0.2200
  210loPI   PO4 3348   8.067  15.900   9.847 -0.3130  0.1522  0.2056
  210loPI   GL1 3349   8.028  16.047   9.383 -0.1217  0.1117 -0.3590
  210loPI   GL2 3350   8.280  16.313   9.226 -0.1239 -0.0398  0.0473
  210loPI   C1A 3351   7.789  16.124   8.945 -0.0205  0.0746 -0.2967
  210loPI   C2A 3352   7.638  16.255   8.500 -0.3963  0.1913  0.0231
  210loPI   C3A 3353   7.460  16.263   8.108  0.1535 -0.3990 -0.1237
  210loPI   C4A 3354   7.146  16.429   7.850 -0.1671  0.4154  0.1821
  210loPI   C5A 3355   6.810  16.684   7.638  0.0719 -0.2719 -0.1718
  210loPI   C6A 3356   6.774  16.790   7.166  0.0578 -0.0426  0.3097
  210loPI   C1B 3357   8.252  16.388   8.777 -0.1731 -0.0038 -0.2196
  210loPI   C2B 3358   8.325  16.203   8.427 -0.1417  0.4242  0.1391
  210loPI   C3B 3359   8.478  16.105   8.043 -0.0381 -0.0854  0.1594
  210loPI   C4B 3360   8.733  15.985   7.723  0.4030  0.1653 -0.0510
  211loPI    C1 3361   6.023  17.539  10.196  0.0338 -0.2324  0.1353
  211loPI    C2 3362   5.894  17.242  10.431 -0.0615 -0.0045  0.3770
  211loPI    C3 3363   6.141  17.520  10.578  0.1585 -0.0516  0.1072
  211loPI   PO4 3364   6.007  17.497   9.978  0.0539  0.2315 -0.0743
  211loPI   GL1 3365   5.719  17.567   9.749  0.2329  0.0790 -0.0573
  211loPI   GL2 3366   5.588  17.337   9.747  0.1456 -0.0829 -0.0596
  211loPI   C1A 3367   5.660  17.682   9.387  0.0617 -0.1005  0.1077
  211loPI   C2A 3368   5.497  17.828   9.055  0.0475  0.3652  0.0372
  211loPI   C3A 3369   5.604  17.825   8.615  0.2469  0.0788 -0.2243
  211loPI   C4A 3370   5.658  17.461   8.292 -0.1186  0.1882  0.0106
  211loPI   C5A 3371   5.673  17.217   7.900  0.1518 -0.5835  0.0303
  211loPI   C6A 3372   5.478  17.045   7.475  0.1206  0.0319  0.0757
  211loPI   C1B 3373   5.584  17.062   9.456  0.2921  0.2789 -0.0822
  211loPI   C2B 3374   5.611  17.029   8.980  0.1143 -0.1214  0.0365
  211loPI   C3B 3375   5.452  16.945   8.551  0.2147 -0.0397  0.0224
  211loPI   C4B 3376   5.359  16.933   8.052 -0.4197  0.0181  0.1117
  212loPI    C1 3377  13.482  16.049   9.731 -0.1035  0.1911  0.1466
  212loPI    C2 3378  13.265  16.041  10.067 -0.1546  0.0463  0.1106
  212loPI    C3 3379  13.431  15.705   9.928 -0.0932  0.1151  0.0170
  212loPI   PO4 3380  13.368  16.256   9.577 -0.0647 -0.0043  0.0143
  212loPI   GL1 3381  13.297  16.125   9.132  0.0342  0.0785  0.0790
  212loPI   GL2 3382  13.675  16.081   9.186  0.1211 -0.0079  0.0467
  212loPI   C1A 3383  13.474  15.901   8.711 -0.0432 -0.1949 -0.0057
  212loPI   C2A 3384  13.488  15.689   8.354 -0.2995  0.2943  0.3012
  212loPI   C3A 3385  13.468  15.733   7.925 -0.2847  0.0748  0.0040
  212loPI   C4A 3386  13.318  15.967   7.528 -0.1172  0.0555 -0.2302
  212loPI   C5A 3387  13.264  16.307   7.090 -0.0603  0.2692 -0.4223
  212loPI   C6A 3388  13.135  16.668   7.073  0.0630 -0.1198 -0.0854
  212loPI   C1B 3389  13.823  16.270   8.739 -0.1484 -0.0226 -0.0047
  212loPI   C2B 3390  13.850  16.138   8.468  0.3390 -0.3726 -0.3106
  212loPI   C3B 3391  13.920  16.159   8.061  0.3345  0.3634  0.0249
  212loPI   C4B 3392  14.001  16.059   7.609  0.1297  0.1188  0.1597
  213loPI    C1 3393   5.210   3.882  10.448  0.0982 -0.0512 -0.1168
  213loPI    C2 3394   5.446   4.108  10.680 -0.0018 -0.0505 -0.0149
  213loPI    C3 3395   5.052   4.092  10.750 -0.0049 -0.2037 -0.0634
  213loPI   PO4 3396   5.314   3.962  10.134  0.2117 -0.2138  0.0753
  213loPI   GL1 3397   5.361   3.835   9.778 -0.0892  0.1351  0.2077
  213loPI   GL2 3398   5.455   3.685   9.554  0.1681 -0.1755 -0.1603
  213loPI   C1A 3399   5.154   4.066   9.446  0.1406 -0.1545 -0.3513
  213loPI   C2A 3400   5.303   4.099   9.054 -0.1829  0.1217  0.1738
  213loPI   C3A 3401   5.132   4.150   8.614  0.1841 -0.0264  0.1553
  213loPI   C4A 3402   5.220   4.322   8.189  0.3084  0.2779 -0.0976
  213loPI   C5A 3403   5.042   4.385   7.851 -0.2513 -0.1518  0.1965
  213loPI   C6A 3404   4.645   4.211   7.677 -0.2174  0.5384  0.0688
  213loPI   C1B 3405   5.533   3.683   9.063  0.2097 -0.0993  0.1504
  213loPI   C2B 3406   5.483   3.793   8.668  0.3925 -0.3329  0.0361
  213loPI   C3B 3407   5.483   3.805   8.115 -0.3598  0.0456  0.0494
  213loPI   C4B 3408   5.337   3.977   7.796 -0.2594 -0.4798 -0.1395
  214loPI    C1 3409  12.451   7.913  10.184 -0.2256 -0.0731  0.1877
  214loPI    C2 3410  12.338   8.060  10.538 -0.0987 -0.0573  0.2220
  214loPI    C3 3411  12.724   7.988  10.465 -0.1252 -0.0691  0.0898
  214loPI   PO4 3412  12.356   7.710  10.132  0.1873 -0.3549 -0.1041
  214loPI   GL1 3413  12.235   7.659   9.638  0.1260 -0.0077  0.2744
  214loPI   GL2 3414  11.988   7.409   9.701  0.0773  0.0004 -0.0996
  214loPI   C1A 3415  12.440   7.672   9.262  0.2548  0.1413 -0.2164
  214loPI   C2A 3416  12.341   7.578   8.877 -0.1812 -0.0197 -0.0182
  214loPI   C3A 3417  12.300   7.757   8.430 -0.0073 -0.2093 -0.1221
  214loPI   C4A 3418  12.552   8.047   8.182  0.2691 -0.0034 -0.0179
  214loPI   C5A 3419  12.634   8.440   8.359 -0.2830  0.1909  0.0481
  214loPI   C6A 3420  12.757   8.448   8.819  0.1581  0.1786 -0.2592
  214loPI   C1B 3421  11.966   7.408   9.270 -0.0067 -0.1857  0.2322
  214loPI   C2B 3422  11.855   7.450   8.847 -0.0291 -0.2736  0.2798
  214loPI   C3B 3423  11.979   7.366   8.527  0.0445  0.0268  0.0351
  214loPI   C4B 3424  11.916   7.450   8.144 -0.0791 -0.1095 -0.3625
  215loPI    C1 3425  12.071   4.365  10.384 -0.1199 -0.1817 -0.0009
  215loPI    C2 3426  12.148   4.193  10.737 -0.3232 -0.1427  0.0636
  215loPI    C3 3427  12.447   4.346  10.520 -0.2145 -0.0285  0.2904
  215loPI   PO4 3428  11.917   4.229  10.228  0.0114 -0.1827  0.0390
  215loPI   GL1 3429  11.855   4.339   9.732 -0.4464  0.2482  0.0188
  215loPI   GL2 3430  11.983   4.034   9.519 -0.0497 -0.0750 -0.2192
  215loPI   C1A 3431  11.586   4.292   9.384  0.3217 -0.1064  0.3239
  215loPI   C2A 3432  11.605   4.284   8.934  0.2414 -0.0626  0.1999
  215loPI   C3A 3433  11.665   4.190   8.523 -0.2605 -0.1648 -0.2803
  215loPI   C4A 3434  11.810   4.219   8.157  0.4027  0.1038  0.0987
  215loPI   C5A 3435  11.956   4.339   7.763  0.2844  0.0364 -0.1135
  215loPI   C6A 3436  12.195   4.663   7.533 -0.1560 -0.0920 -0.0181
  215loPI   C1B 3437  12.115   4.175   9.167 -0.1334  0.1449  0.2171
  215loPI   C2B 3438  12.131   4.240   8.693 -0.1351  0.1392 -0.2017
  215loPI   C3B 3439  12.273   4.322   8.235 -0.4781  0.1664 -0.0937
  215loPI   C4B 3440  12.179   4.704   8.058  0.2484  0.1881  0.0704
  216loPI    C1 3441  11.276   1.929  10.154 -0.0272 -0.2737 -0.1979
  216loPI    C2 3442  11.283   1.719  10.494  0.0402 -0.1178 -0.1019
  216loPI    C3 3443  11.163   2.100  10.497  0.0428 -0.1153 -0.2529
  216loPI   PO4 3444  11.509   1.861  10.053 -0.0391 -0.3571  0.3405
  216loPI   GL1 3445  11.750   2.133   9.703 -0.4199 -0.0784  0.1830
  216loPI   GL2 3446  11.954   2.017   9.943  0.2102 -0.0408 -0.2373
  216loPI   C1A 3447  11.682   2.028   9.257 -0.2407  0.0377  0.1084
  216loPI   C2A 3448  11.816   1.968   8.930 -0.2158 -0.0966  0.2602
  216loPI   C3A 3449  11.980   1.866   8.530 -0.0604 -0.1326 -0.1508
  216loPI   C4A 3450  11.988   2.012   8.129 -0.0227  0.2402  0.2961
  216loPI   C5A 3451  11.984   1.939   7.689  0.0216  0.3381 -0.1026
  216loPI   C6A 3452  11.726   2.046   7.236 -0.2869 -0.2605  0.2130
  216loPI   C1B 3453  12.216   1.902   9.553 -0.2939 -0.0127  0.0808
  216loPI   C2B 3454  12.222   2.133   9.174  0.2808 -0.4058 -0.0477
  216loPI   C3B 3455  12.168   2.259   8.740  0.1365  0.2859  0.1437
  216loPI   C4B 3456  12.209   2.392   8.332  0.0429 -0.2629  0.0847
  217loPI    C1 3457   1.935  13.148  10.245  0.1435 -0.0377 -0.0867
  217loPI    C2 3458   1.796  13.216  10.614  0.1724 -0.2368 -0.0381
  217loPI    C3 3459   2.191  13.206  10.547  0.1672  0.0079 -0.1152
  217loPI   PO4 3460   1.965  13.362  10.110  0.0179  0.1770  0.0238
  217loPI   GL1 3461   2.056  13.614   9.795 -0.0995  0.2278 -0.1700
  217loPI   GL2 3462   1.628  13.634   9.848  0.1208 -0.2267  0.1067
  217loPI   C1A 3463   2.228  13.571   9.429  0.0888  0.1728  0.0947
  217loPI   C2A 3464   2.337  13.563   8.948  0.4078 -0.1071  0.0109
  217loPI   C3A 3465   2.332  13.355   8.532  0.1956 -0.3831  0.1340
  217loPI   C4A 3466   2.387  13.324   8.065  0.1546 -0.0479  0.0659
  217loPI   C5A 3467   2.150  13.246   7.757 -0.3750  0.3917  0.0097
  217loPI   C6A 3468   1.902  13.007   7.521 -0.2835 -0.0921 -0.0303
  217loPI   C1B 3469   1.655  13.606   9.360 -0.2849  0.1134 -0.0485
  217loPI   C2B 3470   1.476  13.563   9.077  0.2381  0.2346  0.2039
  217loPI   C3B 3471   1.406  13.759   8.687  0.2452 -0.0733 -0.0410
  217loPI   C4B 3472   1.540  13.978   8.282  0.2295 -0.2157 -0.0797
  218loPI    C1 3473   5.114   6.646  10.512  0.0914  0.0390  0.0462
  218loPI    C2 3474   5.285   6.755  10.857  0.1573  0.1135 -0.0097
  218loPI    C3 3475   4.886   6.745  10.826  0.1507  0.2493  0.0247
  218loPI   PO4 3476   5.385   6.568  10.324 -0.0329 -0.0241 -0.0679
  218loPI   GL1 3477   5.425   6.891   9.964  0.3165 -0.2174 -0.0329
  218loPI   GL2 3478   5.153   7.011  10.119  0.3276 -0.2547 -0.0692
  218loPI   C1A 3479   5.315   6.888   9.507  0.0891 -0.0712 -0.0105
  218loPI   C2A 3480   5.186   6.941   9.110 -0.3643  0.0710  0.1023
  218loPI   C3A 3481   5.210   6.992   8.690  0.2323  0.1190 -0.0120
  218loPI   C4A 3482   5.072   6.954   8.282  0.1239  0.1136 -0.2727
  218loPI   C5A 3483   5.086   6.776   7.866  0.2447  0.1025 -0.2427
  218loPI   C6A 3484   5.151   6.571   7.497  0.3417 -0.2054 -0.1485
  218loPI   C1B 3485   4.961   7.225   9.837  0.2922 -0.1217 -0.1742
  218loPI   C2B 3486   5.079   7.362   9.468 -0.0100 -0.1898  0.0710
  218loPI   C3B 3487   5.007   7.448   8.919 -0.0855  0.1031  0.3001
  218loPI   C4B 3488   4.916   7.398   8.436 -0.2959  0.5768 -0.0602
  219loPI    C1 3489   6.351   0.774  10.094  0.1358 -0.0879 -0.0084
  219loPI    C2 3490   6.453   1.136  10.230 -0.1559  0.0309 -0.0964
  219loPI    C3 3491   6.273   0.875  10.473 -0.0178 -0.0272 -0.0552
  219loPI   PO4 3492   6.560   0.675   9.985 -0.2456  0.0280 -0.0466
  219loPI   GL1 3493   6.592   0.289   9.862 -0.0774 -0.1091 -0.4040
  219loPI   GL2 3494   6.259   0.249   9.867 -0.2260  0.3924  0.0855
  219loPI   C1A 3495   6.572   0.238   9.493  0.2862  0.1413 -0.0918
  219loPI   C2A 3496   6.502   0.156   9.113 -0.0025  0.2611 -0.0374
  219loPI   C3A 3497   6.557   0.150   8.640  0.2050  0.0663  0.0472
  219loPI   C4A 3498   6.606   0.046   8.227 -0.2418 -0.1464 -0.1975
  219loPI   C5A 3499   6.679   0.052   7.771  0.0725 -0.1142 -0.2717
  219loPI   C6A 3500   6.929   0.347   7.453 -0.0506 -0.0736  0.0196
  219loPI   C1B 3501   6.085   0.119   9.432  0.2137  0.3479  0.0873
  219loPI   C2B 3502   6.069  -0.077   8.969 -0.0084  0.2545  0.0390
  219loPI   C3B 3503   6.110  -0.073   8.455  0.2266 -0.0462  0.3684
  219loPI   C4B 3504   5.948  -0.230   8.139  0.1417 -0.0444 -0.1352
  220loPI    C1 3505   0.022   7.904  10.878  0.0979 -0.1217 -0.0145
  220loPI    C2 3506   0.087   7.658  11.187 -0.1326 -0.1513  0.0118
  220loPI    C3 3507  -0.246   7.879  11.174 -0.0281 -0.0000 -0.1177
  220loPI   PO4 3508   0.084   7.686  10.672 -0.1123 -0.0117 -0.1363
  220loPI   GL1 3509   0.152   7.865  10.245 -0.1594  0.0073 -0.0734
  220loPI   GL2 3510   0.031   7.519  10.201  0.1614 -0.3182 -0.0210
  220loPI   C1A 3511   0.057   7.926   9.784 -0.2933  0.0858 -0.1104
  220loPI   C2A 3512  -0.164   7.936   9.449  0.2526 -0.0842 -0.2318
  220loPI   C3A 3513  -0.118   8.057   9.059  0.3244 -0.0989  0.0879
  220loPI   C4A 3514  -0.104   7.992   8.633 -0.0975  0.1118 -0.1638
  220loPI   C5A 3515  -0.050   7.612   8.259  0.0428 -0.2084 -0.2651
  220loPI   C6A 3516  -0.171   7.499   7.811  0.2746  0.1587 -0.3105
  220loPI   C1B 3517   0.131   7.422   9.866  0.0620 -0.0848  0.1954
  220loPI   C2B 3518   0.017   7.475   9.504  0.1168 -0.0460  0.2988
  220loPI   C3B 3519   0.173   7.644   9.124 -0.0370  0.2220 -0.0593
  220loPI   C4B 3520   0.199   7.505   8.674  0.2788  0.2341 -0.1048
  221loPI    C1 3521  15.742   2.617  10.273  0.2001 -0.1281  0.2358
  221loPI    C2 3522  15.906   2.979  10.320 -0.0721  0.0290  0.0079
  221loPI    C3 3523  15.510   2.933  10.353 -0.0313 -0.2651  0.1160
  221loPI   PO4 3524  15.784   2.557  10.077 -0.2924 -0.1459 -0.0352
  221loPI   GL1 3525  15.750   2.666   9.632 -0.2965  0.2775 -0.0508
  221loPI   GL2 3526  16.055   2.804   9.510  0.0159 -0.0360  0.1751
  221loPI   C1A 3527  15.948   2.391   9.235  0.1292  0.2769  0.0228
  221loPI   C2A 3528  16.013   2.438   8.884  0.1568  0.1687  0.1159
  221loPI   C3A 3529  16.150   2.383   8.441 -0.1621 -0.2251 -0.3080
  221loPI   C4A 3530  15.932   2.538   8.049  0.1772 -0.2711  0.1643
  221loPI   C5A 3531  15.827   2.283   7.581  0.0485  0.1396 -0.1754
  221loPI   C6A 3532  15.567   2.028   7.324 -0.0013  0.1690 -0.0478
  221loPI   C1B 3533  15.910   2.969   9.112  0.2390 -0.1052  0.1942
  221loPI   C2B 3534  15.896   2.857   8.642  0.1084  0.2015 -0.0708
  221loPI   C3B 3535  15.689   2.993   8.286 -0.0336 -0.2415 -0.1006
  221loPI   C4B 3536  15.557   3.167   7.867 -0.5021  0.0834 -0.1097
  222loPI    C1 3537  13.406  17.390   9.752  0.0893 -0.0984  0.1974
  222loPI    C2 3538  13.073  17.185   9.667  0.0214  0.1353 -0.1195
  222loPI    C3 3539  13.167  17.265  10.048 -0.1323 -0.1781 -0.0119
  222loPI   PO4 3540  13.583  17.346   9.437 -0.3376  0.1006 -0.1860
  222loPI   GL1 3541  13.599  17.625   9.054 -0.2974 -0.0502  0.3847
  222loPI   GL2 3542  13.369  17.824   9.009  0.0665  0.1954  0.1940
  222loPI   C1A 3543  13.464  17.272   8.675  0.0305 -0.0398 -0.1090
  222loPI   C2A 3544  13.267  17.243   8.316 -0.0626 -0.2359  0.0494
  222loPI   C3A 3545  13.191  17.380   7.940 -0.2379  0.3642  0.2525
  222loPI   C4A 3546  13.249  17.418   7.524  0.3416  0.3975 -0.0947
  222loPI   C5A 3547  13.417  17.283   7.273  0.1557 -0.2497  0.1788
  222loPI   C6A 3548  13.381  16.922   7.441 -0.2299  0.0592 -0.0315
  222loPI   C1B 3549  13.340  17.824   8.610 -0.0762  0.3681  0.0961
  222loPI   C2B 3550  13.401  17.766   8.106  0.0437  0.2426 -0.1912
  222loPI   C3B 3551  13.539  17.751   7.759  0.1403 -0.3886 -0.0707
  222loPI   C4B 3552  13.655  17.851   7.376 -0.3019  0.4076 -0.0670
  223loPI    C1 3553   7.837  10.071  10.243 -0.1501  0.2471 -0.3434
  223loPI    C2 3554   8.195  10.132  10.074 -0.0458  0.1562 -0.1584
  223loPI    C3 3555   8.139  10.215  10.462 -0.0600 -0.3659 -0.0418
  223loPI   PO4 3556   7.669  10.200  10.156 -0.1477 -0.1208  0.1178
  223loPI   GL1 3557   7.797  10.303   9.720  0.2823 -0.0150  0.1327
  223loPI   GL2 3558   7.807   9.988   9.640 -0.3808  0.0648  0.3412
  223loPI   C1A 3559   7.551  10.561   9.410  0.1677 -0.0895 -0.2468
  223loPI   C2A 3560   7.607  10.497   8.922  0.2131  0.3178  0.3165
  223loPI   C3A 3561   7.564  10.512   8.563 -0.0888  0.2667  0.0730
  223loPI   C4A 3562   7.495  10.386   8.137 -0.1338 -0.1764  0.0463
  223loPI   C5A 3563   7.844  10.410   7.847  0.2592  0.0265  0.2426
  223loPI   C6A 3564   8.047  10.729   7.565 -0.0054  0.2145  0.1119
  223loPI   C1B 3565   7.793   9.960   9.293  0.1523  0.1922  0.0528
  223loPI   C2B 3566   7.763   9.937   8.890  0.0165 -0.1002  0.0391
  223loPI   C3B 3567   7.673  10.047   8.528 -0.1766  0.3898  0.0043
  223loPI   C4B 3568   7.807   9.949   8.136 -0.2348  0.1040  0.0746
  224loPI    C1 3569   2.779   2.282   9.781 -0.3662 -0.1861  0.2684
  224loPI    C2 3570   2.986   2.560   9.981  0.1140 -0.1537 -0.2484
  224loPI    C3 3571   2.781   2.281  10.181  0.4499 -0.0338  0.2819
  224loPI   PO4 3572   2.667   2.357   9.538  0.4567  0.0855  0.0484
  224loPI   GL1 3573   2.490   2.447   9.209  0.3862 -0.0004  0.1181
  224loPI   GL2 3574   2.269   2.128   9.339 -0.1059 -0.2164  0.1236
  224loPI   C1A 3575   2.539   2.515   8.782 -0.3652 -0.1270 -0.1963
  224loPI   C2A 3576   2.545   2.489   8.373 -0.1910 -0.2054 -0.1889
  224loPI   C3A 3577   2.583   2.622   7.940 -0.0637  0.1636 -0.2042
  224loPI   C4A 3578   2.308   2.569   7.558 -0.0502  0.0583  0.0338
  224loPI   C5A 3579   2.389   2.552   7.135 -0.0387 -0.1593 -0.5016
  224loPI   C6A 3580   2.222   2.767   6.789 -0.1353  0.1386 -0.4543
  224loPI   C1B 3581   2.339   1.965   8.884 -0.3978  0.1782  0.0405
  224loPI   C2B 3582   2.458   2.014   8.431  0.0655 -0.0347  0.2152
  224loPI   C3B 3583   2.243   2.169   7.979  0.0329  0.2758  0.0909
  224loPI   C4B 3584   1.972   2.254   7.674 -0.0358 -0.0593 -0.3474
  225loPI    C1 3585  13.892  11.322  10.195 -0.2000  0.0591 -0.0204
  225loPI    C2 3586  13.572  11.217  10.412 -0.0984 -0.1232  0.0443
  225loPI    C3 3587  13.897  11.364  10.593 -0.1136 -0.0175 -0.0131
  225loPI   PO4 3588  13.844  11.031  10.056 -0.1368 -0.0554 -0.1804
  225loPI   GL1 3589  13.665  10.834   9.677 -0.0473  0.1553 -0.1913
  225loPI   GL2 3590  13.973  10.750   9.678  0.0407  0.2696  0.0200
  225loPI   C1A 3591  13.598  10.901   9.279 -0.2033  0.0163 -0.2440
  225loPI   C2A 3592  13.760  10.702   8.851 -0.4527  0.0496 -0.1611
  225loPI   C3A 3593  13.852  10.594   8.483 -0.0077  0.1010  0.2295
  225loPI   C4A 3594  14.206  10.416   8.262 -0.2712 -0.4023 -0.2596
  225loPI   C5A 3595  14.360  10.290   7.948  0.0420  0.1415  0.2618
  225loPI   C6A 3596  14.595   9.977   7.707 -0.1667  0.2032  0.2163
  225loPI   C1B 3597  14.104  10.635   9.254 -0.0149 -0.0210  0.3244
  225loPI   C2B 3598  14.133  10.399   8.994 -0.0920  0.0543  0.2633
  225loPI   C3B 3599  14.356  10.159   8.739  0.2719 -0.1200 -0.1293
  225loPI   C4B 3600  14.339   9.885   8.253  0.2676 -0.0565  0.1371
  226loPI    C1 3601   4.667   2.127  10.238 -0.0163  0.0578 -0.2710
  226loPI    C2 3602   4.276   2.207  10.256  0.0149  0.1482  0.0645
  226loPI    C3 3603   4.517   2.320  10.554  0.2718 -0.0517 -0.0634
  226loPI   PO4 3604   4.768   2.145  10.029 -0.1270 -0.0554 -0.2152
  226loPI   GL1 3605   4.861   2.256   9.544  0.1562 -0.1504  0.0680
  226loPI   GL2 3606   5.097   2.114   9.617 -0.1879  0.2843 -0.0763
  226loPI   C1A 3607   4.624   2.236   9.187 -0.2075  0.0646  0.0708
  226loPI   C2A 3608   4.562   2.283   8.761 -0.2757  0.0761  0.1879
  226loPI   C3A 3609   4.479   2.299   8.406 -0.0094 -0.0786  0.0147
  226loPI   C4A 3610   4.644   2.378   7.992 -0.0276 -0.2242 -0.0299
  226loPI   C5A 3611   4.252   2.448   7.786 -0.3003  0.0387 -0.0736
  226loPI   C6A 3612   3.789   2.311   7.714  0.2203 -0.3985  0.4424
  226loPI   C1B 3613   5.156   2.272   9.123 -0.1861  0.0243 -0.1711
  226loPI   C2B 3614   5.049   2.177   8.746  0.0900  0.1156 -0.1388
  226loPI   C3B 3615   4.942   2.469   8.431  0.2194 -0.4924 -0.0472
  226loPI   C4B 3616   5.123   2.473   8.061  0.2590 -0.1937  0.1258
  227loPI    C1 3617   8.092   9.690  10.658 -0.0392  0.0310  0.0185
  227loPI    C2 3618   8.334   9.943  10.851  0.1769 -0.1843  0.0357
  227loPI    C3 3619   8.292   9.568  10.983  0.0174 -0.2176 -0.1066
  227loPI   PO4 3620   8.168   9.692  10.401  0.4001  0.1661  0.1638
  227loPI   GL1 3621   7.961   9.629   9.943 -0.3387  0.1152 -0.2260
  227loPI   GL2 3622   8.007   9.307  10.089 -0.0081  0.1591 -0.0019
  227loPI   C1A 3623   7.981   9.535   9.516 -0.0615  0.0724 -0.2059
  227loPI   C2A 3624   8.013   9.540   9.051 -0.0153 -0.0432  0.2404
  227loPI   C3A 3625   7.900   9.501   8.636 -0.0656  0.1936  0.5034
  227loPI   C4A 3626   7.855   9.425   8.215  0.4275  0.1189  0.1682
  227loPI   C5A 3627   7.553   9.228   8.088 -0.1348  0.1119 -0.2126
  227loPI   C6A 3628   7.256   9.267   7.690 -0.2328  0.2346  0.0664
  227loPI   C1B 3629   7.867   9.074   9.708 -0.1802  0.0144  0.0316
  227loPI   C2B 3630   7.753   9.114   9.257  0.1241 -0.2289  0.1914
  227loPI   C3B 3631   7.809   9.087   8.855  0.1162  0.0371 -0.3539
  227loPI   C4B 3632   7.760   8.897   8.400 -0.1145  0.2312  0.1111
  228loPI    C1 3633  17.007  18.502  10.070 -0.0599 -0.2527  0.2825
  228loPI    C2 3634  16.637  18.382  10.163 -0.1716 -0.2251 -0.1097
  228loPI    C3 3635  16.750  18.759  10.236 -0.1499 -0.2897  0.2013
  228loPI   PO4 3636  17.091  18.462   9.722 -0.0009  0.0323  0.3374
  228loPI   GL1 3637  16.949  18.215   9.339  0.1980 -0.1695  0.2268
  228loPI   GL2 3638  16.993  17.847   9.283  0.1132 -0.1879  0.2350
  228loPI   C1A 3639  17.112  18.325   8.883 -0.1770  0.0678 -0.1235
  228loPI   C2A 3640  17.207  18.226   8.502 -0.1530 -0.2027 -0.1376
  228loPI   C3A 3641  17.146  18.379   8.029 -0.3259 -0.0326 -0.0119
  228loPI   C4A 3642  17.288  18.712   7.745 -0.0131 -0.1697  0.1986
  228loPI   C5A 3643  17.465  18.516   7.352  0.2090 -0.0133 -0.2076
  228loPI   C6A 3644  17.842  18.428   7.108 -0.0389  0.0348 -0.1609
  228loPI   C1B 3645  16.950  17.827   8.845  0.1973 -0.1649 -0.0383
  228loPI   C2B 3646  17.053  17.758   8.489 -0.0480 -0.1517 -0.0087
  228loPI   C3B 3647  16.822  18.034   8.229  0.4751 -0.1386 -0.1160
  228loPI   C4B 3648  16.735  18.191   7.899 -0.0806  0.1487 -0.0410
  229loPI    C1 3649  14.392  15.121   9.598 -0.1988 -0.1745  0.0060
  229loPI    C2 3650  14.415  15.512   9.675  0.1562 -0.2098  0.0981
  229loPI    C3 3651  14.656  15.257   9.867 -0.1553 -0.4885  0.1267
  229loPI   PO4 3652  14.424  15.122   9.295  0.0422 -0.1988  0.0258
  229loPI   GL1 3653  14.290  15.352   8.991 -0.1483 -0.1298  0.1881
  229loPI   GL2 3654  14.080  15.136   8.846 -0.1110  0.1566 -0.2945
  229loPI   C1A 3655  14.443  15.452   8.532  0.3606 -0.0467 -0.2041
  229loPI   C2A 3656  14.472  15.314   8.130 -0.1669 -0.0740 -0.1196
  229loPI   C3A 3657  14.413  15.246   7.777 -0.0960  0.1333 -0.1854
  229loPI   C4A 3658  14.599  15.338   7.385 -0.1592  0.0011 -0.1235
  229loPI   C5A 3659  14.407  15.140   6.980 -0.0396  0.0382 -0.1059
  229loPI   C6A 3660  14.426  14.987   6.623  0.1795  0.5402 -0.2115
  229loPI   C1B 3661  14.094  15.074   8.410 -0.1874 -0.2749  0.1013
  229loPI   C2B 3662  14.051  15.004   8.000 -0.2983 -0.1283 -0.1231
  229loPI   C3B 3663  14.039  15.065   7.561 -0.0982  0.0143 -0.1539
  229loPI   C4B 3664  13.886  15.116   7.245  0.1933 -0.1738  0.0912
  230loPI    C1 3665   3.129   3.493  10.419  0.1393  0.0575  0.1694
  230loPI    C2 3666   2.780   3.385  10.583  0.1058  0.0692  0.1062
  230loPI    C3 3667   3.099   3.145  10.613  0.0645  0.0103  0.0733
  230loPI   PO4 3668   3.073   3.621  10.192  0.1651 -0.0494  0.3090
  230loPI   GL1 3669   3.057   3.521   9.789 -0.1564 -0.0033  0.0691
  230loPI   GL2 3670   2.951   3.845   9.742 -0.2020  0.2459  0.0952
  230loPI   C1A 3671   2.930   3.421   9.351 -0.4407  0.0052  0.0442
  230loPI   C2A 3672   2.958   3.422   8.940 -0.1381  0.0471  0.0680
  230loPI   C3A 3673   2.987   3.600   8.572  0.0593  0.1071  0.2154
  230loPI   C4A 3674   2.935   3.564   8.044 -0.1749 -0.0823  0.2108
  230loPI   C5A 3675   3.029   3.575   7.611 -0.2696 -0.0058  0.0609
  230loPI   C6A 3676   3.208   3.933   7.268 -0.0326  0.0086 -0.0654
  230loPI   C1B 3677   2.880   3.897   9.370  0.2841  0.0442  0.0191
  230loPI   C2B 3678   2.724   3.835   8.960 -0.0620 -0.0178 -0.1890
  230loPI   C3B 3679   2.609   4.008   8.621  0.0388 -0.0233  0.3651
  230loPI   C4B 3680   2.870   4.010   8.303 -0.2647  0.1673  0.0433
  231loPI    C1 3681   3.412   7.437  10.736 -0.0746 -0.1273  0.2533
  231loPI    C2 3682   3.074   7.646  10.691 -0.0163 -0.0538  0.1511
  231loPI    C3 3683   3.206   7.556  11.058 -0.1436 -0.0787  0.1914
  231loPI   PO4 3684   3.353   7.212  10.507 -0.1502 -0.0250  0.0879
  231loPI   GL1 3685   3.333   6.941  10.168 -0.0248 -0.1600  0.0070
  231loPI   GL2 3686   3.477   6.642  10.076  0.3356  0.2192 -0.2330
  231loPI   C1A 3687   3.314   7.210   9.769  0.1996  0.0518  0.1606
  231loPI   C2A 3688   3.214   7.131   9.341 -0.1633 -0.0232  0.0692
  231loPI   C3A 3689   3.118   7.044   8.897  0.2099  0.1232  0.0493
  231loPI   C4A 3690   3.082   7.026   8.449  0.4213 -0.0629  0.2696
  231loPI   C5A 3691   3.201   7.224   8.016  0.0591 -0.2563  0.0455
  231loPI   C6A 3692   3.203   7.081   7.707 -0.0850  0.2096 -0.0053
  231loPI   C1B 3693   3.322   6.680   9.728 -0.3683 -0.2597  0.1387
  231loPI   C2B 3694   3.306   6.620   9.272 -0.2246  0.0913 -0.0723
  231loPI   C3B 3695   3.269   6.610   8.755 -0.0928 -0.0478 -0.0282
  231loPI   C4B 3696   3.320   6.533   8.364 -0.1543  0.2371  0.1090
  232loPI    C1 3697  18.186   8.629  10.485  0.0464 -0.0757  0.1272
  232loPI    C2 3698  18.170   9.004  10.624 -0.0529 -0.0189 -0.0344
  232loPI    C3 3699  18.377   8.725  10.823 -0.0673  0.0960  0.1438
  232loPI   PO4 3700  18.293   8.701  10.221 -0.1209 -0.1003 -0.2189
  232loPI   GL1 3701  18.185   8.811   9.763 -0.1805  0.1046 -0.1719
  232loPI   GL2 3702  18.321   9.116   9.744  0.0749  0.0085 -0.1775
  232loPI   C1A 3703  18.283   8.572   9.446 -0.2712 -0.0786  0.1299
  232loPI   C2A 3704  18.386   8.626   9.055 -0.3145  0.0784 -0.0225
  232loPI   C3A 3705  18.315   8.486   8.703  0.1306 -0.3123 -0.0201
  232loPI   C4A 3706  18.504   8.394   8.284  0.0733  0.0283  0.0825
  232loPI   C5A 3707  18.161   8.276   7.965 -0.0531 -0.0583  0.1393
  232loPI   C6A 3708  17.897   8.043   7.866  0.1455  0.0285  0.1887
  232loPI   C1B 3709  18.175   9.073   9.277  0.1280  0.0669  0.1529
  232loPI   C2B 3710  18.184   9.002   8.828 -0.0866 -0.0440  0.1696
  232loPI   C3B 3711  18.248   8.933   8.386  0.0229  0.2246 -0.1584
  232loPI   C4B 3712  18.336   8.758   7.976  0.0982 -0.1223  0.0811
  233loPI    C1 3713   8.307   1.753  10.089  0.1346  0.0512  0.1683
  233loPI    C2 3714   8.129   1.396  10.114  0.0198  0.0846 -0.1369
  233loPI    C3 3715   7.979   1.708  10.314  0.0467 -0.0076  0.0294
  233loPI   PO4 3716   8.186   1.827   9.803  0.1562  0.2153  0.0514
  233loPI   GL1 3717   8.019   1.927   9.458  0.0220  0.0916 -0.0415
  233loPI   GL2 3718   7.703   2.096   9.486  0.1420 -0.1153 -0.0288
  233loPI   C1A 3719   7.966   1.800   9.144  0.0087  0.0688 -0.1847
  233loPI   C2A 3720   7.906   1.889   8.781  0.1973  0.1888 -0.2341
  233loPI   C3A 3721   8.035   2.005   8.450  0.2119  0.1734 -0.1420
  233loPI   C4A 3722   7.983   2.068   8.010  0.0335 -0.0420  0.3282
  233loPI   C5A 3723   7.715   2.055   7.675 -0.1124  0.1645 -0.2460
  233loPI   C6A 3724   7.852   2.334   7.302 -0.2064  0.0587 -0.1867
  233loPI   C1B 3725   7.544   2.152   9.005 -0.0219  0.2791  0.0520
  233loPI   C2B 3726   7.529   2.105   8.579 -0.1105  0.1482  0.0756
  233loPI   C3B 3727   7.543   1.930   8.188  0.2738  0.0853  0.2890
  233loPI   C4B 3728   7.295   1.781   7.841 -0.0408 -0.0272  0.2552
  234loPI    C1 3729   1.894   3.434  10.452 -0.0756 -0.0740 -0.2656
  234loPI    C2 3730   1.622   3.639  10.662  0.0105  0.1897 -0.4078
  234loPI    C3 3731   1.575   3.246  10.604  0.0992  0.0639  0.2939
  234loPI   PO4 3732   1.947   3.607  10.215  0.0377  0.0792  0.3696
  234loPI   GL1 3733   1.934   3.553   9.785  0.1791 -0.2342 -0.2555
  234loPI   GL2 3734   1.700   3.408   9.639 -0.1769  0.1475 -0.1752
  234loPI   C1A 3735   1.782   3.855   9.433  0.0842  0.2543  0.2345
  234loPI   C2A 3736   1.688   3.856   9.066  0.1332 -0.0131 -0.2669
  234loPI   C3A 3737   1.673   3.899   8.717 -0.0559 -0.3400 -0.1503
  234loPI   C4A 3738   1.627   3.957   8.271 -0.0692 -0.0259  0.2159
  234loPI   C5A 3739   1.342   3.699   8.037  0.0255 -0.1728  0.2284
  234loPI   C6A 3740   1.246   3.292   7.989 -0.3637  0.0521 -0.0797
  234loPI   C1B 3741   1.934   3.400   9.215 -0.1171  0.1260  0.1924
  234loPI   C2B 3742   1.987   3.399   8.868 -0.3190 -0.0469  0.1199
  234loPI   C3B 3743   1.998   3.462   8.460  0.0565 -0.0659  0.1441
  234loPI   C4B 3744   1.899   3.559   8.082 -0.2022  0.3018 -0.1146
  235loPI    C1 3745   3.111   5.539  10.686 -0.2085 -0.2446 -0.0868
  235loPI    C2 3746   2.801   5.718  10.864  0.1114  0.1283  0.1096
  235loPI    C3 3747   3.064   5.509  11.082  0.2126  0.1397 -0.0007
  235loPI   PO4 3748   2.988   5.436  10.386 -0.1812 -0.2024 -0.0217
  235loPI   GL1 3749   2.881   5.151  10.001 -0.2860 -0.2137  0.1893
  235loPI   GL2 3750   2.700   5.545   9.875 -0.2532 -0.0493 -0.1562
  235loPI   C1A 3751   3.086   5.080   9.679  0.4025 -0.2628  0.0245
  235loPI   C2A 3752   3.032   5.203   9.254  0.2219 -0.1478  0.0734
  235loPI   C3A 3753   3.040   5.283   8.849  0.1455  0.1258  0.0148
  235loPI   C4A 3754   3.052   5.324   8.421  0.1665  0.1337  0.2985
  235loPI   C5A 3755   3.068   5.369   7.997  0.2257 -0.0246 -0.0398
  235loPI   C6A 3756   3.106   5.081   7.624  0.0981  0.1793  0.0317
  235loPI   C1B 3757   2.908   5.580   9.539  0.0413  0.1943  0.0672
  235loPI   C2B 3758   2.873   5.681   9.121  0.3406 -0.5181 -0.1720
  235loPI   C3B 3759   2.723   5.771   8.695  0.1354  0.2759  0.0058
  235loPI   C4B 3760   2.736   5.713   8.261 -0.0795 -0.0591 -0.0450
  236loPI    C1 3761  16.265  16.315   9.483  0.2426 -0.2297 -0.1941
  236loPI    C2 3762  16.407  16.586   9.226 -0.0322  0.2848  0.1794
  236loPI    C3 3763  16.640  16.447   9.520  0.0972  0.1415  0.0108
  236loPI   PO4 3764  16.145  16.150   9.299 -0.3318  0.1647 -0.1253
  236loPI   GL1 3765  16.280  16.190   8.896  0.1609  0.2678  0.2919
  236loPI   GL2 3766  16.606  16.107   8.980  0.0142 -0.1371 -0.0444
  236loPI   C1A 3767  16.460  16.270   8.570 -0.0469 -0.0769 -0.0196
  236loPI   C2A 3768  16.379  16.451   8.272  0.2408 -0.0366  0.1711
  236loPI   C3A 3769  16.513  16.617   7.750  0.0609 -0.3075 -0.1289
  236loPI   C4A 3770  16.481  16.346   7.377 -0.0782  0.0383 -0.2841
  236loPI   C5A 3771  16.424  16.446   6.993 -0.1816 -0.0625 -0.5400
  236loPI   C6A 3772  16.601  16.804   6.754 -0.1198 -0.2224  0.0064
  236loPI   C1B 3773  16.768  15.867   8.615 -0.1716  0.0279  0.0713
  236loPI   C2B 3774  16.840  15.758   8.219  0.3251 -0.1435  0.0404
  236loPI   C3B 3775  16.944  15.582   7.804  0.1002 -0.3477 -0.3416
  236loPI   C4B 3776  17.172  15.325   7.422  0.1148 -0.2607 -0.0910
  237loPI    C1 3777   8.378   8.380  10.569 -0.0309  0.0731  0.0208
  237loPI    C2 3778   8.582   8.704  10.683 -0.1677  0.1332  0.0966
  237loPI    C3 3779   8.318   8.536  10.932 -0.3567  0.1744 -0.0736
  237loPI   PO4 3780   8.262   8.368  10.371  0.0481 -0.1766 -0.4225
  237loPI   GL1 3781   8.261   8.176   9.911  0.0674  0.1510  0.0882
  237loPI   GL2 3782   8.004   8.079   9.885 -0.2811  0.0090  0.0786
  237loPI   C1A 3783   8.285   8.208   9.463  0.2154 -0.1843 -0.0214
  237loPI   C2A 3784   8.218   8.180   9.079 -0.1748 -0.1414 -0.0619
  237loPI   C3A 3785   8.211   8.183   8.697 -0.2106 -0.1443 -0.1583
  237loPI   C4A 3786   8.243   8.083   8.303  0.0887 -0.1796  0.2753
  237loPI   C5A 3787   8.258   7.861   8.006 -0.0427 -0.0583  0.0488
  237loPI   C6A 3788   8.064   7.828   7.598 -0.0141 -0.0206 -0.2043
  237loPI   C1B 3789   7.801   8.211   9.600 -0.1272 -0.2020  0.1155
  237loPI   C2B 3790   7.740   8.209   9.298 -0.1595  0.0716  0.0177
  237loPI   C3B 3791   7.713   8.145   8.899 -0.1784  0.1152 -0.1016
  237loPI   C4B 3792   7.699   8.235   8.505 -0.0368  0.1449 -0.1402
  238loPI    C1 3793   4.454  10.135  10.544 -0.0874  0.0467  0.0024
  238loPI    C2 3794   4.269   9.995  10.870 -0.0189  0.1523  0.0870
  238loPI    C3 3795   4.464  10.344  10.884 -0.0082  0.1532 -0.0648
  238loPI   PO4 3796   4.317  10.103  10.387  0.2152 -0.3442  0.1191
  238loPI   GL1 3797   4.152  10.230   9.880  0.0118 -0.1428  0.2120
  238loPI   GL2 3798   4.528  10.222   9.927  0.1964 -0.1504  0.1628
  238loPI   C1A 3799   4.112  10.175   9.467  0.0743  0.3633  0.1647
  238loPI   C2A 3800   4.062  10.068   9.089 -0.0586  0.1391  0.1400
  238loPI   C3A 3801   3.971  10.075   8.695 -0.2590  0.0574  0.2519
  238loPI   C4A 3802   4.241  10.088   8.313  0.0467 -0.0423 -0.0486
  238loPI   C5A 3803   4.314   9.744   8.023  0.1094 -0.0859  0.0767
  238loPI   C6A 3804   4.339   9.200   7.990  0.0285  0.3079 -0.0996
  238loPI   C1B 3805   4.624  10.320   9.542 -0.1799 -0.0905  0.0723
  238loPI   C2B 3806   4.577  10.145   9.107 -0.0445 -0.0750 -0.0969
  238loPI   C3B 3807   4.682  10.045   8.700 -0.0118 -0.1792 -0.0088
  238loPI   C4B 3808   4.712  10.220   8.244  0.3689  0.0825  0.3898
  239loPI    C1 3809   2.392   7.001  10.594  0.0046 -0.2609  0.2933
  239loPI    C2 3810   2.654   7.297  10.651  0.0097 -0.1833 -0.1084
  239loPI    C3 3811   2.561   7.052  10.953  0.0147  0.2169  0.2267
  239loPI   PO4 3812   2.495   6.851  10.438  0.1356  0.2150 -0.0088
  239loPI   GL1 3813   2.600   6.968   9.954 -0.3067  0.0906 -0.1631
  239loPI   GL2 3814   2.885   7.038   9.851  0.3175 -0.2341  0.0253
  239loPI   C1A 3815   2.360   7.111   9.725 -0.0689  0.4013  0.1832
  239loPI   C2A 3816   2.307   7.294   9.294  0.1401  0.0214 -0.0341
  239loPI   C3A 3817   2.389   7.486   8.976 -0.0788 -0.3227 -0.1336
  239loPI   C4A 3818   2.276   7.478   8.571 -0.1366 -0.1925 -0.0212
  239loPI   C5A 3819   1.939   7.673   8.332  0.0431 -0.0213  0.1500
  239loPI   C6A 3820   1.485   7.654   8.298 -0.0989 -0.0978 -0.1538
  239loPI   C1B 3821   2.773   7.064   9.442  0.1428 -0.0264 -0.1031
  239loPI   C2B 3822   2.609   6.998   9.061  0.1431  0.2974  0.2691
  239loPI   C3B 3823   2.611   7.099   8.667 -0.2583 -0.0955  0.0986
  239loPI   C4B 3824   2.629   6.959   8.181  0.1988  0.2877  0.1855
  240loPI    C1 3825   9.634   2.593  10.345  0.0910  0.0885 -0.0153
  240loPI    C2 3826   9.449   2.565  10.699  0.2438 -0.0796  0.0530
  240loPI    C3 3827   9.841   2.643  10.683  0.2627 -0.1969 -0.0750
  240loPI   PO4 3828   9.419   2.417  10.164  0.1306 -0.1369  0.1188
  240loPI   GL1 3829   9.509   2.627   9.823  0.0387 -0.1667 -0.0647
  240loPI   GL2 3830   9.442   2.543   9.520 -0.0449 -0.2275  0.1535
  240loPI   C1A 3831   9.486   3.065   9.651  0.0080  0.0944 -0.0292
  240loPI   C2A 3832   9.614   3.380   9.400  0.1578 -0.0671 -0.2324
  240loPI   C3A 3833   9.363   3.390   9.016 -0.4056 -0.1139  0.2042
  240loPI   C4A 3834   9.367   3.422   8.563 -0.0360 -0.1505  0.1050
  240loPI   C5A 3835   9.241   3.452   8.125 -0.3712 -0.0402 -0.0406
  240loPI   C6A 3836   9.280   3.348   7.783 -0.2446  0.0175 -0.1757
  240loPI   C1B 3837   9.421   2.449   8.989 -0.0698  0.2647 -0.2329
  240loPI   C2B 3838   9.370   2.524   8.486 -0.0591 -0.0014 -0.1249
  240loPI   C3B 3839   9.258   2.476   8.163  0.3327  0.2009 -0.1049
  240loPI   C4B 3840   9.522   2.188   7.861  0.3009  0.3433  0.1261
  241loPI    C1 3841   8.778   4.783  10.577 -0.2316  0.0897 -0.1174
  241loPI    C2 3842   8.942   4.516  10.826  0.0440  0.2202 -0.1556
  241loPI    C3 3843   8.546   4.520  10.769 -0.0224  0.1806  0.2713
  241loPI   PO4 3844   9.022   4.827  10.392 -0.0719 -0.0632 -0.1501
  241loPI   GL1 3845   9.040   5.060  10.017  0.1327 -0.0900  0.4902
  241loPI   GL2 3846   9.346   5.005   9.906 -0.1772  0.1843  0.1524
  241loPI   C1A 3847   8.802   4.879   9.646  0.3556 -0.2334  0.3259
  241loPI   C2A 3848   8.845   4.940   9.187 -0.0296 -0.2978  0.1383
  241loPI   C3A 3849   8.870   4.913   8.746 -0.2782  0.0634  0.0252
  241loPI   C4A 3850   8.841   4.993   8.350 -0.0868  0.1879  0.1993
  241loPI   C5A 3851   8.904   4.849   7.961  0.1509  0.0114 -0.1681
  241loPI   C6A 3852   8.960   4.737   7.559  0.1257 -0.0068 -0.2565
  241loPI   C1B 3853   9.274   4.988   9.424  0.0621  0.0083 -0.1269
  241loPI   C2B 3854   9.293   4.996   8.940  0.1682 -0.0976  0.2674
  241loPI   C3B 3855   9.401   4.918   8.421  0.1552 -0.3080  0.2788
  241loPI   C4B 3856   9.329   4.740   8.054  0.0151  0.1472 -0.0401
  242loPI    C1 3857  12.530  10.599  10.229 -0.2111 -0.0493 -0.0598
  242loPI    C2 3858  12.693  10.856  10.489 -0.1837  0.0655 -0.1895
  242loPI    C3 3859  12.363  10.654  10.588 -0.1381  0.0621 -0.0424
  242loPI   PO4 3860  12.506  10.726   9.997  0.1524  0.3491  0.0736
  242loPI   GL1 3861  12.110  10.852   9.763  0.1979  0.0144 -0.0969
  242loPI   GL2 3862  12.205  10.670   9.583  0.1103  0.3398  0.0098
  242loPI   C1A 3863  11.824  10.826   9.296 -0.0710 -0.1216 -0.1619
  242loPI   C2A 3864  11.740  10.709   8.843 -0.1645 -0.1694 -0.1436
  242loPI   C3A 3865  11.941  10.749   8.428 -0.1448 -0.3899  0.0131
  242loPI   C4A 3866  12.071  10.687   8.109 -0.3625 -0.5116  0.1677
  242loPI   C5A 3867  12.274  10.719   7.668 -0.2654 -0.0968 -0.2588
  242loPI   C6A 3868  12.528  10.980   7.314  0.2331  0.2029 -0.0117
  242loPI   C1B 3869  12.162  10.523   9.147  0.0853  0.2050  0.1174
  242loPI   C2B 3870  12.270  10.536   8.731  0.2388 -0.3799 -0.0041
  242loPI   C3B 3871  12.393  10.486   8.363  0.2330 -0.2275  0.1646
  242loPI   C4B 3872  12.521  10.388   7.994 -0.0535  0.4709  0.0323
  243loPI    C1 3873  13.758  18.508   9.605 -0.0488 -0.0504 -0.2320
  243loPI    C2 3874  13.702  18.852   9.408 -0.1717 -0.0001 -0.1106
  243loPI    C3 3875  13.655  18.839   9.805  0.1089 -0.0927 -0.0784
  243loPI   PO4 3876  13.671  18.336   9.543  0.1691  0.1394  0.1452
  243loPI   GL1 3877  13.520  18.344   9.126 -0.0078 -0.0226  0.3996
  243loPI   GL2 3878  13.244  18.563   9.396  0.1768  0.0317  0.2038
  243loPI   C1A 3879  13.488  18.463   8.656 -0.0181 -0.1712  0.1263
  243loPI   C2A 3880  13.389  18.385   8.256  0.1202  0.1943  0.0123
  243loPI   C3A 3881  13.380  18.281   7.849  0.0289  0.1762 -0.0661
  243loPI   C4A 3882  13.478  18.304   7.423 -0.0605  0.1004 -0.1822
  243loPI   C5A 3883  13.238  18.179   7.044  0.0283  0.4098 -0.2644
  243loPI   C6A 3884  12.900  18.290   7.115 -0.2966  0.0314 -0.0336
  243loPI   C1B 3885  13.120  18.616   8.941  0.2886 -0.0115 -0.2915
  243loPI   C2B 3886  13.035  18.676   8.542  0.1901  0.1503  0.0108
  243loPI   C3B 3887  13.052  18.737   8.153  0.0385 -0.0951  0.4123
  243loPI   C4B 3888  13.207  18.840   7.706 -0.0808  0.0973 -0.0711
  244loPI    C1 3889   6.153  14.377  10.060 -0.1194 -0.2142  0.0181
  244loPI    C2 3890   6.307  14.182  10.373 -0.1892 -0.0479  0.1578
  244loPI    C3 3891   6.040  14.474  10.431 -0.0042  0.1640 -0.0411
  244loPI   PO4 3892   6.015  14.133   9.826 -0.4002 -0.2075  0.1416
  244loPI   GL1 3893   6.096  13.753   9.474  0.2645 -0.0923  0.0788
  244loPI   GL2 3894   6.250  13.947   9.248 -0.0303  0.1112 -0.0992
  244loPI   C1A 3895   5.704  13.850   9.259  0.0269  0.5193 -0.0516
  244loPI   C2A 3896   5.622  13.772   8.874  0.1934 -0.1432 -0.0542
  244loPI   C3A 3897   5.853  13.667   8.492 -0.0519  0.2797 -0.0319
  244loPI   C4A 3898   5.836  13.687   8.068 -0.1036  0.0244 -0.2686
  244loPI   C5A 3899   6.108  13.849   7.664 -0.1755  0.1854 -0.0293
  244loPI   C6A 3900   6.569  13.940   7.508 -0.1372 -0.5678 -0.0530
  244loPI   C1B 3901   6.212  13.799   8.794 -0.3210 -0.1212 -0.1599
  244loPI   C2B 3902   6.286  13.687   8.308 -0.3077  0.4143  0.0142
  244loPI   C3B 3903   6.389  13.495   7.910 -0.1229 -0.0612  0.2845
  244loPI   C4B 3904   6.476  13.271   7.639 -0.2782 -0.0439  0.1188
  245loPI    C1 3905   8.393   3.533  10.254 -0.0040  0.0516 -0.0337
  245loPI    C2 3906   8.438   3.390   9.883 -0.1529 -0.0116 -0.0284
  245loPI    C3 3907   8.262   3.166  10.164  0.0465 -0.0014  0.1068
  245loPI   PO4 3908   8.509   3.811  10.197  0.1140  0.0018  0.0439
  245loPI   GL1 3909   8.826   3.803   9.870  0.0826  0.0234  0.0710
  245loPI   GL2 3910   8.909   3.527   9.872  0.4081 -0.1147  0.2609
  245loPI   C1A 3911   8.735   3.870   9.478  0.1100 -0.0955 -0.1889
  245loPI   C2A 3912   8.692   3.979   9.065 -0.0963 -0.0432 -0.1371
  245loPI   C3A 3913   8.670   4.041   8.700  0.0234 -0.2572  0.1200
  245loPI   C4A 3914   8.838   3.980   8.420  0.0452 -0.1012 -0.0431
  245loPI   C5A 3915   8.933   3.854   8.075 -0.2431  0.1478 -0.3463
  245loPI   C6A 3916   9.205   3.866   7.756  0.1569  0.1151  0.2174
  245loPI   C1B 3917   9.132   3.414   9.499  0.0981 -0.0654  0.3166
  245loPI   C2B 3918   8.849   3.513   9.102 -0.0568  0.1830  0.2199
  245loPI   C3B 3919   8.930   3.536   8.750 -0.2956 -0.0291  0.1837
  245loPI   C4B 3920   8.850   3.421   8.346 -0.2224  0.2381 -0.0677
  246loPI    C1 3921  16.857  11.253  10.385  0.1638  0.0810  0.1924
  246loPI    C2 3922  16.530  11.198  10.608 -0.0592 -0.1203 -0.1732
  246loPI    C3 3923  16.886  11.253  10.784 -0.2547 -0.0972  0.2273
  246loPI   PO4 3924  16.905  10.992  10.207 -0.2706 -0.1132  0.0324
  246loPI   GL1 3925  17.047  10.865   9.844 -0.1245  0.0675 -0.1658
  246loPI   GL2 3926  17.369  10.716   9.890  0.1793  0.1618  0.1947
  246loPI   C1A 3927  17.053  10.881   9.338 -0.1964  0.2038 -0.1627
  246loPI   C2A 3928  17.142  10.846   8.999 -0.1152  0.0428 -0.0835
  246loPI   C3A 3929  17.113  10.702   8.617  0.2811  0.0114 -0.0026
  246loPI   C4A 3930  16.924  10.665   8.417  0.1175 -0.0336 -0.3588
  246loPI   C5A 3931  16.625  10.607   8.077 -0.1730  0.0279  0.0583
  246loPI   C6A 3932  16.417  10.571   7.831  0.1829  0.2824  0.2561
  246loPI   C1B 3933  17.695  10.808   9.483 -0.0137  0.0502 -0.0182
  246loPI   C2B 3934  17.749  10.865   9.037  0.1944 -0.2470  0.0623
  246loPI   C3B 3935  17.697  10.741   8.658 -0.0941  0.1289 -0.2597
  246loPI   C4B 3936  17.563  10.715   8.263  0.1828  0.0827 -0.2694
  247loPI    C1 3937  11.863   1.370  10.194 -0.2078  0.0420 -0.0293
  247loPI    C2 3938  11.719   1.001  10.247 -0.1100 -0.0197 -0.1864
  247loPI    C3 3939  11.636   1.288  10.513  0.1664 -0.2588  0.1678
  247loPI   PO4 3940  11.845   1.424  10.025 -0.0327 -0.1856 -0.1026
  247loPI   GL1 3941  11.791   1.648   9.588  0.0700  0.2165 -0.0743
  247loPI   GL2 3942  11.491   1.581   9.620 -0.2761 -0.2150 -0.3208
  247loPI   C1A 3943  12.046   1.551   9.255  0.2906  0.2282  0.3910
  247loPI   C2A 3944  12.297   1.377   8.896  0.1952 -0.1722  0.1390
  247loPI   C3A 3945  12.205   1.415   8.516  0.1578  0.1034 -0.0526
  247loPI   C4A 3946  12.196   1.196   8.109 -0.2404 -0.1442 -0.2955
  247loPI   C5A 3947  12.177   1.035   7.674  0.1235  0.3081  0.1775
  247loPI   C6A 3948  12.296   0.853   7.242 -0.0535 -0.1784 -0.0928
  247loPI   C1B 3949  11.529   1.560   9.115  0.0703 -0.1979  0.0202
  247loPI   C2B 3950  11.671   1.476   8.714  0.1048  0.3699 -0.1471
  247loPI   C3B 3951  11.685   1.530   8.245 -0.2961 -0.2285 -0.3066
  247loPI   C4B 3952  11.858   1.505   7.855  0.2294  0.1222  0.4052
  248loPI    C1 3953  16.254  16.712   9.837  0.0524 -0.0899 -0.0631
  248loPI    C2 3954  16.377  16.845  10.193 -0.0081  0.2467 -0.1632
  248loPI    C3 3955  16.613  16.606   9.976  0.0661  0.1124  0.0611
  248loPI   PO4 3956  16.087  16.917   9.743  0.0256 -0.0065  0.0480
  248loPI   GL1 3957  16.025  17.153   9.342  0.2730 -0.1663 -0.1265
  248loPI   GL2 3958  16.243  17.400   9.400  0.0765 -0.0913  0.0993
  248loPI   C1A 3959  16.127  16.897   9.005  0.0839 -0.1333  0.0175
  248loPI   C2A 3960  16.151  16.620   8.697  0.0416  0.3778 -0.0514
  248loPI   C3A 3961  16.001  16.832   8.381 -0.0328 -0.0629 -0.0833
  248loPI   C4A 3962  16.045  16.723   7.887 -0.1817 -0.6379  0.1274
  248loPI   C5A 3963  16.120  16.716   7.439  0.0567  0.0830  0.0960
  248loPI   C6A 3964  16.155  16.869   6.951 -0.0304  0.0797  0.1240
  248loPI   C1B 3965  16.477  17.472   9.043 -0.2345 -0.2124 -0.1685
  248loPI   C2B 3966  16.532  17.766   8.553  0.0467 -0.0864 -0.2596
  248loPI   C3B 3967  16.383  17.831   8.097 -0.0326  0.0598  0.1865
  248loPI   C4B 3968  16.212  18.105   7.752  0.1728  0.1756 -0.0293
  249loPI    C1 3969  14.872   7.399  10.288  0.2385  0.0844 -0.0323
  249loPI    C2 3970  14.932   7.724  10.514  0.1873  0.1116 -0.0577
  249loPI    C3 3971  14.572   7.549  10.507  0.2256  0.0308 -0.0130
  249loPI   PO4 3972  14.915   7.445  10.069 -0.0369  0.0987  0.2055
  249loPI   GL1 3973  14.745   7.363   9.644  0.0494 -0.2271  0.5017
  249loPI   GL2 3974  14.611   7.127   9.651 -0.2973 -0.1665 -0.0244
  249loPI   C1A 3975  14.914   7.218   9.195  0.0093 -0.0192 -0.2928
  249loPI   C2A 3976  14.733   7.242   8.871 -0.0301 -0.1561  0.1657
  249loPI   C3A 3977  14.840   7.438   8.506 -0.2565 -0.1113 -0.1551
  249loPI   C4A 3978  14.853   7.307   8.092 -0.0968 -0.1420 -0.3854
  249loPI   C5A 3979  15.195   7.080   7.801 -0.0440 -0.3298 -0.0110
  249loPI   C6A 3980  15.246   6.696   7.607  0.1111  0.3987  0.1587
  249loPI   C1B 3981  14.518   6.973   9.262  0.0835  0.1721 -0.2634
  249loPI   C2B 3982  14.384   6.841   8.794 -0.1873  0.0022 -0.1156
  249loPI   C3B 3983  13.931   6.912   8.641  0.1734  0.1950 -0.2498
  249loPI   C4B 3984  13.560   6.802   8.566  0.2341  0.1180 -0.2948
  250loPI    C1 3985   0.398  10.505  10.796 -0.0552 -0.1681  0.0252
  250loPI    C2 3986   0.737  10.361  10.952 -0.1217 -0.3666 -0.0106
  250loPI    C3 3987   0.394  10.330  11.156 -0.1333 -0.2392 -0.0100
  250loPI   PO4 3988   0.399  10.514  10.527  0.0961  0.1181 -0.2535
  250loPI   GL1 3989   0.467  10.558  10.158  0.1381  0.0967  0.3700
  250loPI   GL2 3990   0.162  10.461  10.063  0.0891  0.2539 -0.3309
  250loPI   C1A 3991   0.868  10.416   9.944  0.1441 -0.1159 -0.1165
  250loPI   C2A 3992   0.930  10.339   9.513 -0.1627 -0.0712 -0.3704
  250loPI   C3A 3993   0.923  10.233   8.976 -0.0348  0.0799 -0.0477
  250loPI   C4A 3994   0.790  10.174   8.613 -0.1090  0.0034 -0.1325
  250loPI   C5A 3995   0.756  10.283   8.127 -0.0312 -0.0197  0.0200
  250loPI   C6A 3996   0.634  10.274   7.720  0.3083  0.1186 -0.1765
  250loPI   C1B 3997   0.364  10.375   9.636  0.1414 -0.0194  0.1413
  250loPI   C2B 3998   0.422  10.238   9.192  0.1986  0.1144  0.1424
  250loPI   C3B 3999   0.311  10.240   8.832  0.1398 -0.2882  0.0284
  250loPI   C4B 4000   0.297  10.157   8.407  0.0216 -0.0804  0.1978
  251loPI    C1 4001  12.925  11.286  10.019  0.0895 -0.0819  0.0001
  251loPI    C2 4002  13.107  11.475  10.321 -0.2261  0.3324 -0.0589
  251loPI    C3 4003  12.752  11.300  10.379 -0.1207  0.0997 -0.1050
  251loPI   PO4 4004  12.999  11.421   9.818 -0.3018  0.0195 -0.1087
  251loPI   GL1 4005  12.829  11.583   9.408 -0.0733 -0.1968 -0.2061
  251loPI   GL2 4006  12.552  11.610   9.502 -0.2582  0.1693 -0.2759
  251loPI   C1A 4007  13.032  11.625   9.072 -0.1191 -0.0588  0.1049
  251loPI   C2A 4008  13.235  11.638   8.742 -0.0801  0.1470 -0.0170
  251loPI   C3A 4009  13.341  11.512   8.317 -0.1658  0.2911 -0.0029
  251loPI   C4A 4010  13.531  11.329   7.888 -0.0024 -0.2330  0.0826
  251loPI   C5A 4011  13.557  10.938   7.616 -0.0751  0.0891  0.0740
  251loPI   C6A 4012  13.738  10.883   7.303  0.0258  0.2466  0.3334
  251loPI   C1B 4013  12.556  11.562   8.984  0.0052  0.1741 -0.3628
  251loPI   C2B 4014  12.708  11.562   8.530 -0.4094 -0.1119 -0.4228
  251loPI   C3B 4015  12.930  11.378   8.074  0.1509  0.3759  0.2608
  251loPI   C4B 4016  13.039  11.177   7.605 -0.1812  0.1672 -0.3396
  252loPI    C1 4017   4.688  15.408  10.094  0.1192  0.0299  0.3471
  252loPI    C2 4018   4.365  15.416  10.329 -0.0216  0.2002  0.1515
  252loPI    C3 4019   4.655  15.687  10.379 -0.0249  0.2010  0.1661
  252loPI   PO4 4020   4.648  15.370   9.858  0.3757  0.0903  0.0643
  252loPI   GL1 4021   4.548  15.006   9.486  0.1658 -0.1874  0.0054
  252loPI   GL2 4022   4.923  14.835   9.441 -0.1671 -0.3295  0.0812
  252loPI   C1A 4023   4.404  14.968   9.043 -0.1385 -0.0041  0.0860
  252loPI   C2A 4024   4.407  14.731   8.710 -0.5049 -0.3581  0.2392
  252loPI   C3A 4025   4.511  14.615   8.290  0.2610 -0.1356 -0.6267
  252loPI   C4A 4026   4.720  14.677   7.871 -0.0641  0.1321 -0.2639
  252loPI   C5A 4027   4.745  14.994   7.655  0.4012  0.1092  0.1896
  252loPI   C6A 4028   4.855  15.123   7.291 -0.2117  0.1462  0.1878
  252loPI   C1B 4029   4.855  14.717   9.003  0.1091  0.1099 -0.0837
  252loPI   C2B 4030   4.912  14.661   8.532  0.1789  0.1979  0.0536
  252loPI   C3B 4031   5.091  14.652   8.141 -0.0439  0.1891  0.0596
  252loPI   C4B 4032   5.260  14.600   7.777 -0.0959 -0.2477  0.1197
  253loPI    C1 4033  17.189   7.475  10.650  0.0923 -0.0465  0.1915
  253loPI    C2 4034  16.870   7.405  10.881  0.1416  0.0759  0.2977
  253loPI    C3 4035  17.157   7.129  10.848 -0.0615 -0.1107  0.0560
  253loPI   PO4 4036  17.039   7.666  10.392  0.0015 -0.3499 -0.2007
  253loPI   GL1 4037  17.098   7.659   9.882 -0.2180  0.1988  0.2254
  253loPI   GL2 4038  17.297   7.886   9.827 -0.1513 -0.1585 -0.3259
  253loPI   C1A 4039  16.824   8.025   9.567 -0.2513 -0.1718  0.1073
  253loPI   C2A 4040  16.828   7.884   9.163  0.0797 -0.1898  0.0029
  253loPI   C3A 4041  16.885   7.826   8.825 -0.0153  0.2478  0.0707
  253loPI   C4A 4042  16.805   7.705   8.428  0.0575 -0.0178  0.0048
  253loPI   C5A 4043  16.775   7.957   8.031 -0.2900 -0.1749 -0.1839
  253loPI   C6A 4044  16.870   7.982   7.635  0.0625 -0.0999 -0.1602
  253loPI   C1B 4045  17.482   7.887   9.416 -0.0329  0.0938 -0.0063
  253loPI   C2B 4046  17.482   7.983   9.007 -0.1220  0.0284 -0.1669
  253loPI   C3B 4047  17.520   8.105   8.625 -0.2845  0.0034  0.0383
  253loPI   C4B 4048  17.558   8.212   8.234 -0.0707 -0.4067 -0.0447
  254loPI    C1 4049  16.753  12.226  10.325  0.0204 -0.0882  0.1983
  254loPI    C2 4050  17.089  12.035  10.220  0.1598  0.1316  0.2390
  254loPI    C3 4051  17.001  12.089  10.607  0.0473  0.0238  0.2293
  254loPI   PO4 4052  16.619  12.230  10.057 -0.0051  0.1671 -0.1836
  254loPI   GL1 4053  16.400  12.110   9.685 -0.0114 -0.1035  0.2045
  254loPI   GL2 4054  16.161  12.354   9.517 -0.1482 -0.1419 -0.0765
  254loPI   C1A 4055  16.234  11.828   9.291 -0.1236 -0.2042  0.2335
  254loPI   C2A 4056  16.183  11.836   8.917 -0.3177 -0.0055  0.0990
  254loPI   C3A 4057  16.380  12.016   8.526  0.0675  0.2200 -0.1795
  254loPI   C4A 4058  16.352  12.196   7.993 -0.1673  0.0144  0.0230
  254loPI   C5A 4059  16.487  12.238   7.556 -0.2030  0.0795 -0.0922
  254loPI   C6A 4060  16.377  12.478   7.165  0.0759  0.0444 -0.0888
  254loPI   C1B 4061  16.069  12.304   9.060 -0.1206  0.1972  0.2246
  254loPI   C2B 4062  16.036  12.371   8.734  0.2566  0.0584  0.2367
  254loPI   C3B 4063  15.959  12.287   8.349  0.3411 -0.3571  0.2104
  254loPI   C4B 4064  15.614  12.221   7.956 -0.3572 -0.1349  0.0896
  255loPI    C1 4065   4.072  15.112  10.076 -0.0971  0.1986  0.0349
  255loPI    C2 4066   4.437  14.959  10.134 -0.1093  0.1470 -0.0234
  255loPI    C3 4067   4.116  14.777  10.289 -0.1213  0.1279 -0.0705
  255loPI   PO4 4068   4.148  15.282   9.898 -0.0891  0.0525  0.2286
  255loPI   GL1 4069   4.217  15.422   9.467 -0.0936  0.1079 -0.2027
  255loPI   GL2 4070   4.468  15.474   9.367  0.2799  0.0177  0.1320
  255loPI   C1A 4071   4.111  15.349   9.120  0.2585  0.1246 -0.1163
  255loPI   C2A 4072   4.081  15.305   8.685  0.5024 -0.4749 -0.2089
  255loPI   C3A 4073   3.968  15.288   8.294  0.0076  0.0405 -0.2440
  255loPI   C4A 4074   3.995  15.164   7.955  0.2724 -0.0165  0.0356
  255loPI   C5A 4075   3.783  15.356   7.620  0.1822  0.1042  0.0380
  255loPI   C6A 4076   3.681  15.757   7.327  0.1611 -0.0865  0.3597
  255loPI   C1B 4077   4.472  15.530   8.879  0.1658 -0.0502  0.1187
  255loPI   C2B 4078   4.351  15.677   8.440  0.0807  0.2927  0.1910
  255loPI   C3B 4079   4.535  15.592   7.992  0.1161  0.1850  0.4902
  255loPI   C4B 4080   4.831  15.509   7.680 -0.1651 -0.0632 -0.2724
  256loPI    C1 4081   7.036   0.112  10.643  0.0450  0.1492  0.2516
  256loPI    C2 4082   6.797  -0.206  10.682 -0.0789  0.2151  0.0453
  256loPI    C3 4083   7.071  -0.127  10.962 -0.1858  0.0445  0.2007
  256loPI   PO4 4084   7.059   0.101  10.273  0.2681  0.2659  0.3323
  256loPI   GL1 4085   7.220   0.300   9.942 -0.0089  0.0038 -0.1093
  256loPI   GL2 4086   7.120   0.007   9.715 -0.2789 -0.2144  0.1353
  256loPI   C1A 4087   7.039   0.581   9.635  0.1322  0.0461  0.3346
  256loPI   C2A 4088   7.071   0.983   9.326 -0.0058  0.0105  0.1332
  256loPI   C3A 4089   6.988   0.993   8.877  0.1193  0.0141 -0.2977
  256loPI   C4A 4090   6.901   1.063   8.398  0.2368 -0.0175 -0.0781
  256loPI   C5A 4091   6.946   1.099   7.923  0.1206 -0.0944  0.0620
  256loPI   C6A 4092   6.748   0.874   7.547 -0.0073 -0.0941 -0.2538
  256loPI   C1B 4093   7.065   0.222   9.328  0.0027 -0.0050  0.2708
  256loPI   C2B 4094   7.052   0.160   8.910  0.0698  0.0781  0.1868
  256loPI   C3B 4095   7.056   0.125   8.440 -0.1034 -0.0922  0.2707
  256loPI   C4B 4096   7.122   0.168   7.966 -0.1538  0.0981 -0.0772
  257loPI    C1 4097   2.329  10.011  10.561  0.3553  0.1140 -0.3483
  257loPI    C2 4098   2.420  10.370  10.409  0.1715  0.4057  0.2024
  257loPI    C3 4099   2.665  10.197  10.674  0.0977  0.2747  0.1861
  257loPI   PO4 4100   2.076   9.975  10.493  0.1591 -0.3143 -0.0398
  257loPI   GL1 4101   1.952  10.225  10.138 -0.1303  0.0287  0.1714
  257loPI   GL2 4102   2.131  10.004   9.987 -0.0727  0.0237  0.3312
  257loPI   C1A 4103   1.903  10.319   9.671 -0.0704  0.3408  0.3704
  257loPI   C2A 4104   1.926  10.205   9.186  0.0920  0.0419  0.1110
  257loPI   C3A 4105   1.857  10.134   8.812  0.0928  0.1407  0.1016
  257loPI   C4A 4106   1.807  10.083   8.318  0.2454 -0.3476  0.0537
  257loPI   C5A 4107   2.119  10.181   7.961 -0.2573  0.0928  0.3402
  257loPI   C6A 4108   2.295  10.540   7.704  0.2684  0.1686  0.0242
  257loPI   C1B 4109   2.184   9.717   9.729  0.1159 -0.0460 -0.1636
  257loPI   C2B 4110   2.174   9.734   9.292 -0.1083  0.0669 -0.3141
  257loPI   C3B 4111   2.132   9.606   8.815  0.1208  0.5764  0.0338
  257loPI   C4B 4112   2.089   9.640   8.373 -0.3162 -0.1032 -0.1305
  258loPI    C1 4113  11.677  14.103   9.697 -0.0123  0.4123  0.1193
  258loPI    C2 4114  11.435  13.963   9.410  0.3488 -0.0416  0.0239
  258loPI    C3 4115  11.398  13.831   9.786  0.1246  0.2693  0.1154
  258loPI   PO4 4116  11.993  14.023   9.520  0.0125 -0.0566  0.3105
  258loPI   GL1 4117  12.087  13.810   9.157 -0.1737 -0.0547  0.0779
  258loPI   GL2 4118  12.085  14.090   9.049 -0.0654  0.0631 -0.1046
  258loPI   C1A 4119  12.307  13.749   8.810  0.2445  0.0304 -0.0957
  258loPI   C2A 4120  12.230  13.783   8.375  0.0652  0.1737  0.1464
  258loPI   C3A 4121  12.434  13.861   8.011 -0.0291 -0.1751 -0.2013
  258loPI   C4A 4122  12.775  14.065   7.762 -0.1713  0.2815 -0.1750
  258loPI   C5A 4123  12.881  14.088   7.322  0.0275  0.1635 -0.0329
  258loPI   C6A 4124  12.690  14.267   6.952 -0.3013  0.1785  0.0728
  258loPI   C1B 4125  12.151  14.187   8.580 -0.0111  0.0871 -0.1039
  258loPI   C2B 4126  12.128  14.209   8.177 -0.0368  0.0320 -0.0833
  258loPI   C3B 4127  12.327  14.314   7.747  0.1591  0.0778 -0.2063
  258loPI   C4B 4128  12.403  14.217   7.380 -0.1676 -0.0808  0.2831
  259loPI    C1 4129   4.706  17.860  10.347  0.3325  0.0611  0.0651
  259loPI    C2 4130   4.563  18.163  10.566  0.3662  0.0388  0.1180
  259loPI    C3 4131   4.584  17.795  10.722  0.1326 -0.0332 -0.0152
  259loPI   PO4 4132   4.673  17.944  10.142  0.0438  0.1325 -0.1950
  259loPI   GL1 4133   4.701  17.926   9.716  0.0039 -0.1489 -0.1956
  259loPI   GL2 4134   4.712  18.217   9.728  0.4213 -0.4045 -0.0936
  259loPI   C1A 4135   4.584  18.021   9.352 -0.1184  0.3596 -0.0451
  259loPI   C2A 4136   4.535  17.995   8.954 -0.0858 -0.1801  0.2428
  259loPI   C3A 4137   4.498  17.838   8.596  0.0667 -0.3596  0.1109
  259loPI   C4A 4138   4.230  17.660   8.194 -0.3168  0.2031 -0.0983
  259loPI   C5A 4139   4.199  17.885   7.809 -0.1114  0.1114 -0.0192
  259loPI   C6A 4140   3.970  18.173   7.416  0.0636  0.1659  0.1997
  259loPI   C1B 4141   4.980  18.510   9.370 -0.0731  0.1446  0.2577
  259loPI   C2B 4142   5.190  18.714   8.982 -0.2244  0.0777  0.0883
  259loPI   C3B 4143   5.032  18.730   8.627  0.0641  0.0102 -0.3158
  259loPI   C4B 4144   5.062  18.402   8.273 -0.0646  0.0784 -0.3554
  260loPI    C1 4145  14.548   4.318  10.041  0.1968 -0.0930  0.1151
  260loPI    C2 4146  14.660   4.428  10.409 -0.0604  0.0188  0.1618
  260loPI    C3 4147  14.354   4.176  10.361 -0.0061 -0.0219  0.0246
  260loPI   PO4 4148  14.820   4.275   9.953  0.2445  0.0853 -0.1189
  260loPI   GL1 4149  14.950   4.200   9.501  0.3187  0.1820  0.2140
  260loPI   GL2 4150  14.977   3.896   9.458  0.3722 -0.2440  0.4047
  260loPI   C1A 4151  15.261   4.377   9.191 -0.4244  0.0412 -0.0113
  260loPI   C2A 4152  15.342   4.635   8.896 -0.2308 -0.0063  0.0889
  260loPI   C3A 4153  15.217   4.552   8.509 -0.0775  0.0009 -0.0931
  260loPI   C4A 4154  15.199   4.313   8.160 -0.4198 -0.0057  0.0579
  260loPI   C5A 4155  15.027   4.613   7.837  0.0267  0.0289  0.1617
  260loPI   C6A 4156  14.843   4.825   7.484  0.1321 -0.1945  0.0239
  260loPI   C1B 4157  14.979   3.993   9.033  0.0791  0.2518 -0.0080
  260loPI   C2B 4158  15.052   4.024   8.625 -0.0191  0.1312 -0.3193
  260loPI   C3B 4159  14.973   3.907   8.272 -0.1241  0.3479  0.1977
  260loPI   C4B 4160  14.753   3.729   7.999  0.2303  0.0028 -0.2497
  261loPI    C1 4161  16.888   3.824  10.002 -0.0516  0.2026  0.0412
  261loPI    C2 4162  17.048   3.750  10.360  0.2175 -0.0581 -0.1279
  261loPI    C3 4163  16.745   4.009  10.326  0.3016  0.0990  0.2611
  261loPI   PO4 4164  17.091   3.849   9.863  0.0454  0.0798 -0.0838
  261loPI   GL1 4165  17.363   4.028   9.720 -0.0729 -0.0342 -0.1744
  261loPI   GL2 4166  17.721   3.904   9.637 -0.1515 -0.0513 -0.1006
  261loPI   C1A 4167  17.340   4.046   9.296 -0.0794 -0.0731 -0.2648
  261loPI   C2A 4168  17.074   3.946   8.991  0.1185  0.1369 -0.5412
  261loPI   C3A 4169  17.061   4.000   8.573  0.1866 -0.2222 -0.3427
  261loPI   C4A 4170  17.118   4.070   8.236  0.0525  0.1080 -0.2897
  261loPI   C5A 4171  17.049   4.049   7.894  0.2564 -0.2781  0.1906
  261loPI   C6A 4172  16.911   3.936   7.432 -0.3953 -0.3012  0.0441
  261loPI   C1B 4173  17.812   3.924   9.233  0.1597 -0.0672  0.1281
  261loPI   C2B 4174  17.710   4.013   8.893 -0.3180  0.1354 -0.0795
  261loPI   C3B 4175  17.745   3.973   8.452  0.0256  0.0247 -0.2230
  261loPI   C4B 4176  17.613   3.902   8.071 -0.4092 -0.3120  0.0614
  262loPI    C1 4177   1.099  15.285  10.127 -0.0191 -0.0449  0.0445
  262loPI    C2 4178   1.077  15.237  10.524  0.0629 -0.4930  0.0004
  262loPI    C3 4179   1.433  15.274  10.346  0.0171 -0.0502 -0.0108
  262loPI   PO4 4180   0.918  15.418  10.072  0.1310  0.3595  0.1473
  262loPI   GL1 4181   0.639  15.272   9.630 -0.2589 -0.2178 -0.0487
  262loPI   GL2 4182   0.716  15.513   9.614  0.1412 -0.1241  0.1477
  262loPI   C1A 4183   0.610  15.037   9.281 -0.0404  0.1948  0.0406
  262loPI   C2A 4184   0.499  15.001   8.931  0.1407 -0.1709  0.1629
  262loPI   C3A 4185   0.593  14.990   8.576 -0.0280  0.0931  0.0359
  262loPI   C4A 4186   0.712  14.955   8.172  0.3383  0.0579 -0.3714
  262loPI   C5A 4187   0.844  14.611   7.900  0.1071 -0.3079 -0.1780
  262loPI   C6A 4188   0.690  14.469   7.552  0.3557 -0.2213  0.2812
  262loPI   C1B 4189   0.855  15.545   9.225 -0.0137 -0.1254  0.2119
  262loPI   C2B 4190   0.915  15.306   8.869 -0.0686 -0.0426 -0.2666
  262loPI   C3B 4191   0.845  15.407   8.458 -0.0047 -0.0245 -0.1065
  262loPI   C4B 4192   0.875  15.359   7.943 -0.1242 -0.4645 -0.2447
  263loPI    C1 4193  17.780   7.389  10.803  0.0104  0.1010 -0.1135
  263loPI    C2 4194  17.531   7.374  11.116 -0.1994 -0.2741 -0.2924
  263loPI    C3 4195  17.893   7.206  11.140 -0.1889 -0.2424 -0.2283
  263loPI   PO4 4196  17.624   7.251  10.507  0.0566  0.1711 -0.0251
  263loPI   GL1 4197  17.523   7.336  10.009  0.0193 -0.3038 -0.0555
  263loPI   GL2 4198  17.706   7.472   9.807  0.0002 -0.1532  0.1960
  263loPI   C1A 4199  17.272   7.171   9.749 -0.1433 -0.0150 -0.0196
  263loPI   C2A 4200  17.337   6.983   9.341  0.3211  0.1412  0.0157
  263loPI   C3A 4201  17.530   7.052   9.001 -0.2106 -0.2102 -0.0050
  263loPI   C4A 4202  17.584   7.166   8.542  0.0871  0.1431 -0.2976
  263loPI   C5A 4203  17.480   7.111   8.145 -0.1793  0.3054 -0.0621
  263loPI   C6A 4204  17.060   7.047   7.895 -0.1539  0.0403 -0.0310
  263loPI   C1B 4205  17.622   7.436   9.331 -0.2022  0.1590 -0.0164
  263loPI   C2B 4206  17.745   7.546   8.834 -0.2424 -0.3980 -0.0307
  263loPI   C3B 4207  17.795   7.664   8.363  0.2162  0.1869 -0.2435
  263loPI   C4B 4208  17.943   7.518   8.085 -0.0213 -0.2889  0.2081
  264loPI    C1 4209  12.895   5.363  10.316  0.1286 -0.0022  0.1368
  264loPI    C2 4210  12.660   5.403  10.638  0.1230  0.1136  0.1185
  264loPI    C3 4211  12.826   5.726  10.469 -0.2618  0.1110 -0.2847
  264loPI   PO4 4212  12.777   5.188  10.227 -0.2647 -0.2093  0.4010
  264loPI   GL1 4213  12.582   5.094   9.918 -0.3346 -0.2374 -0.1872
  264loPI   GL2 4214  12.746   4.805   9.677 -0.1369 -0.0204 -0.1004
  264loPI   C1A 4215  12.328   5.028   9.514 -0.2667 -0.3526  0.0465
  264loPI   C2A 4216  12.228   5.058   9.031  0.2503  0.1359 -0.1960
  264loPI   C3A 4217  12.188   5.095   8.544  0.1118 -0.0859  0.0297
  264loPI   C4A 4218  12.181   5.186   8.118  0.4560  0.1401 -0.0562
  264loPI   C5A 4219  12.180   5.331   7.723 -0.0497  0.1783  0.2442
  264loPI   C6A 4220  12.314   5.375   7.298 -0.0704  0.0887 -0.1430
  264loPI   C1B 4221  12.752   4.892   9.263 -0.1243 -0.0316 -0.2282
  264loPI   C2B 4222  12.822   4.895   8.825  0.2339  0.1874 -0.4090
  264loPI   C3B 4223  12.796   5.103   8.508 -0.1801 -0.0543 -0.2836
  264loPI   C4B 4224  12.656   5.070   8.046  0.0303 -0.0327  0.0110
  265loPI    C1 4225  13.242   6.796  10.389 -0.1505  0.0803  0.1154
  265loPI    C2 4226  13.410   6.550  10.656 -0.1927 -0.1710 -0.0854
  265loPI    C3 4227  13.132   6.812  10.773 -0.0776 -0.1505  0.1477
  265loPI   PO4 4228  13.465   6.890  10.281 -0.1146 -0.1881 -0.1880
  265loPI   GL1 4229  13.669   6.648   9.908 -0.0059  0.2569 -0.2355
  265loPI   GL2 4230  13.940   6.461   9.937  0.0493  0.0815 -0.0104
  265loPI   C1A 4231  13.521   6.683   9.486 -0.1543  0.0550 -0.1767
  265loPI   C2A 4232  13.479   6.806   9.069 -0.0820  0.1229  0.0259
  265loPI   C3A 4233  13.391   7.135   8.914 -0.2403 -0.1840  0.0754
  265loPI   C4A 4234  13.225   7.250   8.509  0.1453  0.2736  0.2987
  265loPI   C5A 4235  13.331   7.035   8.126 -0.0324  0.0331 -0.0074
  265loPI   C6A 4236  13.550   6.849   7.806 -0.0148 -0.0276  0.0848
  265loPI   C1B 4237  13.945   6.300   9.554  0.0662 -0.0204  0.1583
  265loPI   C2B 4238  13.845   6.434   9.098 -0.3896  0.0832  0.0036
  265loPI   C3B 4239  14.088   6.421   8.768 -0.2227  0.0679 -0.2711
  265loPI   C4B 4240  14.246   6.619   8.412  0.1334 -0.1347 -0.1998
  266loPI    C1 4241   4.944  10.166  10.802 -0.1368 -0.0371 -0.0653
  266loPI    C2 4242   5.327  10.060  10.755 -0.1539 -0.0592 -0.1569
  266loPI    C3 4243   5.044   9.779  10.789 -0.1394 -0.0443  0.1075
  266loPI   PO4 4244   4.925  10.378  10.567  0.0829 -0.3267 -0.3308
  266loPI   GL1 4245   4.980  10.398  10.055  0.2478  0.1220  0.0563
  266loPI   GL2 4246   5.207  10.211   9.930 -0.0813 -0.0824 -0.0463
  266loPI   C1A 4247   5.003  10.604   9.623  0.0690 -0.1781 -0.0257
  266loPI   C2A 4248   4.965  10.535   9.193  0.0823  0.0486 -0.1985
  266loPI   C3A 4249   4.889  10.491   8.752 -0.3608 -0.4994 -0.2121
  266loPI   C4A 4250   5.005  10.705   8.413  0.1041  0.3264  0.2406
  266loPI   C5A 4251   5.250  10.839   8.100 -0.2539 -0.0502  0.0187
  266loPI   C6A 4252   5.558  10.967   7.737  0.0684  0.1892  0.1418
  266loPI   C1B 4253   5.293  10.217   9.391 -0.2403  0.2797  0.0812
  266loPI   C2B 4254   5.121  10.098   8.926 -0.1760  0.0260  0.0997
  266loPI   C3B 4255   5.134  10.014   8.397 -0.0347 -0.0956  0.1378
  266loPI   C4B 4256   5.142   9.945   7.984  0.0086 -0.3102  0.0021
  267loPI    C1 4257  13.988  10.525  10.259 -0.0771 -0.2142  0.0739
  267loPI    C2 4258  13.683  10.638  10.492 -0.0271 -0.0415  0.0568
  267loPI    C3 4259  14.019  10.855  10.482  0.0161 -0.1130 -0.0866
  267loPI   PO4 4260  13.821  10.329  10.039  0.0330  0.1400 -0.2071
  267loPI   GL1 4261  13.854  10.207   9.715  0.1265  0.2409 -0.0852
  267loPI   GL2 4262  13.555  10.335   9.665  0.0849  0.1044  0.0433
  267loPI   C1A 4263  14.143  10.105   9.389  0.2958  0.4384 -0.2990
  267loPI   C2A 4264  14.079   9.843   9.020  0.1801  0.2605 -0.1289
  267loPI   C3A 4265  14.116   9.651   8.630 -0.0214  0.2200 -0.2526
  267loPI   C4A 4266  14.075   9.366   8.172 -0.1281 -0.2430 -0.3517
  267loPI   C5A 4267  13.871   9.317   7.811  0.1780  0.0510  0.1806
  267loPI   C6A 4268  13.840   9.564   7.339  0.3060 -0.2564  0.0087
  267loPI   C1B 4269  13.625  10.334   9.216  0.0772 -0.0185  0.1860
  267loPI   C2B 4270  13.702  10.131   8.812  0.2604  0.1455 -0.1440
  267loPI   C3B 4271  13.909  10.064   8.417  0.1766 -0.2956 -0.0843
  267loPI   C4B 4272  13.791   9.797   8.022  0.0728  0.1767  0.0548
  268loPI    C1 4273   5.525  13.705  10.524 -0.1037  0.0457  0.0965
  268loPI    C2 4274   5.209  13.913  10.395 -0.1371  0.0240  0.1429
  268loPI    C3 4275   5.292  13.896  10.786 -0.1594 -0.0849  0.1432
  268loPI   PO4 4276   5.552  13.565  10.224 -0.2730  0.0626  0.1328
  268loPI   GL1 4277   5.397  13.201   9.906  0.0019  0.3248  0.1476
  268loPI   GL2 4278   5.163  12.983   9.724 -0.0887 -0.1971 -0.0023
  268loPI   C1A 4279   5.270  13.420   9.495 -0.0478 -0.2404 -0.3342
  268loPI   C2A 4280   5.082  13.318   9.118 -0.1145 -0.3093  0.0317
  268loPI   C3A 4281   5.018  13.348   8.770 -0.1455 -0.1177  0.1154
  268loPI   C4A 4282   5.011  13.316   8.408  0.0855 -0.0755  0.1896
  268loPI   C5A 4283   4.872  13.295   7.914 -0.2324  0.5187  0.2256
  268loPI   C6A 4284   5.021  13.138   7.531 -0.1948 -0.0160 -0.2233
  268loPI   C1B 4285   5.274  12.881   9.332 -0.1050  0.0222  0.3815
  268loPI   C2B 4286   5.292  12.841   8.939 -0.4202  0.0843 -0.0913
  268loPI   C3B 4287   5.399  12.842   8.426 -0.3883 -0.0568  0.3754
  268loPI   C4B 4288   5.266  12.974   8.062 -0.1898  0.1583  0.0293
  269loPI    C1 4289  12.252   5.982  10.305 -0.1193  0.0050  0.1712
  269loPI    C2 4290  11.899   5.830  10.416 -0.1866 -0.0679 -0.1342
  269loPI    C3 4291  12.236   5.628  10.489 -0.2655 -0.3153 -0.4314
  269loPI   PO4 4292  12.231   6.019  10.075  0.1493 -0.3523  0.0828
  269loPI   GL1 4293  12.255   5.771   9.655 -0.1932 -0.1745  0.1406
  269loPI   GL2 4294  12.019   5.644   9.605  0.0469  0.0520  0.2323
  269loPI   C1A 4295  12.398   5.917   9.209  0.1952 -0.1581  0.0409
  269loPI   C2A 4296  12.389   5.989   8.803  0.0626  0.0788  0.1102
  269loPI   C3A 4297  12.541   6.055   8.368  0.0394 -0.0071 -0.0508
  269loPI   C4A 4298  12.812   5.916   8.015  0.2381 -0.1719 -0.3282
  269loPI   C5A 4299  13.051   5.940   7.649  0.2518 -0.1556  0.1781
  269loPI   C6A 4300  13.306   5.962   7.383  0.0613 -0.0622 -0.0257
  269loPI   C1B 4301  12.001   5.675   9.154 -0.1360  0.1192 -0.0689
  269loPI   C2B 4302  12.015   5.558   8.794 -0.1168  0.1072 -0.2707
  269loPI   C3B 4303  12.053   5.683   8.445 -0.1234  0.1751 -0.0757
  269loPI   C4B 4304  12.240   5.861   8.051 -0.2291 -0.0237  0.0759
  270loPI    C1 4305  10.209   8.259  10.208  0.2185 -0.0785 -0.0640
  270loPI    C2 4306   9.853   8.295  10.386  0.2523  0.0111 -0.0137
  270loPI    C3 4307  10.169   8.495  10.528  0.3012  0.0074 -0.1163
  270loPI   PO4 4308  10.156   7.899  10.164 -0.2584 -0.2632  0.4349
  270loPI   GL1 4309   9.984   7.496   9.958 -0.0844  0.2289 -0.0217
  270loPI   GL2 4310   9.944   7.724   9.719 -0.4452 -0.1044 -0.2165
  270loPI   C1A 4311   9.844   7.209   9.538  0.0667 -0.2965  0.0093
  270loPI   C2A 4312   9.730   7.182   9.086 -0.2244 -0.2050  0.0793
  270loPI   C3A 4313   9.680   7.161   8.667  0.0575  0.0303 -0.1016
  270loPI   C4A 4314   9.679   7.114   8.282  0.1041 -0.0838  0.2267
  270loPI   C5A 4315   9.991   6.918   7.957  0.0529 -0.1709 -0.1842
  270loPI   C6A 4316  10.234   6.630   7.787  0.0520  0.2292 -0.1429
  270loPI   C1B 4317   9.991   7.592   9.320  0.0953  0.2150 -0.0190
  270loPI   C2B 4318  10.029   7.572   8.909 -0.0969 -0.1445 -0.3097
  270loPI   C3B 4319  10.174   7.837   8.480 -0.0607 -0.1927 -0.1952
  270loPI   C4B 4320  10.170   8.083   8.044  0.0870 -0.0313 -0.1369
  271loPI    C1 4321  15.722  11.070  10.658 -0.0301  0.2796  0.0556
  271loPI    C2 4322  16.034  11.315  10.607  0.0092  0.2100 -0.0414
  271loPI    C3 4323  16.092  10.943  10.744  0.0203  0.0517 -0.4606
  271loPI   PO4 4324  15.605  11.099  10.379  0.2090 -0.1356  0.0610
  271loPI   GL1 4325  15.716  10.815   9.972  0.1632  0.0733 -0.3133
  271loPI   GL2 4326  16.052  10.920  10.096  0.0568 -0.3183 -0.1651
  271loPI   C1A 4327  15.961  10.627   9.553  0.3813  0.0133 -0.6779
  271loPI   C2A 4328  15.853  10.456   9.193  0.1901  0.1585 -0.2948
  271loPI   C3A 4329  16.025  10.279   8.853 -0.1687 -0.0265 -0.1341
  271loPI   C4A 4330  15.987   9.959   8.495  0.0262  0.1136 -0.5495
  271loPI   C5A 4331  16.140   9.717   8.200  0.0476  0.0823  0.0485
  271loPI   C6A 4332  16.195   9.605   7.752 -0.5654 -0.0274 -0.2379
  271loPI   C1B 4333  16.186  11.081   9.656 -0.0149  0.0025 -0.1907
  271loPI   C2B 4334  16.077  10.993   9.236 -0.0951  0.2230 -0.3660
  271loPI   C3B 4335  15.964  10.895   8.848 -0.0511 -0.0126  0.2214
  271loPI   C4B 4336  16.137  10.941   8.378 -0.1388 -0.0664  0.1543
  272loPI    C1 4337   5.438  14.893  10.239  0.0704  0.1616 -0.2728
  272loPI    C2 4338   5.357  15.007  10.614  0.1060 -0.1261 -0.1754
  272loPI    C3 4339   5.661  14.758  10.542  0.1995  0.0532 -0.4148
  272loPI   PO4 4340   5.389  15.165  10.140 -0.0565  0.3553 -0.0581
  272loPI   GL1 4341   5.370  15.189   9.650  0.2812 -0.0703 -0.0744
  272loPI   GL2 4342   5.081  15.343   9.606 -0.0543 -0.1258 -0.2157
  272loPI   C1A 4343   5.398  14.868   9.326  0.0620 -0.1879 -0.3332
  272loPI   C2A 4344   5.384  14.737   8.870 -0.1292  0.0549  0.1854
  272loPI   C3A 4345   5.538  14.639   8.470  0.2439  0.0937 -0.2023
  272loPI   C4A 4346   5.751  14.635   8.133 -0.4855  0.0481  0.1239
  272loPI   C5A 4347   5.731  14.744   7.612 -0.4200 -0.2247 -0.2560
  272loPI   C6A 4348   5.537  14.618   7.352  0.2047 -0.0819 -0.0864
  272loPI   C1B 4349   4.898  15.254   9.213  0.1088 -0.0252  0.0847
  272loPI   C2B 4350   4.818  15.163   8.812 -0.3047 -0.0892  0.0780
  272loPI   C3B 4351   4.505  15.147   8.496  0.1683 -0.2186  0.3814
  272loPI   C4B 4352   4.464  15.094   8.045  0.1164 -0.0526 -0.0884
  273loPI    C1 4353  12.488  11.525   9.990 -0.0963  0.1518 -0.1163
  273loPI    C2 4354  12.232  11.351   9.736 -0.0481  0.0334 -0.0845
  273loPI    C3 4355  12.313  11.180  10.088 -0.1056  0.1910  0.0066
  273loPI   PO4 4356  12.412  11.816   9.910  0.1494  0.2177  0.2146
  273loPI   GL1 4357  12.200  11.881   9.686  0.3495 -0.2137 -0.4617
  273loPI   GL2 4358  11.968  11.958   9.593  0.2255  0.1015  0.1660
  273loPI   C1A 4359  12.101  11.576   9.321  0.1741 -0.0027  0.2522
  273loPI   C2A 4360  12.073  11.604   8.846 -0.3140  0.0025  0.2072
  273loPI   C3A 4361  12.242  11.580   8.472  0.0148  0.0508  0.3419
  273loPI   C4A 4362  12.450  11.590   8.108 -0.0050 -0.0115 -0.1182
  273loPI   C5A 4363  12.679  11.538   7.698 -0.0454  0.0412 -0.0494
  273loPI   C6A 4364  12.703  11.486   7.275 -0.1308  0.3416  0.1585
  273loPI   C1B 4365  12.066  11.998   9.130  0.1998  0.0210 -0.0146
  273loPI   C2B 4366  11.894  12.164   8.756  0.0389 -0.0128 -0.2292
  273loPI   C3B 4367  11.882  12.033   8.310 -0.2641  0.3395  0.2580
  273loPI   C4B 4368  11.874  11.648   8.092  0.4381 -0.2776 -0.3006
  274loPI    C1 4369  12.350   0.551   9.938  0.0517  0.1669  0.2556
  274loPI    C2 4370  12.136   0.600  10.273 -0.2799 -0.0384  0.0784
  274loPI    C3 4371  12.253   0.234  10.162 -0.0079  0.0500  0.0661
  274loPI   PO4 4372  12.258   0.613   9.771  0.0829 -0.0113  0.0388
  274loPI   GL1 4373  12.116   0.493   9.386 -0.0675 -0.0583  0.0702
  274loPI   GL2 4374  11.861   0.661   9.427 -0.3953 -0.2694  0.0650
  274loPI   C1A 4375  12.240   0.395   9.046  0.1224 -0.0513  0.0029
  274loPI   C2A 4376  12.291   0.348   8.677 -0.0402 -0.0444 -0.1395
  274loPI   C3A 4377  12.286   0.343   8.342 -0.0302  0.0288  0.2789
  274loPI   C4A 4378  12.198   0.470   7.853  0.1025  0.3237 -0.0542
  274loPI   C5A 4379  11.822   0.512   7.504 -0.4085 -0.2857 -0.2807
  274loPI   C6A 4380  11.432   0.489   7.258 -0.3254  0.0605 -0.2197
  274loPI   C1B 4381  11.534   0.608   9.060 -0.1786  0.2553 -0.0430
  274loPI   C2B 4382  11.492   0.660   8.615 -0.0970  0.1362 -0.0048
  274loPI   C3B 4383  11.426   0.721   8.228 -0.2502 -0.1881  0.1438
  274loPI   C4B 4384  11.345   0.739   7.740  0.0706 -0.0656 -0.2513
  275loPI    C1 4385   2.706  14.133  10.505 -0.1076  0.0078  0.1891
  275loPI    C2 4386   2.909  13.795  10.572 -0.2711 -0.1083  0.1076
  275loPI    C3 4387   2.986  14.121  10.790 -0.1313 -0.2053  0.2056
  275loPI   PO4 4388   2.625  14.080  10.238 -0.1713  0.0374  0.2230
  275loPI   GL1 4389   2.450  14.286   9.942 -0.1520  0.1492 -0.0191
  275loPI   GL2 4390   2.472  13.999   9.762  0.2084  0.2174  0.1740
  275loPI   C1A 4391   2.357  14.478   9.577  0.1277 -0.0797  0.0181
  275loPI   C2A 4392   2.521  14.403   9.154 -0.3143 -0.1426  0.1753
  275loPI   C3A 4393   2.637  14.418   8.701 -0.1374 -0.0471 -0.1396
  275loPI   C4A 4394   2.680  14.481   8.319  0.0345 -0.2669  0.2252
  275loPI   C5A 4395   2.791  14.619   7.924  0.0198 -0.0164 -0.1983
  275loPI   C6A 4396   2.660  14.544   7.525 -0.3010  0.0050  0.1676
  275loPI   C1B 4397   2.601  13.892   9.319 -0.0373  0.1076 -0.1610
  275loPI   C2B 4398   2.749  13.931   8.923 -0.0493 -0.2673  0.0339
  275loPI   C3B 4399   2.598  13.882   8.554 -0.1088 -0.1422  0.2760
  275loPI   C4B 4400   2.705  13.713   8.124  0.1821  0.0494 -0.1684
  276loPI    C1 4401   3.542   2.601  10.210  0.0579 -0.1238  0.0931
  276loPI    C2 4402   3.205   2.587  10.425 -0.0828 -0.0008 -0.1160
  276loPI    C3 4403   3.493   2.848  10.521 -0.0855 -0.0418  0.0061
  276loPI   PO4 4404   3.526   2.655   9.986 -0.0293 -0.2288 -0.3302
  276loPI   GL1 4405   3.581   2.626   9.578  0.0280  0.0942  0.1743
  276loPI   GL2 4406   3.422   2.950   9.585  0.1935 -0.0680 -0.2299
  276loPI   C1A 4407   3.760   2.758   9.127 -0.2313 -0.1876  0.2440
  276loPI   C2A 4408   3.697   2.806   8.688 -0.1802 -0.1676 -0.2198
  276loPI   C3A 4409   3.687   2.994   8.311  0.3408  0.0085 -0.2807
  276loPI   C4A 4410   3.846   3.169   7.921  0.0616  0.1612  0.2262
  276loPI   C5A 4411   3.940   3.431   7.576 -0.0905 -0.1487  0.2278
  276loPI   C6A 4412   3.876   3.768   7.239 -0.2135  0.2575 -0.1373
  276loPI   C1B 4413   3.283   2.939   9.159  0.0453 -0.2378  0.1893
  276loPI   C2B 4414   3.232   3.097   8.657  0.0437  0.1593 -0.1820
  276loPI   C3B 4415   3.183   3.238   8.338 -0.0354 -0.1834  0.1104
  276loPI   C4B 4416   3.284   3.239   7.862  0.1356  0.1853 -0.0887
  277loPI    C1 4417   6.879  13.027  10.113 -0.1249 -0.0536 -0.0815
  277loPI    C2 4418   7.005  13.194  10.454 -0.0717  0.0571 -0.1551
  277loPI    C3 4419   6.698  12.937  10.459 -0.1778  0.1841 -0.0460
  277loPI   PO4 4420   6.835  13.202   9.930 -0.0837 -0.0558  0.1314
  277loPI   GL1 4421   6.666  13.233   9.551 -0.1313  0.1492 -0.2109
  277loPI   GL2 4422   6.359  13.353   9.647  0.3958 -0.0850 -0.0813
  277loPI   C1A 4423   6.562  13.307   9.074  0.0199 -0.1369 -0.0259
  277loPI   C2A 4424   6.518  13.190   8.545 -0.0512  0.3357 -0.1676
  277loPI   C3A 4425   6.595  13.100   8.143  0.2585  0.0026 -0.1359
  277loPI   C4A 4426   6.675  12.854   7.750 -0.0312  0.3360  0.1466
  277loPI   C5A 4427   6.885  12.667   7.394 -0.0680  0.2658  0.1715
  277loPI   C6A 4428   6.805  12.720   6.945 -0.1889  0.0110  0.2307
  277loPI   C1B 4429   6.094  13.313   9.141  0.0148  0.0078 -0.0103
  277loPI   C2B 4430   5.996  13.275   8.805  0.0359  0.0181 -0.0663
  277loPI   C3B 4431   5.995  13.188   8.410 -0.0851 -0.0626 -0.1980
  277loPI   C4B 4432   6.135  13.070   8.011  0.0485 -0.7735 -0.2466
  278loPI    C1 4433  14.638   1.922   9.872 -0.1554  0.0798  0.0234
  278loPI    C2 4434  15.019   1.895   9.990 -0.0834 -0.0108 -0.2233
  278loPI    C3 4435  14.772   1.585  10.040 -0.0833 -0.0081 -0.2063
  278loPI   PO4 4436  14.600   2.035   9.658 -0.0522  0.0925 -0.0623
  278loPI   GL1 4437  14.448   1.808   9.248  0.2761  0.0519  0.1737
  278loPI   GL2 4438  14.693   1.957   9.199  0.4549  0.0722  0.1048
  278loPI   C1A 4439  14.330   1.850   8.815  0.0669  0.0143  0.2064
  278loPI   C2A 4440  14.199   1.834   8.415 -0.0726 -0.2571 -0.2862
  278loPI   C3A 4441  14.172   1.805   7.997 -0.0564  0.3394 -0.1895
  278loPI   C4A 4442  13.999   1.909   7.624  0.1498 -0.0747  0.1291
  278loPI   C5A 4443  13.960   1.796   7.278 -0.0838 -0.1625  0.1586
  278loPI   C6A 4444  13.874   1.768   6.871  0.3489  0.0674 -0.2373
  278loPI   C1B 4445  14.768   1.693   8.749  0.1042 -0.3193  0.0114
  278loPI   C2B 4446  14.739   1.776   8.279  0.0205 -0.0349  0.1153
  278loPI   C3B 4447  14.645   1.673   7.860 -0.0877 -0.0761  0.1730
  278loPI   C4B 4448  14.439   1.785   7.377  0.0151 -0.1779  0.0692
  279loPI    C1 4449   6.462  17.892  10.740 -0.0330  0.0532  0.0393
  279loPI    C2 4450   6.600  18.130  11.029  0.3270 -0.1379  0.0293
  279loPI    C3 4451   6.639  17.733  11.061  0.0757 -0.1774 -0.1319
  279loPI   PO4 4452   6.570  18.020  10.443 -0.0376  0.1941  0.0805
  279loPI   GL1 4453   6.594  18.011   9.923  0.0127 -0.1158 -0.2740
  279loPI   GL2 4454   6.313  17.873   9.774  0.0366  0.1703  0.5668
  279loPI   C1A 4455   6.742  17.927   9.511 -0.1618  0.0722 -0.3716
  279loPI   C2A 4456   7.010  17.889   9.237  0.3348  0.2482  0.1530
  279loPI   C3A 4457   6.959  17.918   8.780  0.1526  0.0072 -0.0969
  279loPI   C4A 4458   7.160  18.016   8.398  0.1826  0.2578  0.2738
  279loPI   C5A 4459   7.296  17.953   7.899 -0.0646  0.0208  0.0637
  279loPI   C6A 4460   7.486  17.885   7.481 -0.0001  0.0838 -0.0842
  279loPI   C1B 4461   6.176  17.819   9.381  0.0812  0.1608  0.1357
  279loPI   C2B 4462   5.961  17.967   8.926  0.2592 -0.2987  0.1746
  279loPI   C3B 4463   6.025  17.912   8.439  0.3016  0.0754 -0.0145
  279loPI   C4B 4464   5.933  17.838   8.059 -0.3018  0.3433 -0.3872
  280loPI    C1 4465  14.786   2.788   9.832 -0.0419 -0.0082  0.0447
  280loPI    C2 4466  15.081   3.054   9.877  0.0204 -0.0958  0.1596
  280loPI    C3 4467  14.938   2.857  10.195  0.0056 -0.2327  0.0692
  280loPI   PO4 4468  14.881   2.646   9.614  0.2565  0.2512  0.0212
  280loPI   GL1 4469  14.751   2.557   9.229  0.0572 -0.1256 -0.0699
  280loPI   GL2 4470  14.573   2.461   9.184  0.2027 -0.0836  0.0381
  280loPI   C1A 4471  15.053   2.670   8.883  0.0987 -0.1274 -0.1673
  280loPI   C2A 4472  14.944   2.602   8.510  0.1499  0.1855 -0.3649
  280loPI   C3A 4473  14.805   2.703   8.095 -0.1413  0.0172  0.1628
  280loPI   C4A 4474  14.755   2.602   7.728  0.1115 -0.1750 -0.2669
  280loPI   C5A 4475  14.964   2.697   7.432 -0.3412 -0.4063 -0.0475
  280loPI   C6A 4476  14.999   2.702   6.946  0.1620  0.0628 -0.1588
  280loPI   C1B 4477  14.622   2.275   8.824  0.0413 -0.0181 -0.0476
  280loPI   C2B 4478  14.527   2.248   8.381  0.0488 -0.0440  0.0735
  280loPI   C3B 4479  14.446   2.161   7.870 -0.0151 -0.2601 -0.0557
  280loPI   C4B 4480  14.327   2.231   7.478 -0.1852 -0.1561  0.2586
  281loPI    C1 4481  10.703   8.690  10.314 -0.1553 -0.2835 -0.0032
  281loPI    C2 4482  10.989   8.411  10.292 -0.0168 -0.1538  0.1238
  281loPI    C3 4483  10.959   8.640  10.618 -0.0683  0.0455 -0.0189
  281loPI   PO4 4484  10.518   8.592  10.171 -0.1691  0.1138  0.0231
  281loPI   GL1 4485  10.288   8.519   9.808  0.1570 -0.2498  0.1413
  281loPI   GL2 4486  10.556   8.542   9.657  0.1744  0.0154  0.2077
  281loPI   C1A 4487  10.090   8.624   9.477 -0.0028  0.1618 -0.0923
  281loPI   C2A 4488  10.088   8.794   8.951  0.3192  0.0747  0.0678
  281loPI   C3A 4489   9.988   8.882   8.581  0.1334 -0.0251  0.0204
  281loPI   C4A 4490  10.004   8.991   8.178  0.0340 -0.1207 -0.1560
  281loPI   C5A 4491   9.673   8.986   7.891  0.1491 -0.1403 -0.0324
  281loPI   C6A 4492   9.848   9.028   7.433  0.3142 -0.1052  0.2027
  281loPI   C1B 4493  10.476   8.703   9.224  0.0432 -0.0297 -0.2300
  281loPI   C2B 4494  10.489   8.777   8.780 -0.0806  0.0735 -0.0941
  281loPI   C3B 4495  10.482   8.837   8.290 -0.1801  0.0965 -0.2026
  281loPI   C4B 4496  10.654   8.931   7.912 -0.1866  0.2601  0.2731
  282loPI    C1 4497   2.183   4.929  10.754  0.1866 -0.2463  0.0226
  282loPI    C2 4498   2.490   4.903  11.010  0.1885 -0.2939  0.0156
  282loPI    C3 4499   2.234   4.598  10.973  0.0918 -0.2220  0.0823
  282loPI   PO4 4500   2.376   5.012  10.509  0.0458 -0.2922  0.1471
  282loPI   GL1 4501   2.401   4.882  10.106  0.0775  0.0186 -0.1595
  282loPI   GL2 4502   2.260   4.681   9.954  0.1935  0.1330  0.0809
  282loPI   C1A 4503   2.360   5.182   9.820  0.3656 -0.2694 -0.0905
  282loPI   C2A 4504   2.612   5.139   9.463  0.0480 -0.1398  0.0287
  282loPI   C3A 4505   2.592   5.264   9.036  0.0414 -0.4495 -0.1523
  282loPI   C4A 4506   2.522   5.363   8.562 -0.1596 -0.1610 -0.3922
  282loPI   C5A 4507   2.554   5.306   8.074 -0.2031  0.0690  0.1659
  282loPI   C6A 4508   2.561   5.536   7.715 -0.3366  0.3621 -0.0899
  282loPI   C1B 4509   2.380   4.722   9.567  0.4450 -0.1592  0.0229
  282loPI   C2B 4510   2.181   4.787   9.120 -0.3454  0.0761  0.1695
  282loPI   C3B 4511   2.227   4.792   8.709  0.0638  0.3326  0.0368
  282loPI   C4B 4512   2.333   4.962   8.370 -0.3162  0.0524 -0.0661
  283loPI    C1 4513  17.033   9.721  10.773 -0.0706  0.1921  0.1385
  283loPI    C2 4514  17.268   9.931  11.020  0.1220 -0.0325  0.1501
  283loPI    C3 4515  17.028   9.645  11.166  0.0851 -0.0269  0.1004
  283loPI   PO4 4516  17.245   9.559  10.579 -0.0949  0.0052 -0.0809
  283loPI   GL1 4517  17.395   9.494  10.139  0.0818  0.0477 -0.3425
  283loPI   GL2 4518  17.064   9.395  10.048  0.0311  0.4660  0.0150
  283loPI   C1A 4519  17.363   9.274   9.687 -0.2966  0.4996  0.0427
  283loPI   C2A 4520  17.450   9.474   9.358 -0.3045  0.1751  0.0827
  283loPI   C3A 4521  17.405   9.459   8.857  0.0181 -0.0499 -0.1250
  283loPI   C4A 4522  17.239   9.273   8.473  0.0622 -0.6304  0.3009
  283loPI   C5A 4523  17.058   9.282   7.964  0.0663  0.1795 -0.2480
  283loPI   C6A 4524  16.930   9.355   7.477  0.3006  0.2073 -0.1541
  283loPI   C1B 4525  16.867   9.535   9.685  0.1411 -0.1167  0.3293
  283loPI   C2B 4526  16.768   9.533   9.334 -0.3259  0.2421 -0.0606
  283loPI   C3B 4527  16.564   9.684   8.911  0.1309  0.2890  0.1266
  283loPI   C4B 4528  16.542   9.774   8.481  0.0047 -0.0829 -0.0127
  284loPI    C1 4529   6.788   7.805  10.645 -0.0412  0.0149 -0.1488
  284loPI    C2 4530   7.159   7.726  10.518  0.0548  0.2049  0.0072
  284loPI    C3 4531   7.100   7.998  10.805 -0.1826 -0.0169  0.1734
  284loPI   PO4 4532   6.676   7.826  10.437 -0.2448 -0.1370  0.1302
  284loPI   GL1 4533   6.803   7.572  10.128  0.1504 -0.0428  0.4390
  284loPI   GL2 4534   7.063   7.376  10.126 -0.0464 -0.1232  0.1877
  284loPI   C1A 4535   6.631   7.303   9.846 -0.0988 -0.0098  0.0652
  284loPI   C2A 4536   6.720   7.276   9.382 -0.0345  0.1101 -0.2519
  284loPI   C3A 4537   6.616   7.302   8.948  0.0053  0.0782 -0.1549
  284loPI   C4A 4538   6.587   7.165   8.537 -0.0704  0.2437 -0.2365
  284loPI   C5A 4539   6.526   6.785   8.257  0.0603 -0.3865  0.0814
  284loPI   C6A 4540   6.188   6.604   7.946  0.0384  0.0891 -0.0153
  284loPI   C1B 4541   7.124   7.219   9.728  0.5868  0.3323  0.1719
  284loPI   C2B 4542   7.196   7.246   9.261  0.2713  0.0047 -0.0431
  284loPI   C3B 4543   7.154   7.262   8.817  0.0008 -0.4281 -0.2713
  284loPI   C4B 4544   7.132   7.374   8.405  0.0851 -0.0955 -0.0510
  285loPI    C1 4545   7.560  13.871  10.447  0.0889  0.1658 -0.0860
  285loPI    C2 4546   7.676  13.637  10.749 -0.2143  0.2097  0.0676
  285loPI    C3 4547   7.745  14.031  10.764  0.0305  0.1731 -0.0556
  285loPI   PO4 4548   7.630  13.893  10.129  0.1570 -0.0040 -0.2757
  285loPI   GL1 4549   7.578  13.789   9.652  0.0289 -0.3310  0.1706
  285loPI   GL2 4550   7.292  14.012   9.773  0.2035 -0.0167 -0.4160
  285loPI   C1A 4551   7.610  13.483   9.445 -0.2116  0.0140 -0.2225
  285loPI   C2A 4552   7.662  13.509   9.122  0.2022 -0.1286  0.1418
  285loPI   C3A 4553   7.593  13.333   8.710 -0.0079 -0.2980 -0.1768
  285loPI   C4A 4554   7.598  13.248   8.297 -0.0021  0.1707 -0.1255
  285loPI   C5A 4555   7.635  13.030   7.974  0.2021 -0.0308 -0.1728
  285loPI   C6A 4556   7.815  12.802   7.689 -0.2951  0.2156 -0.4204
  285loPI   C1B 4557   7.262  13.845   9.345 -0.0999 -0.0396 -0.0636
  285loPI   C2B 4558   7.215  13.828   8.867  0.0662 -0.0336 -0.1483
  285loPI   C3B 4559   7.261  13.623   8.408  0.1944 -0.1577 -0.0225
  285loPI   C4B 4560   7.398  13.576   7.956 -0.2995 -0.1470 -0.1255
  286loPI    C1 4561  17.439   1.627   9.996  0.0565 -0.1457 -0.0277
  286loPI    C2 4562  17.186   1.759  10.277  0.0231 -0.0778 -0.0891
  286loPI    C3 4563  17.580   1.768  10.343  0.0102 -0.1805  0.0056
  286loPI   PO4 4564  17.439   1.714   9.815 -0.1494 -0.2428  0.1146
  286loPI   GL1 4565  17.091   1.524   9.427  0.0278 -0.0440 -0.0685
  286loPI   GL2 4566  16.995   1.753   9.372  0.0100 -0.0072 -0.0984
  286loPI   C1A 4567  17.368   1.525   9.162 -0.2744 -0.1294 -0.2610
  286loPI   C2A 4568  17.565   1.548   8.770 -0.0895  0.4512 -0.1768
  286loPI   C3A 4569  17.684   1.598   8.313 -0.1235  0.1350  0.0330
  286loPI   C4A 4570  17.772   1.650   7.844 -0.3148  0.1355  0.0390
  286loPI   C5A 4571  18.054   1.537   7.508 -0.3264  0.1438  0.0529
  286loPI   C6A 4572  18.283   1.656   7.145  0.0615  0.1630 -0.0713
  286loPI   C1B 4573  16.919   1.825   8.967 -0.0877 -0.0832  0.0044
  286loPI   C2B 4574  17.070   1.803   8.619 -0.0392  0.0489  0.1951
  286loPI   C3B 4575  17.231   1.806   8.191 -0.0098  0.0704 -0.1765
  286loPI   C4B 4576  17.270   1.817   7.801  0.2811 -0.0365  0.0644
  287loPI    C1 4577  16.630  11.735  10.176  0.1342  0.0899  0.0271
  287loPI    C2 4578  16.342  11.705  10.452  0.0396  0.0274 -0.0774
  287loPI    C3 4579  16.726  11.701  10.563  0.0000  0.2287  0.0737
  287loPI   PO4 4580  16.515  11.713   9.954  0.3294 -0.2357 -0.1786
  287loPI   GL1 4581  16.480  11.513   9.651 -0.1213  0.2649 -0.0115
  287loPI   GL2 4582  16.682  11.231   9.684  0.1533  0.2607  0.0306
  287loPI   C1A 4583  16.415  11.390   9.165 -0.2101  0.2737 -0.0554
  287loPI   C2A 4584  16.256  11.377   8.792 -0.0229  0.1110  0.0286
  287loPI   C3A 4585  16.185  11.578   8.405  0.2356 -0.1190  0.0776
  287loPI   C4A 4586  16.316  11.542   7.942 -0.1422  0.0298  0.1749
  287loPI   C5A 4587  16.202  11.435   7.543  0.3280 -0.1531  0.2229
  287loPI   C6A 4588  15.906  11.089   7.448  0.0416 -0.0305  0.1621
  287loPI   C1B 4589  16.927  11.380   9.400 -0.1540  0.1532  0.2279
  287loPI   C2B 4590  16.934  11.284   8.921 -0.1815 -0.2512  0.0053
  287loPI   C3B 4591  17.042  11.185   8.530 -0.1869  0.0365 -0.1085
  287loPI   C4B 4592  17.069  11.084   8.083  0.1166  0.0008 -0.1641
  288loPI    C1 4593  18.254  14.859   9.849 -0.0731 -0.1017 -0.0695
  288loPI    C2 4594  18.058  15.162   9.677  0.0880  0.0808  0.0648
  288loPI    C3 4595  17.858  14.894   9.897 -0.0468  0.1209 -0.0073
  288loPI   PO4 4596  18.377  14.780   9.658 -0.2235 -0.0554  0.0142
  288loPI   GL1 4597  18.219  14.599   9.297 -0.0284  0.1766  0.0433
  288loPI   GL2 4598  18.450  14.271   9.460  0.2652  0.2863  0.1119
  288loPI   C1A 4599  18.189  14.574   8.919  0.0901  0.1442 -0.0771
  288loPI   C2A 4600  18.009  14.570   8.576  0.0964 -0.2082 -0.3461
  288loPI   C3A 4601  18.028  14.582   8.196 -0.1095  0.2066  0.2567
  288loPI   C4A 4602  17.917  14.533   7.828  0.3703  0.0704  0.0091
  288loPI   C5A 4603  18.287  14.411   7.528  0.1497  0.2895 -0.2967
  288loPI   C6A 4604  18.499  14.581   7.191  0.0277  0.1813 -0.2665
  288loPI   C1B 4605  18.528  14.192   9.001 -0.0509  0.1700  0.1220
  288loPI   C2B 4606  18.652  14.183   8.626  0.1856 -0.0377 -0.1085
  288loPI   C3B 4607  18.656  13.958   8.171 -0.0097  0.2083 -0.0096
  288loPI   C4B 4608  19.010  14.004   7.897 -0.2101  0.0809 -0.0077
  289loPI    C1 4609  16.703   2.878  10.032 -0.1443 -0.1411 -0.0188
  289loPI    C2 4610  16.854   3.018  10.375  0.1734 -0.1796 -0.1393
  289loPI    C3 4611  16.698   2.651  10.361 -0.2865 -0.0000  0.0776
  289loPI   PO4 4612  16.861   2.927   9.865  0.0831  0.0784  0.2692
  289loPI   GL1 4613  16.889   3.231   9.545  0.1625 -0.0570 -0.2409
  289loPI   GL2 4614  16.519   3.086   9.508  0.0595  0.2290  0.0024
  289loPI   C1A 4615  16.806   3.410   9.101 -0.0776 -0.0044 -0.0411
  289loPI   C2A 4616  16.926   3.543   8.652 -0.2255  0.2788 -0.5092
  289loPI   C3A 4617  17.116   3.500   8.233  0.0347 -0.0249  0.1139
  289loPI   C4A 4618  17.204   3.644   7.769  0.0538  0.0536  0.1245
  289loPI   C5A 4619  17.240   3.511   7.338 -0.1438 -0.2132 -0.0489
  289loPI   C6A 4620  17.248   3.722   7.035  0.1074 -0.3787 -0.2793
  289loPI   C1B 4621  16.482   3.020   9.051 -0.1679 -0.0014 -0.0379
  289loPI   C2B 4622  16.462   2.714   8.678 -0.2601  0.0547 -0.0404
  289loPI   C3B 4623  16.242   2.845   8.261 -0.1254  0.4352 -0.0715
  289loPI   C4B 4624  16.078   3.076   8.011 -0.1679 -0.0598  0.2600
  290loPI    C1 4625  13.372   2.366  10.018  0.0851 -0.2414 -0.1174
  290loPI    C2 4626  13.048   2.140  10.076 -0.0453 -0.0362 -0.0371
  290loPI    C3 4627  13.316   2.183  10.369 -0.0648 -0.0166 -0.0221
  290loPI   PO4 4628  13.295   2.550   9.907 -0.0096 -0.1843 -0.1406
  290loPI   GL1 4629  13.510   2.892   9.655  0.3299  0.0943  0.0392
  290loPI   GL2 4630  13.175   2.865   9.534 -0.1372  0.3038 -0.2910
  290loPI   C1A 4631  13.596   3.068   9.300 -0.1211 -0.1650 -0.1302
  290loPI   C2A 4632  13.657   3.077   8.918  0.2268  0.2525 -0.0475
  290loPI   C3A 4633  13.954   2.941   8.697 -0.1973 -0.0912  0.0480
  290loPI   C4A 4634  13.865   2.851   8.312  0.2050  0.0402 -0.1022
  290loPI   C5A 4635  13.525   2.716   7.953 -0.1162  0.0736  0.1037
  290loPI   C6A 4636  13.437   2.928   7.490 -0.3612  0.2274  0.2491
  290loPI   C1B 4637  13.250   2.819   9.059  0.1666  0.1087  0.0939
  290loPI   C2B 4638  13.250   2.817   8.600  0.0710  0.0162  0.1405
  290loPI   C3B 4639  13.310   3.038   8.333 -0.4204  0.1135  0.0180
  290loPI   C4B 4640  13.238   3.174   7.894 -0.1536 -0.1343  0.1988
  291loPI    C1 4641   3.359  13.622  10.413 -0.2512  0.2687 -0.0559
  291loPI    C2 4642   3.523  13.940  10.592 -0.0744  0.1119  0.0643
  291loPI    C3 4643   3.622  13.571  10.710 -0.0142  0.0063 -0.3047
  291loPI   PO4 4644   3.425  13.543  10.138 -0.0694 -0.4025 -0.1989
  291loPI   GL1 4645   3.330  13.448   9.659  0.1705  0.1985 -0.2792
  291loPI   GL2 4646   3.195  13.123   9.562 -0.0792  0.2598  0.0061
  291loPI   C1A 4647   3.631  13.543   9.266  0.0041  0.1651 -0.1111
  291loPI   C2A 4648   3.844  13.546   8.962 -0.2929  0.0859  0.1502
  291loPI   C3A 4649   4.063  13.320   8.551  0.1611 -0.1345  0.2485
  291loPI   C4A 4650   4.093  13.442   8.083  0.0259 -0.2183 -0.0644
  291loPI   C5A 4651   4.383  13.409   7.746 -0.1019  0.5025 -0.2836
  291loPI   C6A 4652   4.362  13.802   7.428  0.1721  0.2411  0.1438
  291loPI   C1B 4653   3.210  13.065   9.111  0.1022 -0.0695 -0.0036
  291loPI   C2B 4654   3.097  12.981   8.766 -0.0363 -0.3185 -0.0627
  291loPI   C3B 4655   3.224  12.988   8.334 -0.0370 -0.0694  0.2535
  291loPI   C4B 4656   3.033  12.936   7.824  0.0684 -0.4145  0.0464
  292loPI    C1 4657  17.880  16.844   9.726 -0.0017 -0.0943  0.2526
  292loPI    C2 4658  17.543  17.011   9.862  0.0530  0.1010  0.1524
  292loPI    C3 4659  17.706  16.701  10.057 -0.1894 -0.0025  0.1947
  292loPI   PO4 4660  17.791  16.822   9.492 -0.3557 -0.0535 -0.0830
  292loPI   GL1 4661  17.985  17.020   9.164  0.2044  0.0968  0.1368
  292loPI   GL2 4662  18.189  17.095   9.223  0.0771  0.2219 -0.1966
  292loPI   C1A 4663  17.779  16.921   8.798  0.0803 -0.3846  0.1888
  292loPI   C2A 4664  17.691  16.881   8.378  0.1051 -0.3941 -0.0671
  292loPI   C3A 4665  17.434  16.881   8.028  0.3578  0.1563 -0.2384
  292loPI   C4A 4666  17.275  16.909   7.645 -0.0727 -0.0878  0.2804
  292loPI   C5A 4667  17.150  17.398   7.561 -0.0664  0.1405  0.1160
  292loPI   C6A 4668  17.195  17.792   7.297  0.1464  0.0105  0.0332
  292loPI   C1B 4669  18.293  17.050   8.733  0.1099 -0.1438 -0.1479
  292loPI   C2B 4670  18.139  16.971   8.348 -0.1890  0.1011 -0.0473
  292loPI   C3B 4671  17.998  16.980   7.953 -0.4533  0.0927 -0.1745
  292loPI   C4B 4672  17.815  16.792   7.622 -0.0200 -0.2603 -0.2278
  293loPI    C1 4673   7.735  15.607  10.094 -0.2948  0.1037  0.0213
  293loPI    C2 4674   7.546  15.562  10.444 -0.0755 -0.2404  0.1007
  293loPI    C3 4675   7.789  15.275  10.310 -0.0338 -0.0422 -0.2617
  293loPI   PO4 4676   7.586  15.721   9.888 -0.0433 -0.3861  0.2312
  293loPI   GL1 4677   7.354  15.775   9.378  0.3432 -0.1017  0.0745
  293loPI   GL2 4678   7.507  16.013   9.373  0.2142  0.0183 -0.0731
  293loPI   C1A 4679   7.302  15.360   9.102 -0.0941 -0.1348  0.1985
  293loPI   C2A 4680   7.302  15.326   8.666  0.0014  0.0718  0.0130
  293loPI   C3A 4681   7.335  15.420   8.361  0.0609 -0.1083  0.1771
  293loPI   C4A 4682   7.654  15.319   8.033 -0.1857 -0.3279 -0.2068
  293loPI   C5A 4683   7.872  15.616   7.867 -0.2048 -0.2678  0.0961
  293loPI   C6A 4684   8.256  15.742   7.775  0.0515  0.0482 -0.0536
  293loPI   C1B 4685   7.342  15.926   8.893 -0.1266  0.0624  0.0933
  293loPI   C2B 4686   7.261  15.900   8.370  0.0704 -0.0575  0.0232
  293loPI   C3B 4687   7.289  15.736   7.998  0.1877 -0.1342  0.1083
  293loPI   C4B 4688   7.490  15.518   7.541  0.0763  0.0602 -0.2308
  294loPI    C1 4689   3.814  12.079  10.495  0.0075 -0.0187  0.2649
  294loPI    C2 4690   4.035  12.274  10.766  0.0995 -0.0929  0.2438
  294loPI    C3 4691   3.714  12.066  10.882  0.0892 -0.0539  0.2851
  294loPI   PO4 4692   3.893  11.974  10.356 -0.1769  0.0943  0.4336
  294loPI   GL1 4693   3.938  12.028   9.963  0.0527  0.4743  0.4150
  294loPI   GL2 4694   4.123  11.744   9.962  0.1584  0.1009  0.2247
  294loPI   C1A 4695   4.086  11.976   9.514  0.0645  0.1111 -0.1236
  294loPI   C2A 4696   4.164  11.910   9.119 -0.2331 -0.1420 -0.1584
  294loPI   C3A 4697   4.261  11.896   8.713 -0.0454  0.0030 -0.1393
  294loPI   C4A 4698   4.099  11.839   8.359  0.0532 -0.1273 -0.3960
  294loPI   C5A 4699   4.063  11.400   7.983 -0.1514  0.1226 -0.3227
  294loPI   C6A 4700   4.351  11.089   7.788 -0.0605  0.0933  0.2597
  294loPI   C1B 4701   4.365  11.571   9.667 -0.1173  0.0949 -0.1805
  294loPI   C2B 4702   4.493  11.554   9.233  0.2017  0.1225  0.0243
  294loPI   C3B 4703   4.474  11.475   8.847 -0.0976  0.0268  0.2703
  294loPI   C4B 4704   4.395  11.447   8.407  0.2035 -0.2637 -0.2085
  295loPI    C1 4705   5.986   4.910  10.008 -0.0440 -0.2658 -0.1354
  295loPI    C2 4706   5.597   4.982  10.067  0.1335  0.1371  0.7094
  295loPI    C3 4707   5.729   4.605  10.036 -0.3479  0.0029  0.0661
  295loPI   PO4 4708   6.025   5.180  10.109 -0.0147 -0.0444  0.2106
  295loPI   GL1 4709   5.914   5.526   9.844  0.1760  0.0234 -0.4688
  295loPI   GL2 4710   5.694   5.307   9.668 -0.0540  0.0561 -0.1167
  295loPI   C1A 4711   5.949   5.637   9.384 -0.2707  0.1774 -0.4143
  295loPI   C2A 4712   5.975   5.700   8.893 -0.2859  0.1642 -0.0661
  295loPI   C3A 4713   6.003   5.624   8.492 -0.0189 -0.0333  0.0933
  295loPI   C4A 4714   6.123   5.657   8.113  0.3046  0.1383  0.0431
  295loPI   C5A 4715   6.350   5.714   7.824 -0.0926  0.2487 -0.4131
  295loPI   C6A 4716   6.693   5.496   7.909 -0.0730 -0.1395  0.1743
  295loPI   C1B 4717   5.926   5.114   9.468 -0.1026  0.1028  0.3194
  295loPI   C2B 4718   5.978   5.206   8.968  0.0034 -0.1144  0.1624
  295loPI   C3B 4719   5.733   5.212   8.499  0.0527  0.2001 -0.0680
  295loPI   C4B 4720   5.871   5.250   8.166  0.0637 -0.1296 -0.1118
  296loPI    C1 4721   4.689   4.624  10.571 -0.1660  0.0133 -0.1041
  296loPI    C2 4722   4.466   4.322  10.710  0.0565 -0.0539  0.1135
  296loPI    C3 4723   4.394   4.696  10.831 -0.0718 -0.0483  0.0211
  296loPI   PO4 4724   4.696   4.599  10.287  0.0484  0.5296 -0.0730
  296loPI   GL1 4725   4.483   4.334   9.966  0.1842  0.1729 -0.1692
  296loPI   GL2 4726   4.301   3.998   9.925 -0.4292 -0.1078 -0.4793
  296loPI   C1A 4727   4.380   4.566   9.603  0.1084 -0.2016 -0.2183
  296loPI   C2A 4728   4.328   4.697   9.186  0.2182  0.0735  0.2106
  296loPI   C3A 4729   4.341   4.827   8.775  0.2506 -0.0292  0.0087
  296loPI   C4A 4730   4.352   4.737   8.280  0.3467  0.4208 -0.0467
  296loPI   C5A 4731   4.420   4.992   7.834  0.1119  0.4138 -0.2774
  296loPI   C6A 4732   4.550   5.229   7.590 -0.1779  0.0004 -0.0525
  296loPI   C1B 4733   4.157   4.109   9.535 -0.1590 -0.2705 -0.0445
  296loPI   C2B 4734   4.050   4.295   9.173  0.0172 -0.3865 -0.1694
  296loPI   C3B 4735   4.109   4.319   8.719 -0.3302  0.1297  0.0599
  296loPI   C4B 4736   4.106   4.253   8.250  0.0493  0.1372 -0.2498
  297loPI    C1 4737   8.855   1.313   9.830  0.2473 -0.1696  0.1497
  297loPI    C2 4738   8.629   1.361  10.157 -0.2097  0.1209 -0.1966
  297loPI    C3 4739   8.921   1.622  10.075 -0.0773  0.0330 -0.0112
  297loPI   PO4 4740   8.931   1.088   9.763  0.0882 -0.0074  0.2590
  297loPI   GL1 4741   8.901   1.082   9.252 -0.3231  0.0666  0.0147
  297loPI   GL2 4742   8.808   1.383   9.351 -0.0673  0.1168 -0.0451
  297loPI   C1A 4743   8.949   0.930   8.757 -0.1298  0.1707 -0.1531
  297loPI   C2A 4744   8.795   0.659   8.388 -0.1047  0.0233 -0.0212
  297loPI   C3A 4745   8.590   0.641   8.011  0.0843 -0.0889 -0.2525
  297loPI   C4A 4746   8.747   0.515   7.671 -0.2105 -0.0015  0.1190
  297loPI   C5A 4747   8.912   0.250   7.311  0.2898 -0.2499 -0.3718
  297loPI   C6A 4748   9.176   0.356   6.872  0.1816 -0.1498 -0.2512
  297loPI   C1B 4749   8.801   1.518   8.934 -0.1270  0.0548  0.2441
  297loPI   C2B 4750   8.762   1.472   8.529 -0.2861  0.2178  0.1698
  297loPI   C3B 4751   8.929   1.138   8.240  0.0966 -0.0329  0.1191
  297loPI   C4B 4752   8.942   0.967   7.914  0.3699 -0.0370  0.2288
  298loPI    C1 4753  16.001   5.435  10.285 -0.2407  0.0217 -0.0281
  298loPI    C2 4754  15.624   5.334  10.201 -0.3217  0.2666  0.0319
  298loPI    C3 4755  15.718   5.468  10.566 -0.0929 -0.1960  0.1502
  298loPI   PO4 4756  16.161   5.422  10.070 -0.2151 -0.0092  0.3539
  298loPI   GL1 4757  16.322   5.212   9.757  0.2593 -0.0424 -0.1377
  298loPI   GL2 4758  16.036   4.955   9.845 -0.1867 -0.1737 -0.5440
  298loPI   C1A 4759  16.575   5.022   9.373  0.0200 -0.3585 -0.1649
  298loPI   C2A 4760  16.718   4.950   8.914 -0.1150  0.1233  0.1651
  298loPI   C3A 4761  16.647   4.911   8.492  0.0173  0.1129  0.1687
  298loPI   C4A 4762  16.711   5.018   8.076 -0.3039 -0.0791 -0.1346
  298loPI   C5A 4763  17.055   4.940   7.685 -0.3753  0.0992  0.2119
  298loPI   C6A 4764  17.416   4.692   7.419  0.3026  0.0780 -0.1366
  298loPI   C1B 4765  16.121   5.223   9.334  0.0171  0.0699 -0.1342
  298loPI   C2B 4766  16.266   5.386   8.987  0.2235 -0.1460 -0.0443
  298loPI   C3B 4767  16.379   5.396   8.550 -0.0096  0.3087  0.0976
  298loPI   C4B 4768  16.218   5.211   8.170  0.0434 -0.2812 -0.0468
  299loPI    C1 4769  18.066  13.230   9.943  0.0472  0.0992  0.0462
  299loPI    C2 4770  18.352  13.467  10.090  0.0599  0.0078  0.1697
  299loPI    C3 4771  18.133  13.241  10.337  0.0399 -0.1004  0.0537
  299loPI   PO4 4772  18.150  13.102   9.755  0.0134  0.2597  0.0970
  299loPI   GL1 4773  17.954  13.065   9.372 -0.1991  0.0684 -0.1082
  299loPI   GL2 4774  18.330  13.302   9.341  0.2463  0.1087  0.3315
  299loPI   C1A 4775  17.870  12.937   8.993 -0.1726 -0.0055 -0.1568
  299loPI   C2A 4776  17.810  12.790   8.491 -0.0197 -0.0778 -0.3444
  299loPI   C3A 4777  17.951  12.508   8.149  0.0816  0.3144 -0.0666
  299loPI   C4A 4778  18.109  12.155   7.940 -0.1442  0.0294  0.2907
  299loPI   C5A 4779  18.160  12.108   7.451 -0.1451  0.1187  0.0398
  299loPI   C6A 4780  18.228  11.892   7.153  0.1375  0.0154 -0.3378
  299loPI   C1B 4781  18.003  13.406   8.984 -0.2896  0.1595 -0.0868
  299loPI   C2B 4782  18.123  13.182   8.601 -0.2580  0.3679  0.2432
  299loPI   C3B 4783  17.861  13.225   8.192 -0.0977  0.0635 -0.1467
  299loPI   C4B 4784  17.356  13.429   8.108  0.3015 -0.0785 -0.1990
  300loPI    C1 4785  12.721  17.346   9.380 -0.0402 -0.1202 -0.1189
  300loPI    C2 4786  12.362  17.521   9.401 -0.0078 -0.0839  0.1646
  300loPI    C3 4787  12.600  17.591   9.087 -0.1999 -0.0162  0.0322
  300loPI   PO4 4788  12.687  17.101   9.384 -0.2507 -0.0933  0.0238
  300loPI   GL1 4789  12.584  16.795   9.105 -0.2566  0.0039 -0.1433
  300loPI   GL2 4790  12.638  17.055   8.923  0.1718 -0.0886 -0.0238
  300loPI   C1A 4791  12.579  16.550   8.802 -0.3019  0.0840  0.1378
  300loPI   C2A 4792  12.794  16.449   8.435  0.3285  0.0404  0.3806
  300loPI   C3A 4793  13.030  16.536   7.970 -0.0115 -0.2350  0.0148
  300loPI   C4A 4794  12.926  16.516   7.541  0.0282  0.0880  0.0009
  300loPI   C5A 4795  12.730  16.256   7.241 -0.1324 -0.3876 -0.1388
  300loPI   C6A 4796  12.868  16.160   6.791 -0.0115 -0.1884 -0.1228
  300loPI   C1B 4797  12.646  16.938   8.446 -0.0382  0.1474  0.0869
  300loPI   C2B 4798  12.769  16.942   8.054 -0.2232  0.2394  0.1674
  300loPI   C3B 4799  12.920  16.989   7.704 -0.0636  0.5156  0.4399
  300loPI   C4B 4800  12.923  17.058   7.323  0.0644  0.2087  0.0752
  301loPI    C1 4801   3.178  14.256  10.331  0.1733  0.0059  0.0418
  301loPI    C2 4802   3.359  14.603  10.249  0.0199  0.0978  0.0871
  301loPI    C3 4803   3.319  14.483  10.629  0.0338  0.0517  0.0740
  301loPI   PO4 4804   3.350  14.083  10.174  0.0132 -0.2728 -0.1449
  301loPI   GL1 4805   3.389  13.929   9.725 -0.0323  0.0163 -0.4429
  301loPI   GL2 4806   3.038  13.874   9.609 -0.4059 -0.1269 -0.0644
  301loPI   C1A 4807   3.598  14.065   9.291 -0.0027 -0.0215  0.1410
  301loPI   C2A 4808   3.616  13.947   8.749  0.1893  0.1681  0.2127
  301loPI   C3A 4809   3.689  13.710   8.289  0.0808 -0.0942  0.1710
  301loPI   C4A 4810   3.988  13.882   7.789 -0.2276  0.2234 -0.1406
  301loPI   C5A 4811   4.029  14.259   7.665  0.0896  0.0489  0.3750
  301loPI   C6A 4812   4.152  14.354   7.256  0.4030  0.1525 -0.4354
  301loPI   C1B 4813   3.110  13.732   9.263 -0.2160 -0.2736  0.0955
  301loPI   C2B 4814   3.225  13.622   8.888 -0.0408 -0.0592 -0.0985
  301loPI   C3B 4815   3.501  13.340   8.526  0.0999 -0.1264  0.2605
  301loPI   C4B 4816   3.558  13.299   8.088 -0.2215  0.0763 -0.0710
  302loPI    C1 4817   1.488   1.173  10.552  0.1317 -0.2443  0.0903
  302loPI    C2 4818   1.645   1.513  10.694 -0.2261 -0.0374  0.0036
  302loPI    C3 4819   1.490   1.243  10.946  0.0821 -0.1526  0.0745
  302loPI   PO4 4820   1.575   1.199  10.267 -0.0205  0.4375 -0.1547
  302loPI   GL1 4821   1.656   1.161   9.789  0.0794 -0.0398 -0.0692
  302loPI   GL2 4822   1.837   1.386   9.529 -0.0307  0.3595 -0.3384
  302loPI   C1A 4823   1.464   0.927   9.535  0.0741  0.4174  0.0767
  302loPI   C2A 4824   1.497   0.840   9.143  0.1952  0.2241 -0.4315
  302loPI   C3A 4825   1.535   0.835   8.767  0.0584 -0.1182  0.2596
  302loPI   C4A 4826   1.740   0.839   8.404  0.2249  0.0641  0.0201
  302loPI   C5A 4827   2.108   1.006   8.213 -0.0981 -0.0933  0.1000
  302loPI   C6A 4828   2.497   1.056   7.922 -0.1975 -0.3374 -0.1975
  302loPI   C1B 4829   1.674   1.382   9.143 -0.0057 -0.3336  0.2163
  302loPI   C2B 4830   1.643   1.303   8.708 -0.0165  0.1430 -0.0121
  302loPI   C3B 4831   1.502   1.299   8.305 -0.1478 -0.0059  0.0955
  302loPI   C4B 4832   1.523   1.029   7.995  0.1155 -0.1921  0.2000
  303loPI    C1 4833   3.324   4.408  10.458  0.0317 -0.1420 -0.0965
  303loPI    C2 4834   3.465   4.667  10.728 -0.2695  0.0887 -0.1555
  303loPI    C3 4835   3.328   4.310  10.846  0.1775 -0.0632 -0.0773
  303loPI   PO4 4836   3.489   4.439  10.248  0.0254  0.1029 -0.1401
  303loPI   GL1 4837   3.190   4.486   9.815 -0.1202  0.2953 -0.2109
  303loPI   GL2 4838   3.467   4.722   9.848 -0.0811  0.0358  0.0362
  303loPI   C1A 4839   3.149   4.243   9.539  0.0602  0.2081 -0.1506
  303loPI   C2A 4840   3.034   4.321   9.082 -0.0962 -0.1746 -0.5160
  303loPI   C3A 4841   3.031   4.443   8.601  0.0104 -0.2908 -0.1062
  303loPI   C4A 4842   3.064   4.464   8.087 -0.1069  0.0794 -0.0064
  303loPI   C5A 4843   3.220   4.453   7.713  0.0741  0.0063  0.0604
  303loPI   C6A 4844   3.222   4.485   7.248  0.1194 -0.0368  0.0832
  303loPI   C1B 4845   3.409   4.677   9.352  0.2481 -0.0521  0.1313
  303loPI   C2B 4846   3.266   4.806   8.919 -0.2268 -0.3861 -0.1327
  303loPI   C3B 4847   3.274   4.881   8.430 -0.0365  0.2396 -0.2265
  303loPI   C4B 4848   3.419   4.857   7.933 -0.1002 -0.2671  0.1750
  304loPI    C1 4849  18.039   2.324  10.092  0.0428 -0.1810 -0.0573
  304loPI    C2 4850  17.763   2.209  10.358  0.0367 -0.0042  0.0144
  304loPI    C3 4851  18.062   2.449  10.472  0.1518 -0.0961 -0.0915
  304loPI   PO4 4852  17.968   2.420   9.844  0.2105  0.3606  0.1262
  304loPI   GL1 4853  18.224   2.507   9.437  0.3679 -0.0764 -0.1907
  304loPI   GL2 4854  18.217   2.229   9.497 -0.1775  0.5666 -0.0699
  304loPI   C1A 4855  18.605   2.677   9.175  0.1978  0.0640  0.1572
  304loPI   C2A 4856  18.878   2.615   8.740  0.1084  0.2123 -0.3022
  304loPI   C3A 4857  19.039   2.702   8.331 -0.1644  0.1703  0.3401
  304loPI   C4A 4858  19.064   2.722   7.984  0.0325 -0.2521 -0.0401
  304loPI   C5A 4859  18.797   2.906   7.709 -0.3161 -0.1072  0.2744
  304loPI   C6A 4860  18.501   3.382   7.749  0.0100  0.1709 -0.1248
  304loPI   C1B 4861  18.456   2.243   9.078  0.2317 -0.3814  0.0088
  304loPI   C2B 4862  18.423   2.353   8.663 -0.0157  0.0328  0.2321
  304loPI   C3B 4863  18.519   2.551   8.237  0.3713 -0.0215 -0.3007
  304loPI   C4B 4864  18.269   2.932   7.940 -0.3168 -0.1459  0.3354
  305loPI    C1 4865   9.447   8.803  10.312  0.1424 -0.0918  0.1295
  305loPI    C2 4866   9.388   8.616  10.661  0.1538 -0.0231  0.1685
  305loPI    C3 4867   9.741   8.788  10.584  0.1387 -0.0054  0.1386
  305loPI   PO4 4868   9.493   8.606  10.135  0.1377  0.2914 -0.3011
  305loPI   GL1 4869   9.673   8.431   9.804  0.0824 -0.3604 -0.0167
  305loPI   GL2 4870   9.900   8.263   9.789  0.4321 -0.1238 -0.0541
  305loPI   C1A 4871   9.325   8.127   9.594  0.2436 -0.3854 -0.0939
  305loPI   C2A 4872   9.278   8.081   9.090  0.3623 -0.3772 -0.2238
  305loPI   C3A 4873   9.234   8.106   8.571  0.0168  0.0419 -0.0635
  305loPI   C4A 4874   9.256   7.893   8.165  0.1505  0.1464 -0.0815
  305loPI   C5A 4875   9.447   7.910   7.720 -0.2431 -0.1896  0.3009
  305loPI   C6A 4876   9.904   7.857   7.567  0.5339  0.0080 -0.1625
  305loPI   C1B 4877   9.926   8.098   9.390  0.1534 -0.0549  0.1149
  305loPI   C2B 4878   9.809   8.084   8.982 -0.0316 -0.0154 -0.2110
  305loPI   C3B 4879   9.762   8.141   8.468 -0.0959 -0.0259  0.0264
  305loPI   C4B 4880   9.726   8.268   7.943 -0.2848  0.0632  0.1164
  306loPI    C1 4881  14.095   8.507  10.103  0.1247 -0.0695 -0.1477
  306loPI    C2 4882  14.386   8.711   9.920  0.0409  0.1609 -0.0281
  306loPI    C3 4883  14.284   8.802  10.296  0.1080 -0.2074  0.0829
  306loPI   PO4 4884  14.137   8.220  10.039 -0.0346 -0.1072 -0.0981
  306loPI   GL1 4885  14.480   8.134   9.720  0.1753  0.2763  0.1739
  306loPI   GL2 4886  14.754   7.953   9.642 -0.3343 -0.0031  0.1499
  306loPI   C1A 4887  14.538   8.534   9.474 -0.1533  0.3844  0.1966
  306loPI   C2A 4888  14.516   8.710   9.026  0.2670  0.0666  0.1460
  306loPI   C3A 4889  14.633   8.742   8.635 -0.0483  0.2815 -0.5753
  306loPI   C4A 4890  14.414   8.725   8.306  0.0265  0.4679  0.1030
  306loPI   C5A 4891  14.379   8.474   7.923  0.1151 -0.0229  0.2641
  306loPI   C6A 4892  14.212   8.400   7.471  0.3055 -0.1794  0.0114
  306loPI   C1B 4893  14.646   7.880   9.187 -0.1701  0.3207  0.0884
  306loPI   C2B 4894  14.562   7.803   8.814  0.0166  0.2320  0.0407
  306loPI   C3B 4895  14.542   7.839   8.413  0.1298 -0.3689  0.0171
  306loPI   C4B 4896  14.919   7.801   8.145 -0.1956 -0.1359  0.0836
  307loPI    C1 4897   8.251  13.980  10.194 -0.3257  0.2016  0.0823
  307loPI    C2 4898   8.471  13.712  10.394 -0.0742  0.2141 -0.1720
  307loPI    C3 4899   8.127  13.843  10.549 -0.0101  0.0332  0.1317
  307loPI   PO4 4900   8.234  13.878   9.998 -0.0397 -0.0378 -0.1517
  307loPI   GL1 4901   8.068  13.706   9.689 -0.4237  0.2683  0.0278
  307loPI   GL2 4902   8.072  13.296   9.622 -0.2325  0.1211  0.1421
  307loPI   C1A 4903   8.079  13.703   9.246  0.4895  0.0272 -0.0776
  307loPI   C2A 4904   8.042  13.477   8.823 -0.0647  0.0100 -0.3346
  307loPI   C3A 4905   8.029  13.365   8.433  0.0502  0.0635  0.2325
  307loPI   C4A 4906   8.205  13.041   8.150 -0.1272  0.2266  0.0736
  307loPI   C5A 4907   8.321  12.919   7.806 -0.0202 -0.0862 -0.4211
  307loPI   C6A 4908   8.260  12.880   7.422 -0.3013  0.2038 -0.1829
  307loPI   C1B 4909   7.952  13.109   9.254  0.1260  0.0371  0.1050
  307loPI   C2B 4910   7.892  12.955   8.838 -0.0335 -0.4239  0.1832
  307loPI   C3B 4911   8.027  12.745   8.502 -0.2131 -0.1880  0.0115
  307loPI   C4B 4912   7.930  12.646   8.146  0.1328 -0.0633  0.0769
  308loPI    C1 4913  18.233  10.558  10.359 -0.0534  0.0711  0.0062
  308loPI    C2 4914  18.425  10.826  10.133 -0.0354  0.0877  0.0415
  308loPI    C3 4915  18.587  10.702  10.477 -0.0719  0.0767  0.0547
  308loPI   PO4 4916  18.049  10.583  10.309  0.1971 -0.1416  0.1426
  308loPI   GL1 4917  17.857  10.466   9.909 -0.0330  0.0545  0.1218
  308loPI   GL2 4918  17.987  10.833   9.866 -0.0952 -0.0718  0.1721
  308loPI   C1A 4919  17.990  10.362   9.535 -0.1229 -0.1469 -0.1337
  308loPI   C2A 4920  18.001  10.356   9.070 -0.1487  0.2289  0.3093
  308loPI   C3A 4921  17.953  10.289   8.658 -0.1408 -0.1154 -0.2771
  308loPI   C4A 4922  17.999  10.293   8.223 -0.1273 -0.1970  0.0730
  308loPI   C5A 4923  18.195  10.063   7.931 -0.1881 -0.1889 -0.0389
  308loPI   C6A 4924  18.281   9.648   7.951  0.2864 -0.1953 -0.3246
  308loPI   C1B 4925  18.255  10.892   9.536  0.1404  0.1277 -0.3053
  308loPI   C2B 4926  18.243  10.757   9.036  0.1856 -0.3399  0.3004
  308loPI   C3B 4927  18.347  10.749   8.656  0.1477  0.2105  0.0167
  308loPI   C4B 4928  18.107  10.779   8.422 -0.0428  0.2222  0.1632
  309loPI    C1 4929   8.545  10.498  10.262  0.0420  0.2048  0.1220
  309loPI    C2 4930   8.690  10.860  10.351 -0.0833  0.2290  0.2308
  309loPI    C3 4931   8.339  10.742  10.503 -0.0547  0.0709  0.1762
  309loPI   PO4 4932   8.618  10.448  10.095  0.0735 -0.1616 -0.0178
  309loPI   GL1 4933   8.574  10.307   9.666  0.2120 -0.0554  0.1446
  309loPI   GL2 4934   8.264  10.323   9.635 -0.0004  0.0250 -0.1282
  309loPI   C1A 4935   8.777  10.360   9.253  0.0826  0.0638  0.1308
  309loPI   C2A 4936   8.631  10.249   8.881 -0.0356 -0.0007  0.2394
  309loPI   C3A 4937   8.571  10.375   8.457 -0.2970  0.2618  0.0008
  309loPI   C4A 4938   8.696  10.432   8.034 -0.4749  0.0589  0.2999
  309loPI   C5A 4939   8.495  10.551   7.621 -0.2606  0.2106  0.2624
  309loPI   C6A 4940   8.677  10.426   7.335 -0.0015  0.0824  0.0361
  309loPI   C1B 4941   8.046  10.399   9.214  0.2962  0.2140 -0.0926
  309loPI   C2B 4942   8.068  10.420   8.740 -0.1469  0.1306 -0.2968
  309loPI   C3B 4943   8.051  10.378   8.309  0.1748  0.0383 -0.2659
  309loPI   C4B 4944   8.375  10.064   8.099  0.0035  0.1631  0.0516
  310loPI    C1 4945  11.511   5.525  10.491  0.0328  0.1599 -0.0460
  310loPI    C2 4946  11.814   5.265  10.502 -0.1688 -0.0742  0.0535
  310loPI    C3 4947  11.747   5.508  10.813 -0.1525 -0.1030  0.0796
  310loPI   PO4 4948  11.503   5.631  10.211  0.0969 -0.0612  0.1577
  310loPI   GL1 4949  11.441   5.542   9.768  0.1386  0.1287 -0.2074
  310loPI   GL2 4950  11.093   5.377   9.819  0.2814 -0.0235  0.0310
  310loPI   C1A 4951  11.508   5.536   9.346  0.2382 -0.3137 -0.1641
  310loPI   C2A 4952  11.514   5.696   8.924  0.1794 -0.0551 -0.0197
  310loPI   C3A 4953  11.531   5.623   8.616  0.2042 -0.0317  0.0004
  310loPI   C4A 4954  11.565   5.639   8.165  0.1741  0.0414 -0.2523
  310loPI   C5A 4955  11.678   5.726   7.704  0.1233 -0.0028  0.1639
  310loPI   C6A 4956  11.821   6.120   7.601 -0.1836 -0.2610  0.0310
  310loPI   C1B 4957  11.219   5.118   9.476  0.2300  0.1780  0.1330
  310loPI   C2B 4958  11.276   5.243   9.019 -0.2290  0.2089 -0.0148
  310loPI   C3B 4959  11.222   5.217   8.639 -0.0351 -0.1687  0.3989
  310loPI   C4B 4960  11.208   5.192   8.207  0.0691  0.0143 -0.1823
  311loPI    C1 4961   9.548  13.424   9.954  0.0475 -0.0187 -0.0135
  311loPI    C2 4962   9.732  13.722  10.147 -0.0220  0.1069 -0.1395
  311loPI    C3 4963   9.893  13.356  10.146  0.1045  0.1614 -0.0502
  311loPI   PO4 4964   9.525  13.489   9.813  0.0302  0.1788 -0.0557
  311loPI   GL1 4965   9.553  13.343   9.405 -0.1227  0.0893  0.1989
  311loPI   GL2 4966   9.812  13.591   9.335  0.1723 -0.1692 -0.1590
  311loPI   C1A 4967   9.507  13.276   9.027  0.1418  0.0498  0.1182
  311loPI   C2A 4968   9.473  13.206   8.630 -0.3025  0.0696  0.0112
  311loPI   C3A 4969   9.738  13.156   8.242 -0.0204 -0.0031  0.2877
  311loPI   C4A 4970   9.748  13.139   7.765 -0.0574  0.0230 -0.3491
  311loPI   C5A 4971   9.690  13.457   7.591 -0.1768  0.0516  0.3098
  311loPI   C6A 4972   9.416  13.730   7.284 -0.2178 -0.0074 -0.1076
  311loPI   C1B 4973   9.845  13.626   8.946 -0.1445  0.0276  0.1243
  311loPI   C2B 4974   9.867  13.634   8.502  0.1306 -0.0029  0.0635
  311loPI   C3B 4975   9.771  13.649   8.034 -0.1208  0.1115  0.0172
  311loPI   C4B 4976   9.939  13.951   7.824 -0.2316 -0.0539  0.1487
  312loPI    C1 4977  15.303  18.230  10.052  0.0571  0.0744  0.2661
  312loPI    C2 4978  15.057  17.925   9.971  0.1338  0.0651  0.0621
  312loPI    C3 4979  14.910  18.267  10.118  0.0276 -0.0157  0.1453
  312loPI   PO4 4980  15.585  18.044   9.932 -0.0426 -0.2509 -0.0166
  312loPI   GL1 4981  15.611  17.880   9.489  0.3466  0.2486  0.2232
  312loPI   GL2 4982  15.794  17.674   9.369  0.2218 -0.2838 -0.3014
  312loPI   C1A 4983  15.469  17.886   9.034 -0.3224  0.1726 -0.0828
  312loPI   C2A 4984  15.480  17.815   8.612  0.2233 -0.1248  0.1131
  312loPI   C3A 4985  15.573  17.935   8.168 -0.1530  0.0991 -0.2484
  312loPI   C4A 4986  15.911  17.735   7.993 -0.0166 -0.2045 -0.1098
  312loPI   C5A 4987  16.146  17.590   7.692  0.0178 -0.1454 -0.0903
  312loPI   C6A 4988  16.241  17.178   7.706 -0.2005 -0.1547 -0.0692
  312loPI   C1B 4989  15.883  17.545   8.999  0.4513 -0.0858  0.0849
  312loPI   C2B 4990  16.089  17.325   8.720  0.2478 -0.0985 -0.0645
  312loPI   C3B 4991  16.417  17.137   8.631  0.3947  0.0131  0.0744
  312loPI   C4B 4992  16.606  16.807   8.571  0.0340  0.2139  0.1189
  313loPI    C1 4993  10.134   2.340  10.426  0.0473  0.0000 -0.0726
  313loPI    C2 4994  10.315   2.656  10.591  0.0414 -0.0010 -0.0641
  313loPI    C3 4995  10.366   2.292  10.748 -0.1716  0.0351  0.0926
  313loPI   PO4 4996  10.318   2.365  10.174 -0.0708 -0.1010 -0.0585
  313loPI   GL1 4997  10.244   2.442   9.735 -0.1939  0.0335 -0.0589
  313loPI   GL2 4998   9.959   2.647   9.627 -0.0362  0.1541 -0.1639
  313loPI   C1A 4999  10.662   2.274   9.517 -0.1507  0.1516 -0.1063
  313loPI   C2A 5000  10.798   2.403   9.014  0.0542  0.1176 -0.1593
  313loPI   C3A 5001  11.007   2.375   8.630  0.4243 -0.1235 -0.0618
  313loPI   C4A 5002  10.919   2.608   8.212  0.4313 -0.0505 -0.2717
  313loPI   C5A 5003  10.927   2.956   7.908  0.0969  0.1295 -0.3465
  313loPI   C6A 5004  10.995   3.388   7.814 -0.0966  0.2529 -0.0249
  313loPI   C1B 5005   9.872   2.497   9.203 -0.1173 -0.0841 -0.0264
  313loPI   C2B 5006   9.832   2.501   8.676 -0.2669  0.1308  0.0412
  313loPI   C3B 5007   9.789   2.424   8.202 -0.2793  0.2495 -0.0106
  313loPI   C4B 5008  10.046   2.344   7.876 -0.0975  0.3904 -0.2277
  314loPI    C1 5009   8.315   5.926  10.498  0.3601 -0.0130  0.0537
  314loPI    C2 5010   8.598   6.160  10.339  0.2827  0.0263 -0.0272
  314loPI    C3 5011   8.678   5.776  10.420  0.3177  0.0015 -0.1773
  314loPI   PO4 5012   8.049   6.016  10.322 -0.0963  0.0404  0.0050
  314loPI   GL1 5013   7.820   6.139  10.008  0.1863  0.0156  0.1815
  314loPI   GL2 5014   8.032   6.246   9.863  0.3025 -0.3104 -0.0652
  314loPI   C1A 5015   7.617   6.337   9.607  0.3258  0.3062  0.4067
  314loPI   C2A 5016   7.767   6.359   9.156 -0.2885  0.2869 -0.0365
  314loPI   C3A 5017   7.571   6.407   8.740 -0.1047 -0.1622 -0.0263
  314loPI   C4A 5018   7.304   6.444   8.423  0.3030  0.1150 -0.1475
  314loPI   C5A 5019   7.023   6.827   8.273 -0.0225  0.1330  0.0142
  314loPI   C6A 5020   6.786   7.162   8.040 -0.0291  0.1325 -0.0841
  314loPI   C1B 5021   8.287   6.280   9.605 -0.0721 -0.2092 -0.1414
  314loPI   C2B 5022   8.283   6.381   9.164 -0.4121  0.1613 -0.3098
  314loPI   C3B 5023   8.102   6.381   8.763 -0.0978 -0.1966 -0.1923
  314loPI   C4B 5024   7.939   6.472   8.345 -0.1484 -0.0231 -0.1213
  315loPI    C1 5025   7.330   3.793  10.286  0.2360 -0.0304 -0.0237
  315loPI    C2 5026   7.569   3.781  10.607  0.0315  0.1220  0.1379
  315loPI    C3 5027   7.359   4.112  10.527 -0.1104 -0.0029 -0.0138
  315loPI   PO4 5028   7.553   3.594  10.150  0.1881 -0.2144  0.1311
  315loPI   GL1 5029   7.596   3.508   9.710  0.4604 -0.1131  0.0573
  315loPI   GL2 5030   7.604   3.840   9.707 -0.2013 -0.2486  0.0621
  315loPI   C1A 5031   7.719   3.527   9.333  0.1420  0.5743 -0.1820
  315loPI   C2A 5032   7.801   3.668   8.993  0.0493  0.1907  0.2036
  315loPI   C3A 5033   7.867   3.808   8.557  0.0565  0.2117 -0.1586
  315loPI   C4A 5034   7.869   3.686   8.148 -0.1645  0.4967  0.0244
  315loPI   C5A 5035   7.796   3.771   7.709  0.1295 -0.2741 -0.2678
  315loPI   C6A 5036   7.545   3.629   7.342 -0.1335 -0.0102 -0.1509
  315loPI   C1B 5037   7.559   3.976   9.288  0.3220 -0.0684 -0.1112
  315loPI   C2B 5038   7.526   4.112   8.894 -0.0410  0.1172 -0.1893
  315loPI   C3B 5039   7.531   4.129   8.528  0.1863  0.0909  0.1514
  315loPI   C4B 5040   7.675   4.134   8.046  0.1125 -0.1368 -0.0614
  316loPI    C1 5041   8.922   6.269  10.758  0.1562  0.0189 -0.1300
  316loPI    C2 5042   9.265   6.461  10.833  0.0475  0.2059 -0.1052
  316loPI    C3 5043   8.917   6.655  10.861 -0.0834 -0.0578  0.1608
  316loPI   PO4 5044   9.075   6.020  10.633  0.1217 -0.0042  0.0853
  316loPI   GL1 5045   9.078   6.076  10.094  0.1542  0.0368  0.0035
  316loPI   GL2 5046   9.234   6.354   9.866  0.1863 -0.0834 -0.0966
  316loPI   C1A 5047   8.979   5.895   9.693 -0.3776  0.0481  0.1062
  316loPI   C2A 5048   9.072   5.937   9.228 -0.2101  0.1185  0.2988
  316loPI   C3A 5049   9.027   5.886   8.694  0.1023 -0.1597  0.3636
  316loPI   C4A 5050   8.749   5.931   8.217 -0.0758  0.0243  0.0003
  316loPI   C5A 5051   8.572   5.800   7.756 -0.1622  0.1237 -0.2563
  316loPI   C6A 5052   8.347   5.542   7.661 -0.0588  0.0750  0.1889
  316loPI   C1B 5053   9.332   6.366   9.390 -0.2136  0.0608  0.1037
  316loPI   C2B 5054   9.197   6.331   8.914  0.0939  0.0749  0.1833
  316loPI   C3B 5055   9.317   6.282   8.541 -0.0480 -0.1198 -0.0062
  316loPI   C4B 5056   9.145   6.327   8.118  0.4017  0.2401  0.0267
  317loPI    C1 5057  13.660   3.642  10.147  0.0914 -0.1630 -0.3049
  317loPI    C2 5058  13.966   3.739  10.385 -0.2299  0.0897  0.0156
  317loPI    C3 5059  13.804   3.374  10.407 -0.2656  0.1155  0.1951
  317loPI   PO4 5060  13.727   3.724   9.976  0.2734  0.2054  0.0363
  317loPI   GL1 5061  13.755   3.819   9.547 -0.0303  0.1638  0.2422
  317loPI   GL2 5062  13.527   4.028   9.440  0.3390  0.2253 -0.2770
  317loPI   C1A 5063  13.978   3.913   9.096  0.0011  0.1264  0.2530
  317loPI   C2A 5064  13.969   3.854   8.665  0.3214  0.0502 -0.0736
  317loPI   C3A 5065  13.843   3.860   8.330 -0.0479  0.1679 -0.0619
  317loPI   C4A 5066  13.929   3.845   7.836  0.2387 -0.0588  0.1216
  317loPI   C5A 5067  14.361   3.996   7.669 -0.1345 -0.2020  0.0692
  317loPI   C6A 5068  14.607   4.367   7.620  0.0519  0.1282 -0.0656
  317loPI   C1B 5069  13.592   4.200   9.071  0.2985 -0.2063 -0.2913
  317loPI   C2B 5070  13.716   4.337   8.645 -0.1005  0.2696 -0.0393
  317loPI   C3B 5071  13.647   4.339   8.191  0.3339 -0.3265  0.2505
  317loPI   C4B 5072  13.473   4.241   7.729  0.3834 -0.0025 -0.1647
  318loPI    C1 5073   4.549   0.854  10.264  0.0993 -0.0582 -0.1165
  318loPI    C2 5074   4.914   0.727  10.159  0.1130 -0.2449  0.1475
  318loPI    C3 5075   4.715   0.543  10.453 -0.1732 -0.1101  0.0417
  318loPI   PO4 5076   4.408   0.920  10.022  0.0624 -0.1530  0.0659
  318loPI   GL1 5077   4.321   1.120   9.610  0.2187 -0.0825 -0.1831
  318loPI   GL2 5078   4.439   1.069   9.381  0.1824  0.2381 -0.1185
  318loPI   C1A 5079   3.900   1.111   9.326 -0.0280  0.2772 -0.1678
  318loPI   C2A 5080   3.771   1.288   8.829  0.1177 -0.0889  0.0218
  318loPI   C3A 5081   3.696   1.097   8.451  0.0522 -0.3255 -0.1321
  318loPI   C4A 5082   3.852   0.919   8.029 -0.1132 -0.1115  0.0700
  318loPI   C5A 5083   3.920   1.024   7.614 -0.1437 -0.3301 -0.2713
  318loPI   C6A 5084   4.184   0.773   7.335  0.0421 -0.2472 -0.1416
  318loPI   C1B 5085   4.229   1.309   9.076 -0.0084  0.1437  0.1181
  318loPI   C2B 5086   4.250   1.441   8.670  0.0817 -0.2039 -0.0403
  318loPI   C3B 5087   4.362   1.702   8.333 -0.1382 -0.0458 -0.2562
  318loPI   C4B 5088   4.398   1.933   7.904 -0.4824  0.1561 -0.1789
  319loPI    C1 5089   8.572   6.727  10.454 -0.0828  0.1426  0.1329
  319loPI    C2 5090   8.202   6.833  10.564 -0.1450 -0.0863  0.1498
  319loPI    C3 5091   8.258   6.509  10.335  0.0451 -0.0519  0.1459
  319loPI   PO4 5092   8.644   6.845  10.270  0.1715  0.1370 -0.1835
  319loPI   GL1 5093   8.457   6.738   9.821 -0.2130 -0.5297  0.0297
  319loPI   GL2 5094   8.661   6.408   9.963 -0.0977 -0.0629 -0.0313
  319loPI   C1A 5095   8.521   6.760   9.361 -0.0743  0.0097  0.1507
  319loPI   C2A 5096   8.486   6.789   8.940 -0.1979  0.0102 -0.1553
  319loPI   C3A 5097   8.335   6.757   8.503 -0.0306 -0.0879 -0.0591
  319loPI   C4A 5098   8.142   7.055   8.188 -0.1226  0.3086 -0.2888
  319loPI   C5A 5099   7.982   7.344   7.830 -0.0444  0.1608 -0.0629
  319loPI   C6A 5100   7.637   7.577   7.552 -0.1839 -0.0050 -0.1733
  319loPI   C1B 5101   8.806   6.342   9.529 -0.0298  0.1199 -0.1674
  319loPI   C2B 5102   8.767   6.337   9.161  0.5249  0.0653 -0.1688
  319loPI   C3B 5103   8.698   6.419   8.685 -0.0030  0.0905 -0.0631
  319loPI   C4B 5104   8.682   6.478   8.213  0.5253 -0.0217  0.1212
  320loPI    C1 5105   4.970  14.658  10.277  0.3881 -0.0350  0.0877
  320loPI    C2 5106   4.940  14.975  10.035  0.0762 -0.0278  0.1317
  320loPI    C3 5107   4.882  15.018  10.429 -0.1130 -0.1638  0.1199
  320loPI   PO4 5108   5.030  14.372  10.170  0.0987 -0.1305 -0.3262
  320loPI   GL1 5109   4.918  14.244   9.800  0.0581  0.0127  0.0060
  320loPI   GL2 5110   4.868  13.997   9.560 -0.3323 -0.1161 -0.1637
  320loPI   C1A 5111   5.104  14.393   9.392  0.0838 -0.1342  0.2324
  320loPI   C2A 5112   5.260  14.261   8.933 -0.1154 -0.1015  0.0332
  320loPI   C3A 5113   5.319  14.200   8.483  0.0136 -0.1206  0.0525
  320loPI   C4A 5114   5.463  14.175   8.005 -0.3186  0.0283 -0.2770
  320loPI   C5A 5115   5.751  14.233   7.744  0.4063 -0.1298 -0.0990
  320loPI   C6A 5116   5.946  14.290   7.342  0.1712  0.2430 -0.2897
  320loPI   C1B 5117   5.135  13.859   9.239  0.0071 -0.0622 -0.0024
  320loPI   C2B 5118   5.145  13.839   8.790 -0.2623 -0.3895 -0.0903
  320loPI   C3B 5119   5.345  13.674   8.395  0.0064 -0.2387 -0.3424
  320loPI   C4B 5120   5.191  13.702   7.989 -0.0738 -0.1530 -0.1608
  321loPI    C1 5121  10.861  10.520   9.910 -0.2612 -0.0805  0.1075
  321loPI    C2 5122  10.650  10.508  10.249  0.0001 -0.0200  0.2750
  321loPI    C3 5123  10.949  10.771  10.209 -0.1166  0.0664 -0.0561
  321loPI   PO4 5124  10.754  10.504   9.755  0.3077 -0.1040  0.3685
  321loPI   GL1 5125  10.898  10.145   9.465 -0.2774 -0.1959  0.2412
  321loPI   GL2 5126  11.183  10.320   9.509 -0.1219 -0.1013 -0.1742
  321loPI   C1A 5127  10.867  10.226   9.077  0.2170 -0.1940  0.2857
  321loPI   C2A 5128  10.926  10.156   8.629  0.2363 -0.1840  0.2552
  321loPI   C3A 5129  11.087  10.301   8.341 -0.1464 -0.1245  0.3274
  321loPI   C4A 5130  11.097  10.544   8.106 -0.0081  0.2570  0.0351
  321loPI   C5A 5131  11.304  10.651   7.674  0.2111 -0.1461 -0.1280
  321loPI   C6A 5132  11.742  10.565   7.592  0.2674  0.1102  0.1797
  321loPI   C1B 5133  11.292  10.519   9.238 -0.2939 -0.1556  0.1473
  321loPI   C2B 5134  11.280  10.454   8.797  0.0353 -0.0181  0.1022
  321loPI   C3B 5135  11.529  10.439   8.478  0.2606  0.2676  0.0274
  321loPI   C4B 5136  11.625  10.547   8.064  0.2087 -0.0288  0.1742
  322loPI    C1 5137   6.988   4.643  10.156 -0.3275  0.2952  0.0102
  322loPI    C2 5138   6.675   4.477  10.341 -0.2196  0.0129 -0.0544
  322loPI    C3 5139   7.033   4.483  10.520 -0.2198  0.1700 -0.0574
  322loPI   PO4 5140   6.867   4.734   9.887  0.0333 -0.2148  0.0333
  322loPI   GL1 5141   6.824   4.956   9.534  0.2205 -0.1597 -0.1281
  322loPI   GL2 5142   6.832   4.611   9.391 -0.0203 -0.3147  0.0070
  322loPI   C1A 5143   6.816   5.098   9.076  0.3772  0.0292 -0.1100
  322loPI   C2A 5144   6.787   5.049   8.626  0.2435 -0.0891  0.1228
  322loPI   C3A 5145   6.805   5.075   8.262  0.1144 -0.0205  0.2475
  322loPI   C4A 5146   7.141   5.005   7.899  0.0960 -0.3550 -0.2761
  322loPI   C5A 5147   7.334   4.808   7.454 -0.1281  0.0855  0.2464
  322loPI   C6A 5148   7.349   4.675   7.111  0.0154  0.4012 -0.1201
  322loPI   C1B 5149   6.831   4.597   8.875  0.0306 -0.2282 -0.0221
  322loPI   C2B 5150   6.655   4.580   8.423  0.1897 -0.0068 -0.1564
  322loPI   C3B 5151   6.426   4.687   8.164  0.0267 -0.3306 -0.0939
  322loPI   C4B 5152   6.336   4.681   7.741  0.1982  0.2842 -0.1574
  323loPI    C1 5153  15.420   7.525  10.251  0.0665 -0.0119 -0.0213
  323loPI    C2 5154  15.725   7.651  10.478 -0.0009  0.0183  0.0529
  323loPI    C3 5155  15.404   7.484  10.648 -0.0024 -0.0636 -0.0293
  323loPI   PO4 5156  15.549   7.511  10.011 -0.1597 -0.3875  0.0819
  323loPI   GL1 5157  15.657   7.157   9.668 -0.0145 -0.0021 -0.0619
  323loPI   GL2 5158  15.833   7.164   9.851  0.0280 -0.0693 -0.0698
  323loPI   C1A 5159  15.394   7.202   9.303 -0.2476 -0.1619 -0.0104
  323loPI   C2A 5160  15.292   7.250   8.809 -0.2847 -0.0312 -0.3401
  323loPI   C3A 5161  15.283   7.189   8.491 -0.0574 -0.2089 -0.0871
  323loPI   C4A 5162  15.371   7.420   8.054  0.1931 -0.1434 -0.1667
  323loPI   C5A 5163  15.687   7.472   7.690 -0.2063  0.3256  0.0388
  323loPI   C6A 5164  15.846   7.446   7.305  0.1577 -0.0867  0.2933
  323loPI   C1B 5165  16.097   7.212   9.501 -0.0056 -0.0174 -0.0573
  323loPI   C2B 5166  15.860   7.295   9.014  0.2100  0.0865 -0.1287
  323loPI   C3B 5167  15.741   7.234   8.578  0.0384  0.2989 -0.2025
  323loPI   C4B 5168  15.833   7.259   8.176  0.2727 -0.0173 -0.2040
  324loPI    C1 5169   9.967  18.029  10.098 -0.2380  0.0843 -0.1352
  324loPI    C2 5170  10.262  18.230   9.917 -0.2238  0.2065  0.0218
  324loPI    C3 5171  10.343  17.991  10.228 -0.2429 -0.0318 -0.1537
  324loPI   PO4 5172   9.845  17.916   9.908  0.1845 -0.1524 -0.0880
  324loPI   GL1 5173   9.976  18.044   9.469 -0.0005  0.1656  0.1364
  324loPI   GL2 5174  10.120  18.377   9.474  0.2431  0.0599  0.0984
  324loPI   C1A 5175   9.871  18.116   9.118  0.1721 -0.0666  0.1443
  324loPI   C2A 5176   9.938  18.117   8.712  0.0875  0.0234  0.1082
  324loPI   C3A 5177   9.806  18.291   8.299  0.1830  0.0219 -0.0548
  324loPI   C4A 5178   9.904  18.101   7.865 -0.0035 -0.1204  0.1351
  324loPI   C5A 5179  10.086  17.758   7.662  0.1449 -0.0548  0.1763
  324loPI   C6A 5180  10.321  17.494   7.486 -0.0395  0.0423  0.2911
  324loPI   C1B 5181  10.140  18.633   9.019  0.0101 -0.2146 -0.0946
  324loPI   C2B 5182  10.042  18.680   8.655 -0.4588 -0.0080  0.0428
  324loPI   C3B 5183  10.168  18.626   8.293 -0.1030 -0.1866 -0.0062
  324loPI   C4B 5184  10.307  18.388   8.000 -0.1979 -0.0833 -0.0370
  325loPI    C1 5185   4.616   7.805  10.841 -0.1170 -0.0293  0.2071
  325loPI    C2 5186   4.849   7.516  10.989  0.0786  0.0917  0.1389
  325loPI    C3 5187   4.664   7.770  11.236  0.0695  0.0344  0.1912
  325loPI   PO4 5188   4.848   7.868  10.598 -0.0374 -0.0916 -0.0468
  325loPI   GL1 5189   4.880   7.886  10.091  0.0223 -0.2520 -0.4901
  325loPI   GL2 5190   5.086   8.096  10.035  0.2049  0.1439 -0.0081
  325loPI   C1A 5191   4.813   7.746   9.678  0.1643 -0.0270 -0.2787
  325loPI   C2A 5192   4.784   7.881   9.231 -0.1036 -0.0379  0.0412
  325loPI   C3A 5193   4.734   7.926   8.812  0.0118 -0.1068 -0.0411
  325loPI   C4A 5194   4.708   7.845   8.401  0.1094 -0.0687 -0.0401
  325loPI   C5A 5195   4.612   7.506   7.987 -0.3379  0.4050  0.2418
  325loPI   C6A 5196   4.873   7.207   7.923  0.1389 -0.2186 -0.1405
  325loPI   C1B 5197   5.049   8.268   9.632 -0.2076 -0.0715 -0.1433
  325loPI   C2B 5198   5.074   8.282   9.198 -0.0230 -0.1277 -0.1055
  325loPI   C3B 5199   5.043   8.309   8.783 -0.0050 -0.0897 -0.0968
  325loPI   C4B 5200   5.027   8.275   8.412  0.2149  0.0133 -0.3240
  326loPI    C1 5201  15.683   1.329   9.956  0.0085  0.2275 -0.0557
  326loPI    C2 5202  15.991   1.202  10.178  0.0224 -0.0785 -0.2442
  326loPI    C3 5203  15.637   1.271  10.349  0.0689 -0.1835 -0.1045
  326loPI   PO4 5204  15.713   1.220   9.708 -0.0411 -0.0347  0.1707
  326loPI   GL1 5205  15.898   1.145   9.347 -0.0070  0.0749  0.4332
  326loPI   GL2 5206  16.214   0.952   9.372  0.3673 -0.0632  0.1046
  326loPI   C1A 5207  16.014   1.146   8.855  0.1706 -0.3027  0.1787
  326loPI   C2A 5208  15.992   1.293   8.487  0.2508  0.1513  0.1270
  326loPI   C3A 5209  16.040   1.394   8.077  0.0186  0.3471 -0.0964
  326loPI   C4A 5210  16.369   1.520   7.857 -0.0199  0.4180 -0.0064
  326loPI   C5A 5211  16.588   1.758   7.608 -0.0288 -0.2062 -0.1749
  326loPI   C6A 5212  17.030   1.644   7.400  0.1224 -0.2618  0.1799
  326loPI   C1B 5213  16.458   1.014   8.993  0.0036 -0.2892  0.1324
  326loPI   C2B 5214  16.417   0.882   8.619 -0.1304  0.1115  0.0942
  326loPI   C3B 5215  16.331   1.029   8.262  0.1476 -0.1293 -0.0445
  326loPI   C4B 5216  16.631   1.025   7.941  0.0088  0.2808  0.0629
  327loPI    C1 5217  11.351  11.079   9.808 -0.0246  0.2490 -0.1198
  327loPI    C2 5218  11.535  10.763   9.647 -0.4900 -0.1485  0.1006
  327loPI    C3 5219  11.632  10.885  10.015 -0.0188  0.2360 -0.1396
  327loPI   PO4 5220  11.047  10.982   9.775  0.0346 -0.2381 -0.0865
  327loPI   GL1 5221  10.754  10.846   9.446 -0.0036  0.1787  0.3371
  327loPI   GL2 5222  10.540  10.965   9.477 -0.3250 -0.0502 -0.1212
  327loPI   C1A 5223  10.732  10.725   9.006  0.2277 -0.0875 -0.2552
  327loPI   C2A 5224  10.754  10.607   8.601 -0.1262  0.1260 -0.0703
  327loPI   C3A 5225  10.605  10.524   8.283 -0.1548  0.0462 -0.0824
  327loPI   C4A 5226  10.642  10.096   8.202 -0.1997  0.0384  0.4849
  327loPI   C5A 5227  10.995   9.978   7.899 -0.0322  0.0196 -0.1465
  327loPI   C6A 5228  11.241  10.130   7.524  0.2866  0.1738  0.1767
  327loPI   C1B 5229  10.276  10.883   9.166  0.0023  0.1831  0.1763
  327loPI   C2B 5230  10.155  10.812   8.699 -0.0262  0.0652 -0.0723
  327loPI   C3B 5231  10.043  11.180   8.478  0.0120 -0.0837  0.0879
  327loPI   C4B 5232  10.165  11.296   8.084 -0.2135  0.1954 -0.0711
  328loPI    C1 5233  13.946   5.723  10.411 -0.2171 -0.1217  0.0509
  328loPI    C2 5234  14.071   5.893  10.751 -0.3661  0.0587  0.0168
  328loPI    C3 5235  14.196   5.525  10.654 -0.0402  0.1465  0.0913
  328loPI   PO4 5236  13.929   5.932  10.232 -0.2909 -0.0831  0.1063
  328loPI   GL1 5237  13.752   5.990   9.864  0.0450  0.2647  0.1527
  328loPI   GL2 5238  13.695   5.702   9.833  0.2923 -0.1123  0.2776
  328loPI   C1A 5239  13.797   5.842   9.372  0.1418 -0.0663 -0.4378
  328loPI   C2A 5240  13.794   5.699   9.000  0.0687 -0.2395 -0.1717
  328loPI   C3A 5241  13.856   6.022   8.731 -0.3861  0.2106  0.0122
  328loPI   C4A 5242  13.747   6.207   8.398 -0.0288  0.0966 -0.0379
  328loPI   C5A 5243  13.780   6.521   8.158  0.1258 -0.0600  0.0656
  328loPI   C6A 5244  14.075   6.813   7.971 -0.1894 -0.1244 -0.2554
  328loPI   C1B 5245  13.351   5.666   9.515  0.1953  0.0679  0.3389
  328loPI   C2B 5246  13.324   5.518   9.134 -0.0204 -0.3129 -0.3774
  328loPI   C3B 5247  13.116   5.393   8.733  0.1765  0.1778  0.2644
  328loPI   C4B 5248  13.209   5.395   8.299  0.4600 -0.0905 -0.0300
  329loPI    C1 5249   8.938  12.084  10.406  0.2215 -0.0766  0.0186
  329loPI    C2 5250   9.197  12.353  10.550  0.0716  0.1481 -0.1249
  329loPI    C3 5251   8.804  12.418  10.581  0.0313 -0.1284 -0.0266
  329loPI   PO4 5252   8.935  11.994  10.212  0.2177  0.1646  0.0389
  329loPI   GL1 5253   8.655  12.018   9.906  0.0127  0.0318  0.0395
  329loPI   GL2 5254   8.837  12.270   9.727 -0.0442 -0.3085 -0.1169
  329loPI   C1A 5255   8.652  11.799   9.527 -0.2135 -0.0125 -0.1040
  329loPI   C2A 5256   8.482  11.736   9.103 -0.1917 -0.0570  0.3453
  329loPI   C3A 5257   8.404  11.855   8.666  0.5921 -0.1689  0.0817
  329loPI   C4A 5258   8.481  11.702   8.292  0.1381 -0.0973 -0.0512
  329loPI   C5A 5259   8.440  11.609   7.851 -0.0591 -0.0079  0.2695
  329loPI   C6A 5260   8.550  11.511   7.452  0.0274  0.2028 -0.1685
  329loPI   C1B 5261   8.807  12.207   9.236  0.1187  0.0628  0.0534
  329loPI   C2B 5262   8.795  12.105   8.788  0.2781 -0.0553 -0.1632
  329loPI   C3B 5263   8.702  12.112   8.439 -0.3401 -0.0837  0.1043
  329loPI   C4B 5264   8.829  12.076   7.998 -0.0500  0.3434 -0.2018
  330loPI    C1 5265   0.189   9.671  10.487 -0.1107 -0.0609 -0.0256
  330loPI    C2 5266   0.366   9.487  10.794 -0.0503 -0.0893 -0.0772
  330loPI    C3 5267  -0.020   9.589  10.818 -0.0335 -0.0487  0.0262
  330loPI   PO4 5268   0.176   9.559  10.304  0.0234 -0.2364  0.0324
  330loPI   GL1 5269   0.264   9.367   9.981 -0.0662  0.0552  0.4000
  330loPI   GL2 5270   0.248   9.038   9.933 -0.1620  0.0417  0.1143
  330loPI   C1A 5271   0.381   9.358   9.542  0.1603  0.0066 -0.2206
  330loPI   C2A 5272   0.433   9.313   9.141 -0.1701  0.0486 -0.1028
  330loPI   C3A 5273   0.302   9.305   8.734  0.2531  0.0920  0.1189
  330loPI   C4A 5274   0.270   9.255   8.416  0.1700 -0.0460 -0.1476
  330loPI   C5A 5275   0.342   9.469   8.084 -0.0970  0.0711 -0.0269
  330loPI   C6A 5276   0.337   9.848   7.803 -0.2798 -0.2013 -0.1725
  330loPI   C1B 5277   0.033   8.931   9.490 -0.0770  0.0685 -0.3149
  330loPI   C2B 5278   0.078   8.964   9.067 -0.0042 -0.0291 -0.0752
  330loPI   C3B 5279   0.040   8.892   8.653  0.3920  0.1835 -0.0533
  330loPI   C4B 5280   0.115   8.777   8.266 -0.3672  0.0472 -0.2417
  331loPI    C1 5281   8.838  17.042   9.682  0.1861  0.1391  0.1860
  331loPI    C2 5282   8.473  17.154   9.564  0.2221 -0.2403 -0.3205
  331loPI    C3 5283   8.515  16.891   9.863  0.1087  0.2273  0.1216
  331loPI   PO4 5284   8.959  16.962   9.527  0.0794  0.1015 -0.3692
  331loPI   GL1 5285   8.916  16.838   9.086  0.0148 -0.0741  0.0137
  331loPI   GL2 5286   9.213  17.003   9.112 -0.0637 -0.1969  0.0479
  331loPI   C1A 5287   8.718  16.616   8.744 -0.1012  0.0140  0.2219
  331loPI   C2A 5288   8.737  16.601   8.275  0.2443 -0.2899 -0.1887
  331loPI   C3A 5289   8.802  16.470   7.886 -0.3467  0.1902  0.0613
  331loPI   C4A 5290   8.763  16.532   7.493  0.5238 -0.1233 -0.1808
  331loPI   C5A 5291   9.025  16.596   7.112  0.1370 -0.1838  0.0678
  331loPI   C6A 5292   9.382  16.553   6.947 -0.2651  0.0074  0.0773
  331loPI   C1B 5293   8.919  17.113   8.673 -0.1166  0.2514  0.3551
  331loPI   C2B 5294   8.903  17.092   8.215 -0.3128  0.2870  0.3787
  331loPI   C3B 5295   8.996  16.917   7.800  0.5367  0.1016  0.0958
  331loPI   C4B 5296   9.250  16.607   7.494 -0.0746 -0.1861  0.0551
  332loPI    C1 5297   2.817  10.852  10.636 -0.3171 -0.1752 -0.0365
  332loPI    C2 5298   2.777  10.628  10.964  0.0099 -0.1186  0.0461
  332loPI    C3 5299   2.756  11.026  10.991 -0.3596 -0.1271 -0.0674
  332loPI   PO4 5300   2.923  10.603  10.471  0.0427  0.1869 -0.2605
  332loPI   GL1 5301   2.898  10.271  10.179 -0.0172  0.0251 -0.0114
  332loPI   GL2 5302   3.199  10.303  10.058  0.2273  0.1244  0.0591
  332loPI   C1A 5303   2.639  10.385   9.926  0.0915 -0.1093  0.2344
  332loPI   C2A 5304   2.491  10.222   9.685  0.0347 -0.1360 -0.1423
  332loPI   C3A 5305   2.454  10.191   9.310  0.2296 -0.0350  0.1230
  332loPI   C4A 5306   2.431  10.179   8.884 -0.1840  0.3266 -0.2000
  332loPI   C5A 5307   2.381  10.094   8.552  0.1136 -0.1561 -0.0615
  332loPI   C6A 5308   2.454   9.857   8.123  0.0418  0.1276  0.0722
  332loPI   C1B 5309   3.092  10.219   9.603 -0.0769  0.1467 -0.1844
  332loPI   C2B 5310   3.099  10.138   9.189  0.2773 -0.0761  0.2040
  332loPI   C3B 5311   2.886  10.075   8.887  0.1977  0.1501 -0.0828
  332loPI   C4B 5312   2.887  10.178   8.472 -0.1697  0.3220 -0.0939
  333loPI    C1 5313  12.604   8.414  10.194  0.1514 -0.0593  0.2352
  333loPI    C2 5314  12.205   8.383  10.188  0.1446  0.0538  0.0031
  333loPI    C3 5315  12.381   8.658  10.419  0.0786  0.1261 -0.0323
  333loPI   PO4 5316  12.673   8.320   9.951  0.1340 -0.1775  0.3192
  333loPI   GL1 5317  12.850   8.103   9.475  0.0050  0.0833  0.3566
  333loPI   GL2 5318  12.541   8.053   9.545  0.0355 -0.0894  0.2063
  333loPI   C1A 5319  12.862   7.912   8.969  0.2389  0.0306 -0.1996
  333loPI   C2A 5320  12.996   8.104   8.548 -0.3101  0.1911 -0.2293
  333loPI   C3A 5321  13.141   7.985   8.152 -0.3654 -0.0104 -0.3179
  333loPI   C4A 5322  12.808   7.808   7.893  0.1160 -0.1732 -0.1028
  333loPI   C5A 5323  12.323   7.718   7.902 -0.1909 -0.1352  0.3243
  333loPI   C6A 5324  12.033   7.704   7.688  0.3242 -0.0029  0.0869
  333loPI   C1B 5325  12.426   8.145   9.169  0.4795 -0.1634 -0.2166
  333loPI   C2B 5326  12.309   8.150   8.828  0.0722 -0.3614 -0.1598
  333loPI   C3B 5327  12.176   8.267   8.450  0.3307  0.1048  0.0878
  333loPI   C4B 5328  11.981   8.149   8.172  0.2613 -0.1151  0.2597
  334loPI    C1 5329   0.523  13.808  10.371  0.0713 -0.0288 -0.1171
  334loPI    C2 5330   0.800  14.091  10.426  0.1863 -0.1782  0.0916
  334loPI    C3 5331   0.492  14.061  10.679  0.0999 -0.1550 -0.0096
  334loPI   PO4 5332   0.693  13.647  10.151  0.0334  0.3408  0.0934
  334loPI   GL1 5333   1.069  13.518   9.786  0.0019  0.1559 -0.0643
  334loPI   GL2 5334   1.261  13.440   9.624  0.1057  0.2097  0.1279
  334loPI   C1A 5335   0.996  13.540   9.247 -0.1857 -0.1936  0.1486
  334loPI   C2A 5336   1.087  13.434   8.829  0.4285  0.3004  0.0255
  334loPI   C3A 5337   1.098  13.385   8.386  0.0905  0.4524  0.0655
  334loPI   C4A 5338   1.384  13.532   8.046  0.0413  0.0866 -0.5030
  334loPI   C5A 5339   1.205  13.469   7.717  0.3108  0.1576  0.0122
  334loPI   C6A 5340   0.925  13.429   7.357 -0.5353  0.0037  0.0712
  334loPI   C1B 5341   1.411  13.163   9.283  0.4131 -0.1137 -0.1144
  334loPI   C2B 5342   1.422  13.001   8.898 -0.4245  0.0143  0.2484
  334loPI   C3B 5343   1.505  13.074   8.435 -0.0105 -0.0458 -0.0418
  334loPI   C4B 5344   1.546  12.982   7.927  0.0064  0.0218  0.1717
  335loPI    C1 5345   0.735   3.174  10.149 -0.2851  0.1722 -0.0417
  335loPI    C2 5346   0.744   3.167  10.549 -0.1910 -0.0485 -0.0466
  335loPI    C3 5347   0.459   2.967  10.352 -0.1340 -0.0843 -0.0933
  335loPI   PO4 5348   0.833   3.421  10.099 -0.0512 -0.0880  0.1478
  335loPI   GL1 5349   0.873   3.585   9.748 -0.0902 -0.2239 -0.2113
  335loPI   GL2 5350   0.551   3.408   9.680  0.2971 -0.1760 -0.4825
  335loPI   C1A 5351   0.784   3.870   9.533  0.1944 -0.1107  0.2413
  335loPI   C2A 5352   0.744   3.815   9.006  0.0118 -0.0091 -0.2203
  335loPI   C3A 5353   0.649   3.939   8.638 -0.0338  0.4797 -0.0794
  335loPI   C4A 5354   0.559   3.900   8.227  0.1493  0.3324  0.3842
  335loPI   C5A 5355   0.820   3.653   7.883 -0.1344  0.0870  0.0651
  335loPI   C6A 5356   0.808   3.431   7.512  0.0053 -0.0313 -0.5107
  335loPI   C1B 5357   0.624   3.446   9.304  0.2140 -0.1828  0.3353
  335loPI   C2B 5358   0.743   3.284   8.993  0.0065 -0.1582  0.0823
  335loPI   C3B 5359   0.924   3.459   8.632 -0.1315  0.0652 -0.1505
  335loPI   C4B 5360   0.894   3.485   8.336  0.0236 -0.1746  0.1561
  336loPI    C1 5361   3.929   9.289  10.989  0.0366  0.0552  0.2351
  336loPI    C2 5362   4.260   9.497  11.072  0.0801  0.0610  0.0510
  336loPI    C3 5363   4.254   9.101  11.127  0.2080  0.0225 -0.1994
  336loPI   PO4 5364   3.792   9.277  10.738  0.0810  0.2598  0.2780
  336loPI   GL1 5365   3.638   9.491  10.319  0.0665 -0.2994  0.1299
  336loPI   GL2 5366   3.900   9.362  10.242 -0.3475 -0.1911  0.1647
  336loPI   C1A 5367   3.452   9.300   9.954  0.2627 -0.1709 -0.3187
  336loPI   C2A 5368   3.496   9.296   9.511 -0.2430  0.0068  0.3268
  336loPI   C3A 5369   3.495   9.253   9.064  0.1967  0.1092 -0.0504
  336loPI   C4A 5370   3.492   9.151   8.623  0.0173  0.0503  0.0430
  336loPI   C5A 5371   3.401   9.208   8.210 -0.2540 -0.0606  0.1469
  336loPI   C6A 5372   3.315   9.441   8.020 -0.2579  0.0377  0.0661
  336loPI   C1B 5373   4.053   9.250   9.902  0.4572  0.0305 -0.1283
  336loPI   C2B 5374   4.095   9.196   9.395 -0.1456 -0.0846  0.2745
  336loPI   C3B 5375   3.985   9.203   8.969 -0.1992 -0.4806  0.4286
  336loPI   C4B 5376   3.972   9.088   8.470 -0.0100  0.0853 -0.0858
  337loPI    C1 5377  12.604   3.367  10.324  0.0565  0.3355  0.1977
  337loPI    C2 5378  12.737   3.064  10.549  0.1055  0.1907 -0.0234
  337loPI    C3 5379  12.355   3.179  10.574  0.1069  0.1658  0.1216
  337loPI   PO4 5380  12.626   3.333  10.069  0.0119 -0.0554  0.0463
  337loPI   GL1 5381  12.627   3.319   9.589 -0.0794 -0.3792  0.0657
  337loPI   GL2 5382  12.344   3.566   9.711  0.0984  0.0640  0.1236
  337loPI   C1A 5383  12.746   3.500   9.112 -0.1466  0.0469  0.0154
  337loPI   C2A 5384  12.803   3.375   8.651 -0.0434 -0.3246  0.2207
  337loPI   C3A 5385  12.812   3.077   8.307  0.1710 -0.2511 -0.1031
  337loPI   C4A 5386  12.957   2.766   7.998 -0.0425 -0.1394 -0.0163
  337loPI   C5A 5387  12.615   2.532   7.695 -0.2733  0.0362  0.1790
  337loPI   C6A 5388  12.377   2.193   7.826  0.1359 -0.0402  0.1714
  337loPI   C1B 5389  12.336   3.737   9.319  0.0951  0.2646  0.3676
  337loPI   C2B 5390  12.353   3.722   8.880 -0.0265 -0.2564 -0.2689
  337loPI   C3B 5391  12.393   3.791   8.464  0.0737 -0.2384 -0.0825
  337loPI   C4B 5392  12.237   3.871   8.105 -0.1296 -0.0220  0.2573
  338loPI    C1 5393   4.970  11.988  10.549 -0.0734 -0.2300 -0.0853
  338loPI    C2 5394   5.010  11.815  10.907  0.0795  0.1943  0.1103
  338loPI    C3 5395   4.738  12.103  10.853 -0.0935 -0.0171 -0.1791
  338loPI   PO4 5396   4.933  11.784  10.388  0.0639 -0.0147 -0.2348
  338loPI   GL1 5397   5.025  11.868   9.997  0.0730  0.0177 -0.0154
  338loPI   GL2 5398   5.098  12.079   9.784  0.1391 -0.0559 -0.0551
  338loPI   C1A 5399   4.877  11.559   9.588 -0.0853  0.0668 -0.0522
  338loPI   C2A 5400   4.949  11.398   9.237  0.1478  0.0131  0.2091
  338loPI   C3A 5401   5.069  11.486   8.857 -0.1686  0.3225  0.1305
  338loPI   C4A 5402   4.982  11.528   8.380  0.0334  0.3324  0.3451
  338loPI   C5A 5403   5.094  11.600   7.845  0.2769 -0.1744 -0.1135
  338loPI   C6A 5404   5.454  11.466   7.619 -0.0116 -0.0203  0.2323
  338loPI   C1B 5405   5.251  11.980   9.400 -0.3294 -0.0236  0.1805
  338loPI   C2B 5406   5.341  11.951   8.985 -0.0755 -0.0769 -0.0571
  338loPI   C3B 5407   5.247  11.916   8.590 -0.0755  0.1735 -0.1592
  338loPI   C4B 5408   5.160  11.978   8.209 -0.0194 -0.3792 -0.3091
  339loPI    C1 5409  14.425   0.706  10.082 -0.0953  0.1864 -0.0189
  339loPI    C2 5410  14.199   0.377  10.073 -0.0599  0.1576  0.1144
  339loPI    C3 5411  14.486   0.414  10.348  0.0647  0.2159 -0.0222
  339loPI   PO4 5412  14.422   0.740   9.807  0.2861  0.0455  0.3172
  339loPI   GL1 5413  14.378   0.762   9.371 -0.0557  0.1130 -0.1899
  339loPI   GL2 5414  14.108   0.576   9.348  0.2932 -0.1729  0.1612
  339loPI   C1A 5415  14.524   0.802   8.987  0.1386  0.1305  0.1491
  339loPI   C2A 5416  14.498   0.896   8.599 -0.3127  0.1796  0.1529
  339loPI   C3A 5417  14.579   0.970   8.143  0.2132  0.0153  0.1300
  339loPI   C4A 5418  14.575   0.796   7.688 -0.0460 -0.2556  0.3412
  339loPI   C5A 5419  14.745   0.873   7.373  0.1134 -0.2867  0.0308
  339loPI   C6A 5420  14.684   1.342   7.305 -0.1776  0.0721  0.0354
  339loPI   C1B 5421  14.150   0.447   8.924  0.2538 -0.2642 -0.0601
  339loPI   C2B 5422  14.079   0.507   8.447  0.0567 -0.1752 -0.2780
  339loPI   C3B 5423  13.906   0.354   8.103 -0.0886 -0.1677  0.1023
  339loPI   C4B 5424  13.603   0.047   7.942  0.2324  0.0347 -0.1104
  340loPI    C1 5425   3.430   7.821  10.413  0.1088 -0.1458 -0.2160
  340loPI    C2 5426   3.410   7.723  10.026 -0.1167 -0.0366 -0.2335
  340loPI    C3 5427   3.105   7.915  10.200 -0.0242 -0.1007  0.0032
  340loPI   PO4 5428   3.652   7.977  10.470 -0.0302 -0.1088 -0.0518
  340loPI   GL1 5429   3.956   7.940  10.224  0.0639  0.0055 -0.0804
  340loPI   GL2 5430   3.907   7.850   9.879  0.3287 -0.2002 -0.1963
  340loPI   C1A 5431   3.979   8.322   9.824  0.2126  0.2055 -0.0107
  340loPI   C2A 5432   3.991   8.391   9.475  0.1324 -0.1260  0.2846
  340loPI   C3A 5433   4.043   8.354   8.987 -0.0331 -0.0753 -0.1758
  340loPI   C4A 5434   3.940   8.351   8.560  0.0686  0.1439  0.0966
  340loPI   C5A 5435   3.879   8.196   8.113 -0.1993  0.2131 -0.1475
  340loPI   C6A 5436   3.801   7.980   7.681 -0.2236 -0.3006  0.0276
  340loPI   C1B 5437   3.673   7.924   9.607 -0.1334  0.4065 -0.0092
  340loPI   C2B 5438   3.493   7.659   9.360  0.1453 -0.0893 -0.2919
  340loPI   C3B 5439   3.422   7.471   8.995  0.1830  0.1223  0.1310
  340loPI   C4B 5440   3.331   7.417   8.508 -0.3146 -0.4021  0.0368
  341loPI    C1 5441  12.660   2.198  10.400 -0.1927  0.1337 -0.0489
  341loPI    C2 5442  12.540   2.430  10.704 -0.1880  0.1399 -0.0520
  341loPI    C3 5443  12.906   2.268  10.708 -0.1700  0.1796 -0.0774
  341loPI   PO4 5444  12.607   2.355  10.153 -0.2223  0.0940  0.1665
  341loPI   GL1 5445  12.730   2.457   9.827 -0.2780 -0.0570 -0.2713
  341loPI   GL2 5446  12.773   2.704   9.739 -0.0940 -0.1742  0.2180
  341loPI   C1A 5447  12.452   2.430   9.454 -0.1057  0.1748  0.1310
  341loPI   C2A 5448  12.183   2.598   9.110  0.0864  0.1037 -0.5987
  341loPI   C3A 5449  12.029   2.727   8.696  0.0838 -0.1521 -0.1207
  341loPI   C4A 5450  11.817   2.685   8.294 -0.0193  0.0661  0.2017
  341loPI   C5A 5451  11.716   2.379   7.983 -0.0375  0.1646  0.0207
  341loPI   C6A 5452  11.507   1.975   8.027 -0.1507  0.1386 -0.3428
  341loPI   C1B 5453  12.770   2.937   9.329  0.2653 -0.2370 -0.0965
  341loPI   C2B 5454  12.769   3.007   8.975 -0.3042 -0.2897  0.0932
  341loPI   C3B 5455  12.558   2.845   8.678 -0.1187  0.0535  0.0915
  341loPI   C4B 5456  12.392   2.848   8.271  0.0953 -0.1406 -0.1444
  342loPI    C1 5457   3.696   5.408  10.689 -0.0298  0.2133 -0.1146
  342loPI    C2 5458   3.431   5.152  10.844  0.1299  0.0243 -0.1502
  342loPI    C3 5459   3.658   5.375  11.085  0.0639  0.0568 -0.1179
  342loPI   PO4 5460   3.579   5.425  10.388 -0.0160  0.2702 -0.0025
  342loPI   GL1 5461   3.605   5.223   9.933 -0.2022 -0.0271 -0.2672
  342loPI   GL2 5462   3.320   5.436   9.919  0.3223  0.0128 -0.0217
  342loPI   C1A 5463   3.578   5.146   9.594  0.0782  0.0714  0.1405
  342loPI   C2A 5464   3.562   5.166   9.163 -0.1437 -0.0642 -0.2698
  342loPI   C3A 5465   3.562   5.216   8.661 -0.0274 -0.3084 -0.2139
  342loPI   C4A 5466   3.592   5.293   8.196 -0.0239  0.1292  0.0633
  342loPI   C5A 5467   3.476   5.447   7.770 -0.0893 -0.2506 -0.1468
  342loPI   C6A 5468   3.455   5.476   7.321 -0.0194 -0.3478  0.0014
  342loPI   C1B 5469   3.443   5.669   9.600  0.1173 -0.2040  0.1060
  342loPI   C2B 5470   3.394   5.651   9.232  0.4868 -0.5038  0.1479
  342loPI   C3B 5471   3.338   5.686   8.748 -0.2626  0.1115 -0.0652
  342loPI   C4B 5472   3.282   5.739   8.354 -0.0261 -0.1023 -0.0857
  343loPI    C1 5473  11.530   6.449  10.002  0.4650  0.3330 -0.0655
  343loPI    C2 5474  11.803   6.245  10.212 -0.0335 -0.0574  0.2254
  343loPI    C3 5475  11.417   6.142  10.232 -0.1867  0.3593 -0.3303
  343loPI   PO4 5476  11.680   6.449   9.795  0.0214 -0.1147 -0.3945
  343loPI   GL1 5477  11.788   6.436   9.431  0.0615 -0.1423  0.1429
  343loPI   GL2 5478  11.810   6.114   9.408  0.0640 -0.2410 -0.1204
  343loPI   C1A 5479  11.636   6.664   9.119 -0.2889 -0.1677  0.0337
  343loPI   C2A 5480  11.447   6.615   8.790  0.1983 -0.2510 -0.0360
  343loPI   C3A 5481  11.506   6.657   8.312 -0.2242  0.1863  0.1988
  343loPI   C4A 5482  11.661   6.564   7.930  0.0905 -0.2031  0.2602
  343loPI   C5A 5483  11.515   6.643   7.645 -0.1479 -0.1135  0.1152
  343loPI   C6A 5484  11.220   6.341   7.401  0.2090 -0.1022  0.0630
  343loPI   C1B 5485  11.779   6.156   8.976  0.1550  0.1679  0.0794
  343loPI   C2B 5486  11.765   6.277   8.527  0.0845 -0.0488 -0.2369
  343loPI   C3B 5487  11.640   6.107   8.133  0.1501 -0.3261  0.0480
  343loPI   C4B 5488  11.233   6.002   7.835  0.2665 -0.2866  0.0843
  344loPI    C1 5489   4.208  18.403  10.349  0.0625  0.0992 -0.0487
  344loPI    C2 5490   3.991  18.737  10.393 -0.2029 -0.0948  0.1439
  344loPI    C3 5491   4.066  18.503  10.709  0.0344 -0.1869  0.0220
  344loPI   PO4 5492   4.381  18.591  10.051 -0.2154  0.1859 -0.2115
  344loPI   GL1 5493   4.604  18.719   9.717  0.1837  0.5233  0.1115
  344loPI   GL2 5494   4.562  18.952   9.436 -0.1572  0.0450 -0.2726
  344loPI   C1A 5495   4.501  18.475   9.379 -0.2033 -0.0073  0.2091
  344loPI   C2A 5496   4.635  18.474   8.931  0.0039  0.1650 -0.2321
  344loPI   C3A 5497   4.619  18.399   8.552  0.0501  0.0175 -0.1294
  344loPI   C4A 5498   4.621  18.117   8.186 -0.1010  0.2012 -0.1749
  344loPI   C5A 5499   4.674  18.042   7.727  0.1266  0.0449  0.0007
  344loPI   C6A 5500   5.035  17.810   7.484 -0.2247  0.2379 -0.1817
  344loPI   C1B 5501   4.642  18.915   9.042  0.2498 -0.0440  0.1179
  344loPI   C2B 5502   4.260  19.009   8.710  0.0357  0.3929  0.0406
  344loPI   C3B 5503   3.858  18.937   8.707 -0.1533 -0.0622 -0.2583
  344loPI   C4B 5504   3.595  18.650   8.746 -0.3047 -0.1491 -0.1220
  345loPI    C1 5505   4.359  11.963  10.526 -0.2278 -0.1844 -0.2481
  345loPI    C2 5506   4.519  11.641  10.701  0.1108  0.0959 -0.0275
  345loPI    C3 5507   4.215  11.833  10.876  0.1740  0.1310  0.0443
  345loPI   PO4 5508   4.486  11.938  10.243  0.0087 -0.0035  0.0133
  345loPI   GL1 5509   4.590  11.997   9.875  0.0102  0.3590  0.0001
  345loPI   GL2 5510   4.368  12.291   9.846 -0.1135  0.0039  0.0430
  345loPI   C1A 5511   4.609  11.967   9.398  0.1325 -0.1384  0.3529
  345loPI   C2A 5512   4.761  11.864   8.984 -0.3579 -0.0988  0.0641
  345loPI   C3A 5513   4.719  11.937   8.541  0.1061  0.0290 -0.1248
  345loPI   C4A 5514   4.607  11.690   8.056  0.0292 -0.0344  0.2771
  345loPI   C5A 5515   4.315  11.626   7.644 -0.0631 -0.1384 -0.0284
  345loPI   C6A 5516   3.985  11.387   7.351 -0.2129 -0.1197 -0.1383
  345loPI   C1B 5517   4.383  12.388   9.403  0.1114 -0.2139  0.0686
  345loPI   C2B 5518   4.394  12.349   8.976 -0.0381 -0.0813 -0.1922
  345loPI   C3B 5519   4.464  12.402   8.591 -0.2860  0.1003 -0.2598
  345loPI   C4B 5520   4.456  12.154   8.226  0.1083 -0.1141  0.0321
  346loPI    C1 5521   7.633  11.431  10.706  0.1609  0.0670 -0.0297
  346loPI    C2 5522   7.679  11.124  10.957  0.1308  0.1677  0.0999
  346loPI    C3 5523   7.986  11.369  10.882  0.1803  0.0545 -0.0730
  346loPI   PO4 5524   7.527  11.317  10.481 -0.1518 -0.0616  0.4312
  346loPI   GL1 5525   7.316  11.227  10.056  0.2977  0.2318 -0.1757
  346loPI   GL2 5526   7.536  11.450  10.030  0.0058  0.1790 -0.1586
  346loPI   C1A 5527   7.130  10.967   9.706 -0.2067  0.1018 -0.0362
  346loPI   C2A 5528   6.909  11.039   9.418  0.1680  0.1554 -0.2450
  346loPI   C3A 5529   6.834  10.992   8.938 -0.2633 -0.2161 -0.1042
  346loPI   C4A 5530   6.749  10.958   8.516 -0.0359  0.1106  0.3485
  346loPI   C5A 5531   6.741  10.893   8.200  0.0566  0.0009  0.3425
  346loPI   C6A 5532   6.639  10.651   7.876 -0.2568 -0.1910 -0.1736
  346loPI   C1B 5533   7.749  11.368   9.661 -0.2307 -0.0775  0.5753
  346loPI   C2B 5534   7.764  11.513   9.225 -0.1013 -0.2070  0.1258
  346loPI   C3B 5535   7.673  11.428   8.772  0.1884 -0.0958  0.1121
  346loPI   C4B 5536   7.587  11.329   8.345  0.1342 -0.0887  0.2086
  347loPI    C1 5537  16.281   3.597  10.330 -0.1072  0.3767 -0.1090
  347loPI    C2 5538  16.448   3.765  10.653  0.2431  0.1386 -0.1605
  347loPI    C3 5539  16.638   3.470  10.460 -0.2722 -0.1920 -0.1826
  347loPI   PO4 5540  16.194   3.770  10.156 -0.1186  0.2730 -0.2083
  347loPI   GL1 5541  16.324   3.667   9.737  0.3728 -0.4494  0.0827
  347loPI   GL2 5542  16.668   3.695   9.591 -0.0939 -0.1368 -0.3566
  347loPI   C1A 5543  16.181   3.470   9.286  0.0382  0.1543 -0.0049
  347loPI   C2A 5544  16.318   3.477   8.872 -0.3292 -0.0748  0.0344
  347loPI   C3A 5545  16.659   3.169   8.546 -0.2124 -0.0243 -0.0383
  347loPI   C4A 5546  16.676   3.049   8.110 -0.4434  0.1281  0.0980
  347loPI   C5A 5547  16.936   3.191   7.778  0.0970 -0.2182  0.2353
  347loPI   C6A 5548  17.185   3.014   7.437  0.1302  0.2028 -0.3434
  347loPI   C1B 5549  16.519   3.937   9.215 -0.0200  0.1415 -0.3031
  347loPI   C2B 5550  16.596   3.981   8.693  0.3207  0.0555 -0.0649
  347loPI   C3B 5551  16.526   4.079   8.222  0.0643  0.1526 -0.0077
  347loPI   C4B 5552  16.455   4.154   7.731 -0.0098 -0.1190 -0.1685
  348loPI    C1 5553   5.778   8.950  10.793 -0.1460  0.2357 -0.1585
  348loPI    C2 5554   5.485   9.000  11.061  0.1375  0.1127  0.1821
  348loPI    C3 5555   5.868   9.040  11.173  0.2718 -0.2175 -0.1394
  348loPI   PO4 5556   5.714   9.080  10.615 -0.1181  0.1627 -0.0323
  348loPI   GL1 5557   5.941   8.962  10.226  0.0265 -0.1565 -0.0856
  348loPI   GL2 5558   6.158   8.674  10.410  0.1797  0.2499 -0.0636
  348loPI   C1A 5559   5.737   8.779   9.876  0.0075  0.1632  0.2074
  348loPI   C2A 5560   5.828   8.659   9.475  0.0746  0.1670  0.0205
  348loPI   C3A 5561   5.850   8.783   8.972  0.1098  0.2245  0.1415
  348loPI   C4A 5562   5.810   8.682   8.617 -0.0156  0.3299  0.0461
  348loPI   C5A 5563   5.999   8.737   8.223  0.0592 -0.1542  0.1672
  348loPI   C6A 5564   6.291   9.059   8.185 -0.2217  0.2203  0.0324
  348loPI   C1B 5565   6.233   8.702   9.955  0.0842 -0.1030  0.1206
  348loPI   C2B 5566   6.478   8.647   9.597  0.0315 -0.0986  0.0022
  348loPI   C3B 5567   6.462   8.646   9.079  0.2879 -0.1230  0.2012
  348loPI   C4B 5568   6.307   8.706   8.628  0.1784  0.4121  0.1763
  349loPI    C1 5569   0.230   6.770  10.585  0.2631 -0.0155  0.1348
  349loPI    C2 5570  -0.008   6.719  10.903  0.2285  0.0515  0.1199
  349loPI    C3 5571  -0.160   6.696  10.534  0.2377  0.1316  0.1108
  349loPI   PO4 5572   0.308   7.058  10.602 -0.4017  0.0447  0.0357
  349loPI   GL1 5573   0.668   7.081  10.433  0.3971 -0.0622  0.1012
  349loPI   GL2 5574   0.496   7.330  10.239 -0.0332 -0.2582  0.0079
  349loPI   C1A 5575   0.839   7.012  10.040  0.2114  0.2364  0.1123
  349loPI   C2A 5576   0.855   7.044   9.574 -0.1587 -0.1477  0.2782
  349loPI   C3A 5577   0.853   7.025   9.147 -0.2056  0.1269 -0.0926
  349loPI   C4A 5578   0.938   7.050   8.709  0.2544  0.1993  0.0025
  349loPI   C5A 5579   1.142   7.129   8.358  0.0407 -0.2411 -0.1138
  349loPI   C6A 5580   1.498   7.232   7.993 -0.0213 -0.0151  0.1168
  349loPI   C1B 5581   0.623   7.423   9.780 -0.2150  0.0755  0.1902
  349loPI   C2B 5582   0.585   7.466   9.394  0.0805 -0.0220  0.0968
  349loPI   C3B 5583   0.755   7.489   8.980 -0.1142 -0.0515 -0.1735
  349loPI   C4B 5584   0.737   7.420   8.493  0.0606 -0.0060  0.0417
  350loPI    C1 5585   9.411   1.506  10.072  0.0913 -0.1093 -0.1408
  350loPI    C2 5586   9.583   1.866  10.098  0.2631 -0.2055  0.0923
  350loPI    C3 5587   9.320   1.751  10.376 -0.1882 -0.0588 -0.2625
  350loPI   PO4 5588   9.345   1.551   9.774  0.4807  0.2110 -0.2071
  350loPI   GL1 5589   9.101   1.868   9.600  0.1836  0.0171 -0.1749
  350loPI   GL2 5590   9.437   2.091   9.703  0.2678  0.0379  0.0015
  350loPI   C1A 5591   9.018   1.806   9.223  0.0666  0.0259 -0.1635
  350loPI   C2A 5592   9.070   2.033   8.820  0.2607  0.1717 -0.0559
  350loPI   C3A 5593   8.977   2.004   8.272 -0.0877 -0.0044 -0.1955
  350loPI   C4A 5594   9.042   2.050   7.832  0.0798  0.2961 -0.0348
  350loPI   C5A 5595   9.172   2.451   7.594 -0.0525 -0.1451  0.0546
  350loPI   C6A 5596   9.231   2.576   7.253 -0.1934  0.0632  0.0264
  350loPI   C1B 5597   9.475   1.989   9.261 -0.3684  0.2650 -0.0653
  350loPI   C2B 5598   9.580   1.985   8.798 -0.0301  0.4777 -0.0699
  350loPI   C3B 5599   9.602   2.020   8.363  0.4486  0.0920 -0.1650
  350loPI   C4B 5600  10.032   1.878   8.064  0.3361 -0.1770  0.0780
  351loPI    C1 5601  14.662   9.809  10.669  0.2057  0.4191  0.0403
  351loPI    C2 5602  14.332   9.723  10.460  0.3309  0.4498 -0.1729
  351loPI    C3 5603  14.312   9.971  10.773  0.0779  0.1278  0.0731
  351loPI   PO4 5604  14.823   9.854  10.470  0.3404  0.0411  0.0008
  351loPI   GL1 5605  14.729   9.775  10.025  0.4046 -0.0318  0.2057
  351loPI   GL2 5606  14.820   9.496   9.990 -0.4220 -0.2165 -0.0609
  351loPI   C1A 5607  14.602   9.922   9.575  0.3632  0.2336 -0.2467
  351loPI   C2A 5608  14.561   9.852   9.118 -0.2533 -0.1865 -0.2363
  351loPI   C3A 5609  14.669   9.598   8.704  0.0419 -0.1054 -0.3521
  351loPI   C4A 5610  14.571   9.471   8.243  0.2607  0.1165 -0.0294
  351loPI   C5A 5611  14.665   9.505   7.836  0.1032  0.1487 -0.3141
  351loPI   C6A 5612  14.946   9.596   7.388 -0.1829 -0.1039 -0.0198
  351loPI   C1B 5613  14.653   9.374   9.672 -0.2192  0.2814 -0.2575
  351loPI   C2B 5614  14.500   9.109   9.390 -0.2556 -0.0196 -0.3060
  351loPI   C3B 5615  14.381   9.262   9.062  0.1168  0.0579  0.0281
  351loPI   C4B 5616  14.373   9.198   8.594 -0.3475 -0.0130  0.0082
  352loPI    C1 5617   4.732   1.523   9.981 -0.0497 -0.1646 -0.0653
  352loPI    C2 5618   4.782   1.173   9.794 -0.0732 -0.2681  0.1193
  352loPI    C3 5619   5.017   1.270  10.103 -0.1240 -0.1585  0.1241
  352loPI   PO4 5620   4.682   1.717   9.776 -0.0572  0.2923 -0.0954
  352loPI   GL1 5621   4.629   1.791   9.356 -0.3464 -0.1533  0.0801
  352loPI   GL2 5622   4.643   1.594   9.289  0.2114  0.3658 -0.0219
  352loPI   C1A 5623   4.679   1.766   8.811  0.1928 -0.2826  0.0508
  352loPI   C2A 5624   4.813   1.897   8.389  0.0297  0.3107  0.1909
  352loPI   C3A 5625   4.830   1.739   7.898  0.1592 -0.1461 -0.0553
  352loPI   C4A 5626   4.955   1.463   7.636 -0.0959 -0.0046 -0.0015
  352loPI   C5A 5627   5.251   1.407   7.348  0.2723  0.3126 -0.2331
  352loPI   C6A 5628   5.373   1.707   6.910 -0.0716  0.3062 -0.0436
  352loPI   C1B 5629   4.702   1.240   8.983 -0.2721 -0.1379 -0.0637
  352loPI   C2B 5630   4.639   1.280   8.481 -0.0025  0.1476  0.2261
  352loPI   C3B 5631   4.403   1.235   8.168  0.0547 -0.1027 -0.2201
  352loPI   C4B 5632   4.384   1.448   7.776  0.0415 -0.2568 -0.1064
  353loPI    C1 5633  10.566   3.182  10.369  0.0920 -0.2026 -0.0123
  353loPI    C2 5634  10.504   3.134  10.762  0.0873 -0.2138 -0.0144
  353loPI    C3 5635  10.394   3.474  10.581  0.3537 -0.0906  0.0500
  353loPI   PO4 5636  10.537   2.945  10.203 -0.0860 -0.2366  0.1362
  353loPI   GL1 5637  10.546   2.782   9.893 -0.1192 -0.2045  0.0231
  353loPI   GL2 5638  10.826   2.644   9.842  0.0478  0.2516  0.2208
  353loPI   C1A 5639  10.398   2.893   9.462 -0.0702  0.1651 -0.1090
  353loPI   C2A 5640  10.378   2.573   9.188 -0.1728  0.1266 -0.1233
  353loPI   C3A 5641  10.323   2.520   8.787  0.0903 -0.1217  0.0418
  353loPI   C4A 5642  10.243   2.632   8.324  0.0078 -0.2210  0.1597
  353loPI   C5A 5643   9.990   2.839   8.003 -0.4145 -0.0586  0.0319
  353loPI   C6A 5644   9.984   2.812   7.568 -0.1131  0.0731 -0.0066
  353loPI   C1B 5645  10.893   2.820   9.448 -0.3176 -0.0640  0.4184
  353loPI   C2B 5646  10.783   2.921   9.076 -0.2347  0.0013  0.0496
  353loPI   C3B 5647  10.433   3.089   8.990 -0.0119 -0.4284 -0.1733
  353loPI   C4B 5648  10.155   2.958   8.695 -0.1718 -0.3539  0.1617
  354loPI    C1 5649   0.839   9.284  10.713 -0.2451  0.1598  0.1490
  354loPI    C2 5650   1.053   9.312  11.050  0.1713  0.0064 -0.0954
  354loPI    C3 5651   0.666   9.212  11.067  0.1439  0.1649  0.3458
  354loPI   PO4 5652   0.941   9.081  10.595  0.3858  0.2972  0.1818
  354loPI   GL1 5653   0.998   9.081  10.227 -0.2062  0.2722 -0.1107
  354loPI   GL2 5654   0.825   9.294  10.064 -0.0115  0.2014 -0.1102
  354loPI   C1A 5655   1.199   9.044   9.847 -0.0131 -0.2392  0.1161
  354loPI   C2A 5656   1.103   8.983   9.415  0.2697 -0.0698 -0.2657
  354loPI   C3A 5657   1.042   8.816   8.934 -0.1220 -0.4089  0.0854
  354loPI   C4A 5658   1.081   8.884   8.606 -0.1959 -0.5145  0.1109
  354loPI   C5A 5659   1.034   8.729   8.254 -0.2730 -0.3195 -0.2134
  354loPI   C6A 5660   0.946   8.510   7.928  0.2500 -0.0922 -0.0444
  354loPI   C1B 5661   0.854   9.462   9.655 -0.0128  0.1211 -0.0551
  354loPI   C2B 5662   0.889   9.403   9.257  0.3986  0.3137  0.1604
  354loPI   C3B 5663   0.831   9.297   8.830  0.2110  0.0481 -0.0097
  354loPI   C4B 5664   0.769   9.320   8.413 -0.0428  0.1408  0.1840
  355loPI    C1 5665   0.633   4.271  10.640 -0.1329  0.0357 -0.0857
  355loPI    C2 5666   0.310   4.161  10.848 -0.1065  0.2926  0.0960
  355loPI    C3 5667   0.522   4.480  10.962  0.2518  0.0882  0.0186
  355loPI   PO4 5668   0.536   4.212  10.387 -0.2004  0.0224 -0.2526
  355loPI   GL1 5669   0.664   4.388   9.993  0.3273  0.4411 -0.0344
  355loPI   GL2 5670   0.662   4.670   9.971 -0.0043 -0.1838 -0.0082
  355loPI   C1A 5671   0.469   4.235   9.626 -0.1839  0.3496 -0.3141
  355loPI   C2A 5672   0.464   4.287   9.132 -0.0769  0.0545 -0.2412
  355loPI   C3A 5673   0.354   4.353   8.659 -0.1574  0.1257  0.1918
  355loPI   C4A 5674   0.410   4.385   8.243 -0.0111 -0.0900 -0.1232
  355loPI   C5A 5675   0.467   4.277   7.842 -0.0697  0.1063 -0.0950
  355loPI   C6A 5676   0.379   3.863   7.565 -0.1764  0.3133 -0.1764
  355loPI   C1B 5677   0.705   4.738   9.559 -0.1684  0.1020 -0.0201
  355loPI   C2B 5678   0.660   4.779   9.091  0.0002  0.0632  0.2668
  355loPI   C3B 5679   0.581   4.759   8.719 -0.1711 -0.0991  0.1947
  355loPI   C4B 5680   0.556   4.868   8.375  0.1092  0.0653  0.1242
  356loPI    C1 5681   1.180   2.999  10.390  0.1906  0.3095 -0.0161
  356loPI    C2 5682   1.420   2.735  10.572  0.1492  0.2404 -0.0616
  356loPI    C3 5683   1.181   2.971  10.789 -0.0981 -0.0290 -0.0349
  356loPI   PO4 5684   1.176   2.879  10.181  0.0836  0.1686 -0.3285
  356loPI   GL1 5685   1.148   2.741   9.706 -0.0982  0.1299 -0.1532
  356loPI   GL2 5686   0.847   2.950   9.630 -0.0309 -0.2283 -0.0979
  356loPI   C1A 5687   1.378   2.668   9.249  0.1488  0.0268  0.1907
  356loPI   C2A 5688   1.367   2.552   8.824  0.1880  0.0927  0.3464
  356loPI   C3A 5689   1.321   2.524   8.426  0.1137 -0.0908 -0.1560
  356loPI   C4A 5690   1.612   2.392   8.111  0.1105  0.0005  0.1637
  356loPI   C5A 5691   1.596   1.983   7.896 -0.2212  0.0627  0.0293
  356loPI   C6A 5692   1.512   1.590   7.840 -0.0845 -0.2359  0.1169
  356loPI   C1B 5693   0.953   2.927   9.230 -0.1725 -0.0278  0.1818
  356loPI   C2B 5694   1.130   2.955   8.868  0.0629 -0.0597 -0.2186
  356loPI   C3B 5695   1.187   3.029   8.407  0.4277  0.2103  0.2921
  356loPI   C4B 5696   1.308   2.786   7.936  0.0623 -0.0943  0.0337
  357loPI    C1 5697  11.138   8.962  10.315 -0.0690  0.0791 -0.1128
  357loPI    C2 5698  11.216   9.345  10.228 -0.0194  0.0844 -0.0455
  357loPI    C3 5699  11.248   9.215  10.605  0.0278 -0.0011 -0.0787
  357loPI   PO4 5700  11.341   8.768  10.099 -0.0557 -0.0733  0.0146
  357loPI   GL1 5701  11.529   8.799   9.665  0.0735  0.2248  0.1024
  357loPI   GL2 5702  11.666   8.470   9.626 -0.1459 -0.0677  0.0322
  357loPI   C1A 5703  11.226   9.048   9.500 -0.2753  0.2443  0.1451
  357loPI   C2A 5704  10.929   9.156   9.118  0.1896 -0.0378  0.1527
  357loPI   C3A 5705  10.924   9.102   8.720 -0.1963 -0.0016  0.1955
  357loPI   C4A 5706  10.963   9.111   8.311 -0.2301 -0.1936  0.0615
  357loPI   C5A 5707  11.122   9.152   7.851 -0.4157 -0.3499  0.2113
  357loPI   C6A 5708  11.157   9.420   7.487 -0.0701 -0.0601 -0.0430
  357loPI   C1B 5709  11.539   8.675   9.183  0.2248  0.2358  0.1318
  357loPI   C2B 5710  11.340   8.814   8.786  0.0074  0.0127 -0.2717
  357loPI   C3B 5711  11.423   8.811   8.396 -0.3952 -0.0597 -0.0601
  357loPI   C4B 5712  11.450   8.900   8.026 -0.2127  0.0793 -0.1106
  358loPI    C1 5713   3.081   8.631  10.797 -0.1989 -0.1595 -0.0332
  358loPI    C2 5714   3.377   8.889  10.874 -0.3141 -0.0303 -0.0213
  358loPI    C3 5715   3.407   8.510  10.996 -0.0325 -0.0881 -0.2580
  358loPI   PO4 5716   3.017   8.810  10.586 -0.0463 -0.3136 -0.0984
  358loPI   GL1 5717   3.216   8.943  10.186 -0.1814 -0.1957  0.5471
  358loPI   GL2 5718   3.542   8.973  10.373 -0.1861  0.0228 -0.1453
  358loPI   C1A 5719   3.235   8.806   9.737 -0.2664 -0.0721 -0.2991
  358loPI   C2A 5720   3.338   8.797   9.323 -0.0544  0.3163  0.2897
  358loPI   C3A 5721   3.256   8.788   8.999  0.1787 -0.1064 -0.1785
  358loPI   C4A 5722   3.231   8.772   8.531  0.1532  0.4123  0.0690
  358loPI   C5A 5723   3.544   8.707   8.320  0.2101 -0.1292  0.3370
  358loPI   C6A 5724   3.734   8.934   7.889 -0.2006  0.0410 -0.1248
  358loPI   C1B 5725   3.751   8.798   9.999  0.1190 -0.0377 -0.2173
  358loPI   C2B 5726   3.740   8.836   9.622 -0.4126 -0.1492  0.0055
  358loPI   C3B 5727   3.794   8.760   9.197 -0.2919 -0.3459 -0.1708
  358loPI   C4B 5728   3.788   8.753   8.807  0.0649  0.2797  0.2137
  359loPI    C1 5729   2.307   7.483  10.991  0.0098 -0.0554  0.0370
  359loPI    C2 5730   2.641   7.704  10.990 -0.1171  0.1398 -0.1919
  359loPI    C3 5731   2.408   7.695  11.315  0.0419  0.1062 -0.0777
  359loPI   PO4 5732   2.211   7.516  10.737  0.0949  0.0871 -0.0779
  359loPI   GL1 5733   2.412   7.556  10.282  0.2050  0.3585  0.2279
  359loPI   GL2 5734   2.334   7.301  10.170  0.0869 -0.0564 -0.1657
  359loPI   C1A 5735   2.315   7.672   9.840 -0.0660  0.2207 -0.5542
  359loPI   C2A 5736   2.187   7.831   9.427 -0.0565  0.0680 -0.2259
  359loPI   C3A 5737   2.072   7.846   9.059  0.0322 -0.2476 -0.2856
  359loPI   C4A 5738   2.268   7.973   8.752 -0.8718  0.3345  0.1229
  359loPI   C5A 5739   2.661   7.948   8.579 -0.0246  0.1914  0.3924
  359loPI   C6A 5740   3.065   7.835   8.451 -0.1144  0.0888  0.0740
  359loPI   C1B 5741   1.965   7.020   9.990 -0.1382  0.1537  0.0902
  359loPI   C2B 5742   1.911   6.916   9.661  0.0406 -0.0284 -0.0756
  359loPI   C3B 5743   1.918   6.976   9.230  0.0717  0.2597  0.2781
  359loPI   C4B 5744   2.089   7.051   8.847 -0.0769  0.0806 -0.2667
  360loPI    C1 5745   9.819   5.040  10.213 -0.1270 -0.1597 -0.0372
  360loPI    C2 5746   9.457   5.162  10.331 -0.0409  0.0742 -0.0101
  360loPI    C3 5747   9.745   5.102  10.601 -0.0314 -0.0190 -0.0407
  360loPI   PO4 5748   9.839   5.166   9.977 -0.2021 -0.0087 -0.1639
  360loPI   GL1 5749   9.831   5.192   9.632  0.0887  0.1490  0.1172
  360loPI   GL2 5750   9.774   4.749   9.713  0.0434  0.0593 -0.0434
  360loPI   C1A 5751   9.604   5.324   9.232 -0.1774 -0.0104  0.3649
  360loPI   C2A 5752   9.348   5.497   9.037 -0.1832  0.1449  0.1251
  360loPI   C3A 5753   9.158   5.372   8.655 -0.0697 -0.0837  0.5718
  360loPI   C4A 5754   9.203   5.350   8.166  0.1426 -0.0098 -0.0954
  360loPI   C5A 5755   9.546   5.488   7.906  0.2151  0.0265 -0.1324
  360loPI   C6A 5756   9.882   5.831   7.848  0.2034  0.2709 -0.0496
  360loPI   C1B 5757   9.795   4.823   9.258  0.2291  0.0128 -0.2954
  360loPI   C2B 5758   9.886   4.797   8.849  0.0145 -0.1082 -0.0438
  360loPI   C3B 5759   9.851   4.731   8.435 -0.1712  0.1957  0.0631
  360loPI   C4B 5760   9.803   4.902   8.039 -0.0669 -0.2380 -0.0309
  361loPI    C1 5761  14.084   7.658  10.543 -0.1352  0.0871 -0.2531
  361loPI    C2 5762  14.292   7.998  10.515 -0.0078  0.0264 -0.0609
  361loPI    C3 5763  14.028   7.948  10.812  0.0706 -0.0930 -0.0101
  361loPI   PO4 5764  14.126   7.550  10.221 -0.4957  0.3004 -0.2901
  361loPI   GL1 5765  14.356   7.598   9.827 -0.1872 -0.0473 -0.0142
  361loPI   GL2 5766  14.110   7.807   9.744 -0.4862  0.1391 -0.1855
  361loPI   C1A 5767  14.340   7.449   9.295 -0.1760  0.0756 -0.3229
  361loPI   C2A 5768  14.245   7.358   8.931 -0.1295 -0.0183  0.3780
  361loPI   C3A 5769  14.293   7.253   8.475  0.3303  0.0362 -0.1312
  361loPI   C4A 5770  14.306   7.235   8.134  0.3254  0.0307 -0.0100
  361loPI   C5A 5771  13.880   7.256   7.909  0.0718  0.0349  0.0867
  361loPI   C6A 5772  13.440   7.308   7.704  0.2032 -0.0845 -0.0041
  361loPI   C1B 5773  14.192   8.047   9.377 -0.2772  0.2177 -0.2490
  361loPI   C2B 5774  14.299   8.226   9.025  0.0949 -0.2031  0.0202
  361loPI   C3B 5775  14.334   8.265   8.633  0.2077 -0.0442 -0.0776
  361loPI   C4B 5776  14.230   8.122   8.258  0.0831 -0.2391 -0.1029
  362loPI    C1 5777  17.944   6.408  10.784  0.1893 -0.0573  0.4892
  362loPI    C2 5778  17.800   6.048  10.883 -0.1152  0.0390  0.4096
  362loPI    C3 5779  17.633   6.378  11.034 -0.0254  0.1571  0.2544
  362loPI   PO4 5780  18.034   6.387  10.450  0.3063  0.1782 -0.2570
  362loPI   GL1 5781  17.976   6.437   9.989  0.0725 -0.2800 -0.1864
  362loPI   GL2 5782  17.752   6.652   9.768 -0.0182  0.0483  0.0454
  362loPI   C1A 5783  17.993   6.247   9.574  0.1051  0.1876  0.1195
  362loPI   C2A 5784  18.042   6.133   9.184  0.3220 -0.0132  0.0390
  362loPI   C3A 5785  18.060   6.164   8.802 -0.2458  0.3143  0.1842
  362loPI   C4A 5786  18.028   6.185   8.436  0.1090 -0.1837  0.1241
  362loPI   C5A 5787  18.105   6.302   8.061 -0.0618 -0.0231 -0.1290
  362loPI   C6A 5788  17.979   6.476   7.653  0.3594  0.2561  0.1067
  362loPI   C1B 5789  17.724   6.610   9.318  0.1519 -0.2315 -0.0938
  362loPI   C2B 5790  17.853   6.597   8.925 -0.1278 -0.1687  0.2433
  362loPI   C3B 5791  17.796   6.650   8.498 -0.1488  0.0003  0.1494
  362loPI   C4B 5792  17.696   6.637   8.023  0.0252 -0.3062 -0.4407
  363loPI    C1 5793   9.979  16.042   9.804 -0.0945  0.0961 -0.1451
  363loPI    C2 5794   9.749  16.254  10.053  0.1044  0.3982 -0.2129
  363loPI    C3 5795  10.003  15.981  10.198  0.0774  0.4330 -0.0996
  363loPI   PO4 5796   9.772  15.921   9.612 -0.1048 -0.1256  0.1458
  363loPI   GL1 5797   9.758  15.533   9.390  0.1526 -0.1123  0.1342
  363loPI   GL2 5798   9.935  15.705   9.156  0.1778 -0.0937  0.3126
  363loPI   C1A 5799   9.526  15.329   9.036  0.2550  0.1849  0.0632
  363loPI   C2A 5800   9.574  15.055   8.728  0.1915  0.1658  0.6441
  363loPI   C3A 5801   9.415  14.900   8.414  0.0753 -0.1468  0.2370
  363loPI   C4A 5802   9.517  14.915   8.053  0.2040 -0.3820 -0.3846
  363loPI   C5A 5803   9.721  14.989   7.686  0.2694  0.0997  0.1897
  363loPI   C6A 5804   9.566  15.162   7.262  0.0712 -0.0457  0.0604
  363loPI   C1B 5805   9.898  15.646   8.826 -0.2213 -0.1046 -0.1720
  363loPI   C2B 5806   9.628  15.489   8.504 -0.2297 -0.2463  0.2179
  363loPI   C3B 5807   9.480  15.425   8.107 -0.2867 -0.0721 -0.3327
  363loPI   C4B 5808   9.297  15.461   7.700  0.0919  0.3714  0.0686
  364loPI    C1 5809   7.514  12.115  10.131  0.0429  0.0188  0.1652
  364loPI    C2 5810   7.746  12.265  10.420  0.3315  0.0029 -0.0540
  364loPI    C3 5811   7.634  11.881  10.432  0.0021  0.1038  0.2479
  364loPI   PO4 5812   7.385  12.351  10.041  0.1216  0.5159  0.1157
  364loPI   GL1 5813   7.464  12.382   9.654 -0.4123  0.0530  0.0102
  364loPI   GL2 5814   7.440  12.590   9.414 -0.2363 -0.1833 -0.1008
  364loPI   C1A 5815   7.525  12.121   9.337  0.0101 -0.0426  0.1842
  364loPI   C2A 5816   7.492  11.895   8.887 -0.4761  0.1342 -0.0707
  364loPI   C3A 5817   7.379  11.739   8.530 -0.3162  0.1325  0.1198
  364loPI   C4A 5818   7.417  11.744   8.123  0.1606  0.3633  0.3607
  364loPI   C5A 5819   7.339  11.387   7.934  0.0813 -0.3548 -0.2160
  364loPI   C6A 5820   7.207  11.346   7.529  0.3914  0.0970 -0.1658
  364loPI   C1B 5821   7.219  12.379   9.002  0.2260 -0.0137  0.0885
  364loPI   C2B 5822   7.202  12.276   8.603  0.0090 -0.3500 -0.0784
  364loPI   C3B 5823   7.172  12.130   8.165 -0.1002  0.2241 -0.2588
  364loPI   C4B 5824   7.294  11.970   7.681 -0.0193 -0.0473  0.1910
  365loPI    C1 5825  12.092  16.654   9.991 -0.0829 -0.0193  0.0068
  365loPI    C2 5826  11.743  16.599  10.179 -0.0528 -0.0024  0.0679
  365loPI    C3 5827  12.087  16.522  10.368 -0.0253 -0.0919 -0.0177
  365loPI   PO4 5828  12.000  16.562   9.715 -0.0021  0.1350  0.0974
  365loPI   GL1 5829  11.919  16.753   9.279  0.3192 -0.0105 -0.0288
  365loPI   GL2 5830  11.535  16.711   9.275 -0.0065  0.1367 -0.1022
  365loPI   C1A 5831  12.118  16.721   8.907  0.1436  0.1379 -0.1689
  365loPI   C2A 5832  12.243  16.668   8.415 -0.0098 -0.1868 -0.1862
  365loPI   C3A 5833  12.263  16.754   8.009 -0.1029  0.0571 -0.1496
  365loPI   C4A 5834  12.269  16.570   7.612 -0.0855 -0.3188  0.0198
  365loPI   C5A 5835  12.042  16.428   7.229  0.2226 -0.1431 -0.2941
  365loPI   C6A 5836  11.729  16.286   7.050  0.1127 -0.0266 -0.2082
  365loPI   C1B 5837  11.660  16.576   8.799  0.3717 -0.1557 -0.1048
  365loPI   C2B 5838  11.638  16.612   8.389 -0.0341 -0.1512  0.2064
  365loPI   C3B 5839  11.904  16.443   8.021  0.0752  0.0367 -0.0209
  365loPI   C4B 5840  12.062  16.033   7.868  0.0786 -0.2223 -0.1001
  366loPI    C1 5841  11.838   0.240   9.832  0.1778  0.0666 -0.2757
  366loPI    C2 5842  11.708   0.606   9.927 -0.0635 -0.0663 -0.0811
  366loPI    C3 5843  11.697   0.313  10.199  0.0523 -0.2397 -0.2600
  366loPI   PO4 5844  11.818   0.203   9.616  0.1264  0.0436 -0.2094
  366loPI   GL1 5845  11.692   0.065   9.232  0.0034 -0.1868 -0.1973
  366loPI   GL2 5846  11.612  -0.188   9.053 -0.1399 -0.3671 -0.2303
  366loPI   C1A 5847  11.810   0.273   8.791 -0.1335 -0.1243  0.0926
  366loPI   C2A 5848  11.784   0.310   8.317  0.0407 -0.2827 -0.3392
  366loPI   C3A 5849  11.662   0.338   7.958  0.1890  0.0590  0.3084
  366loPI   C4A 5850  11.420   0.184   7.626 -0.3264  0.0028  0.1130
  366loPI   C5A 5851  11.386  -0.089   7.139  0.0631  0.2437  0.0877
  366loPI   C6A 5852  11.576  -0.169   6.753 -0.0470 -0.2344 -0.4008
  366loPI   C1B 5853  11.588  -0.130   8.626 -0.0878  0.3313 -0.0078
  366loPI   C2B 5854  11.559  -0.140   8.164  0.1307 -0.0325  0.1237
  366loPI   C3B 5855  11.580  -0.305   7.812 -0.1610  0.2589  0.0846
  366loPI   C4B 5856  11.642  -0.440   7.422  0.0166  0.3098 -0.0943
  367loPI    C1 5857   2.922  16.656  10.254 -0.0018 -0.1694 -0.0507
  367loPI    C2 5858   3.141  16.701  10.585 -0.1110  0.0705 -0.0085
  367loPI    C3 5859   2.783  16.523  10.604  0.0109 -0.1840 -0.0513
  367loPI   PO4 5860   3.149  16.594  10.075  0.0758 -0.0875 -0.1874
  367loPI   GL1 5861   3.251  16.651   9.676 -0.2048  0.1684 -0.0462
  367loPI   GL2 5862   3.513  16.730   9.563  0.0546  0.5796  0.0179
  367loPI   C1A 5863   3.153  16.758   9.240  0.1707 -0.0598 -0.4837
  367loPI   C2A 5864   3.290  16.807   8.834  0.1541 -0.0278 -0.0279
  367loPI   C3A 5865   3.595  16.979   8.537 -0.1021 -0.1617  0.0924
  367loPI   C4A 5866   3.539  16.841   8.108  0.2603  0.1749 -0.2754
  367loPI   C5A 5867   3.624  16.608   7.709 -0.0550  0.1031  0.1378
  367loPI   C6A 5868   3.555  16.163   7.574 -0.0137 -0.0700 -0.1687
  367loPI   C1B 5869   3.714  16.622   9.251 -0.1419  0.0118  0.0240
  367loPI   C2B 5870   3.689  16.446   8.876 -0.1813 -0.1705  0.0872
  367loPI   C3B 5871   3.639  16.381   8.457 -0.1147 -0.1824 -0.1114
  367loPI   C4B 5872   3.746  16.257   8.108  0.0706  0.0541 -0.0385
  368loPI    C1 5873   5.937   0.503  10.297  0.3455 -0.0110 -0.2195
  368loPI    C2 5874   6.093   0.140  10.360  0.1700 -0.0148  0.2252
  368loPI    C3 5875   6.154   0.433  10.626  0.0052  0.1793  0.0521
  368loPI   PO4 5876   5.918   0.574  10.128 -0.0735  0.0219 -0.1539
  368loPI   GL1 5877   6.075   0.729   9.693  0.2888  0.2069 -0.0532
  368loPI   GL2 5878   5.793   0.448   9.694  0.0712  0.2295 -0.0168
  368loPI   C1A 5879   6.162   0.945   9.263  0.2070 -0.0954  0.0412
  368loPI   C2A 5880   6.111   0.941   8.803  0.3114 -0.1773  0.4380
  368loPI   C3A 5881   6.195   0.845   8.406  0.2896 -0.1677 -0.0564
  368loPI   C4A 5882   6.251   0.826   7.925 -0.2139  0.0886  0.0846
  368loPI   C5A 5883   6.318   0.654   7.664  0.0607  0.2831  0.2765
  368loPI   C6A 5884   6.522   0.560   7.229 -0.1809  0.0802  0.0136
  368loPI   C1B 5885   5.880   0.515   9.253 -0.1799 -0.1029  0.4328
  368loPI   C2B 5886   6.098   0.419   8.999  0.2170  0.0555  0.0948
  368loPI   C3B 5887   6.155   0.438   8.542 -0.1729  0.0399  0.1092
  368loPI   C4B 5888   6.172   0.309   8.097 -0.1327  0.3451 -0.3880
  369loPI    C1 5889   8.909  14.827   9.869  0.0563 -0.0951 -0.0478
  369loPI    C2 5890   9.117  14.686  10.181 -0.0207 -0.4506 -0.1521
  369loPI    C3 5891   8.723  14.748  10.215  0.0889  0.2291  0.0475
  369loPI   PO4 5892   8.964  14.955   9.770  0.1158 -0.0367  0.1653
  369loPI   GL1 5893   9.262  14.835   9.463  0.0818  0.1056  0.0657
  369loPI   GL2 5894   9.543  14.944   9.329  0.1646  0.0539  0.1246
  369loPI   C1A 5895   9.245  14.524   9.219 -0.1758  0.0742  0.1693
  369loPI   C2A 5896   9.030  14.150   8.974  0.4497 -0.0012  0.0153
  369loPI   C3A 5897   8.654  14.222   8.678  0.3032  0.0453 -0.3229
  369loPI   C4A 5898   8.655  14.171   8.240 -0.0386  0.2371 -0.2093
  369loPI   C5A 5899   8.486  14.188   7.815  0.2107 -0.1588  0.0993
  369loPI   C6A 5900   8.365  13.990   7.469  0.0256  0.2976 -0.2821
  369loPI   C1B 5901   9.662  14.656   9.005  0.5165  0.1709  0.0545
  369loPI   C2B 5902   9.827  14.522   8.549 -0.0478  0.0309  0.2193
  369loPI   C3B 5903  10.015  14.617   8.129 -0.2187  0.0209 -0.3554
  369loPI   C4B 5904   9.908  14.449   7.614 -0.1813  0.2523  0.2850
  370loPI    C1 5905  13.108  13.325  10.012  0.0218  0.0417  0.0594
  370loPI    C2 5906  13.351  13.600  10.170 -0.0013  0.0101  0.1504
  370loPI    C3 5907  13.238  13.284  10.388  0.2176 -0.1977 -0.0314
  370loPI   PO4 5908  13.265  13.378   9.684 -0.0504 -0.0700 -0.0579
  370loPI   GL1 5909  13.471  13.090   9.393  0.0519  0.0483 -0.0633
  370loPI   GL2 5910  13.392  12.788   9.429 -0.0917  0.0646  0.3985
  370loPI   C1A 5911  13.090  13.245   9.120 -0.2251 -0.2008 -0.0234
  370loPI   C2A 5912  12.772  13.058   8.921 -0.1750  0.0602  0.2593
  370loPI   C3A 5913  12.782  12.918   8.445 -0.2207 -0.1913  0.0756
  370loPI   C4A 5914  12.619  12.822   8.013 -0.0427 -0.1463  0.0306
  370loPI   C5A 5915  12.602  12.454   7.694  0.0739  0.0186 -0.0643
  370loPI   C6A 5916  12.396  12.100   7.444 -0.0152 -0.2196 -0.0850
  370loPI   C1B 5917  13.733  12.737   9.032 -0.0134 -0.1639 -0.1822
  370loPI   C2B 5918  13.890  13.015   8.750  0.2113  0.1178  0.0401
  370loPI   C3B 5919  13.720  13.235   8.326  0.0645  0.1913  0.3944
  370loPI   C4B 5920  13.489  13.613   8.168  0.3239  0.0050  0.0292
  371loPI    C1 5921   6.873  17.242  10.132  0.0610 -0.0516 -0.2491
  371loPI    C2 5922   7.123  17.335  10.430 -0.1964  0.1808 -0.1004
  371loPI    C3 5923   6.908  16.998  10.447 -0.1654  0.1633 -0.0527
  371loPI   PO4 5924   6.989  17.246   9.914 -0.2543  0.0613  0.3247
  371loPI   GL1 5925   7.146  17.169   9.540  0.1965 -0.1374 -0.0134
  371loPI   GL2 5926   6.855  16.872   9.551  0.1041 -0.0091 -0.3484
  371loPI   C1A 5927   6.998  17.389   9.100  0.2047 -0.1373  0.3734
  371loPI   C2A 5928   6.747  17.396   8.669  0.0425 -0.0472  0.2244
  371loPI   C3A 5929   6.890  17.572   8.320 -0.0310  0.0336  0.1263
  371loPI   C4A 5930   6.727  17.787   8.116  0.2200 -0.2024  0.0919
  371loPI   C5A 5931   6.525  18.042   7.774 -0.3784  0.1114 -0.0788
  371loPI   C6A 5932   6.312  18.423   7.808  0.1382  0.2384 -0.1753
  371loPI   C1B 5933   6.938  16.875   9.162 -0.1032  0.0147  0.0067
  371loPI   C2B 5934   6.859  16.755   8.752  0.3309 -0.1295  0.0136
  371loPI   C3B 5935   7.014  16.994   8.469  0.1792 -0.2151 -0.0550
  371loPI   C4B 5936   7.110  16.965   8.079  0.0487 -0.1148  0.0194
  372loPI    C1 5937   7.439   6.807  10.807  0.0835 -0.0728 -0.2151
  372loPI    C2 5938   7.278   6.465  10.675 -0.2722  0.0050  0.0043
  372loPI    C3 5939   7.202   6.809  10.485  0.0677 -0.0291 -0.2032
  372loPI   PO4 5940   7.668   6.713  10.824 -0.2259  0.1050 -0.0277
  372loPI   GL1 5941   7.735   6.651  10.341 -0.1034  0.0448  0.2108
  372loPI   GL2 5942   7.746   6.943  10.365  0.2397  0.0537 -0.0908
  372loPI   C1A 5943   7.809   6.675   9.894  0.0128  0.0209  0.4914
  372loPI   C2A 5944   7.930   6.714   9.479 -0.0573  0.5492  0.0223
  372loPI   C3A 5945   7.972   6.791   9.030  0.0742  0.2262  0.1370
  372loPI   C4A 5946   7.789   6.868   8.544 -0.3784 -0.0957 -0.0053
  372loPI   C5A 5947   7.620   7.076   8.205 -0.0007  0.0908  0.1575
  372loPI   C6A 5948   7.454   7.384   7.974 -0.1232  0.2356  0.2552
  372loPI   C1B 5949   7.574   7.162   9.956  0.0359  0.3760  0.2085
  372loPI   C2B 5950   7.673   7.193   9.472 -0.0124  0.2352  0.1994
  372loPI   C3B 5951   7.662   7.246   9.098 -0.0147 -0.1406 -0.1561
  372loPI   C4B 5952   7.629   7.346   8.613 -0.0729 -0.0682  0.3101
  373loPI    C1 5953  14.356  11.664  10.229 -0.2002 -0.1603  0.0768
  373loPI    C2 5954  14.695  11.605  10.433 -0.1876 -0.3643 -0.0006
  373loPI    C3 5955  14.347  11.630  10.628 -0.1222 -0.0793  0.0861
  373loPI   PO4 5956  14.369  11.415  10.085 -0.1505 -0.0601 -0.0364
  373loPI   GL1 5957  14.499  11.255   9.678  0.4061  0.1080 -0.1995
  373loPI   GL2 5958  14.781  11.291   9.579 -0.1787  0.2905  0.0174
  373loPI   C1A 5959  14.392  10.994   9.427  0.2087  0.1453  0.1756
  373loPI   C2A 5960  14.340  10.856   8.902 -0.2114  0.1308 -0.0889
  373loPI   C3A 5961  14.513  10.706   8.602  0.1772  0.1161  0.1885
  373loPI   C4A 5962  14.775  10.406   8.241 -0.1111  0.2250  0.1205
  373loPI   C5A 5963  14.766  10.522   7.736 -0.1007 -0.0652  0.0931
  373loPI   C6A 5964  14.697  10.880   7.461  0.1895  0.1381  0.0101
  373loPI   C1B 5965  14.667  11.385   9.194 -0.1794 -0.2350 -0.2835
  373loPI   C2B 5966  14.572  11.358   8.769  0.0880 -0.0744  0.3550
  373loPI   C3B 5967  14.560  11.179   8.387 -0.5272  0.1794 -0.0507
  373loPI   C4B 5968  14.470  10.795   8.126 -0.0624 -0.1029 -0.0764
  374loPI    C1 5969  15.426   4.836  10.181 -0.4633 -0.1483 -0.0243
  374loPI    C2 5970  15.389   5.041  10.523 -0.0363  0.0107 -0.0676
  374loPI    C3 5971  15.320   4.647  10.518  0.2403 -0.0475  0.2718
  374loPI   PO4 5972  15.339   5.028   9.922 -0.0681  0.1447  0.1718
  374loPI   GL1 5973  15.650   4.980   9.541  0.0906 -0.1577  0.0172
  374loPI   GL2 5974  15.453   4.789   9.459  0.2645 -0.0610 -0.1256
  374loPI   C1A 5975  15.755   4.947   9.063  0.1367 -0.3340  0.0476
  374loPI   C2A 5976  15.560   5.014   8.678 -0.1772  0.0708  0.0377
  374loPI   C3A 5977  15.396   4.919   8.279 -0.1608 -0.3348 -0.2857
  374loPI   C4A 5978  15.346   5.154   7.795 -0.0501 -0.1060  0.3861
  374loPI   C5A 5979  15.522   5.394   7.361  0.0559 -0.0216  0.0147
  374loPI   C6A 5980  15.383   5.476   6.913  0.0346 -0.1454  0.2038
  374loPI   C1B 5981  15.141   5.052   9.302 -0.1780  0.0070 -0.1585
  374loPI   C2B 5982  15.256   5.344   8.997  0.2964  0.0944 -0.0017
  374loPI   C3B 5983  15.105   5.421   8.572 -0.1515  0.2639  0.0344
  374loPI   C4B 5984  15.154   5.432   8.114 -0.2334 -0.0419  0.0379
  375loPI    C1 5985   1.203   6.664  10.905 -0.0608  0.2236  0.0279
  375loPI    C2 5986   1.210   7.052  10.809 -0.3766  0.2474  0.0922
  375loPI    C3 5987   1.214   6.941  11.193 -0.0206  0.1772  0.0711
  375loPI   PO4 5988   1.075   6.550  10.752 -0.0007  0.0097 -0.3479
  375loPI   GL1 5989   1.115   6.712  10.378  0.0318 -0.1730  0.2346
  375loPI   GL2 5990   1.097   6.509  10.213  0.1414  0.3033 -0.1709
  375loPI   C1A 5991   1.352   7.039  10.199 -0.1312 -0.0367  0.0461
  375loPI   C2A 5992   1.335   6.960   9.767  0.0596  0.1491  0.1484
  375loPI   C3A 5993   1.439   6.931   9.288 -0.0116  0.2381 -0.0361
  375loPI   C4A 5994   1.478   6.999   8.865  0.0400 -0.2925 -0.0821
  375loPI   C5A 5995   1.726   7.167   8.456 -0.0305 -0.3692 -0.1156
  375loPI   C6A 5996   2.120   7.203   8.146 -0.2505  0.2584 -0.0443
  375loPI   C1B 5997   1.147   6.533   9.862  0.1369 -0.0523 -0.0639
  375loPI   C2B 5998   1.079   6.659   9.418 -0.0927  0.2471  0.1627
  375loPI   C3B 5999   1.153   6.608   9.027 -0.2950  0.0227  0.2044
  375loPI   C4B 6000   1.179   6.649   8.590  0.1344  0.1886 -0.1214
  376loPI    C1 6001   4.628   8.845  10.792  0.0935 -0.0611 -0.1707
  376loPI    C2 6002   4.856   8.583  10.990  0.1558  0.1291  0.0117
  376loPI    C3 6003   4.994   8.951  10.914  0.1258  0.0643 -0.3726
  376loPI   PO4 6004   4.518   8.738  10.593  0.0994 -0.1722  0.0853
  376loPI   GL1 6005   4.264   8.864  10.241 -0.1257 -0.2121 -0.3544
  376loPI   GL2 6006   4.567   9.065  10.151  0.2236 -0.0764 -0.0933
  376loPI   C1A 6007   4.268   8.823   9.791  0.1061 -0.1279  0.2146
  376loPI   C2A 6008   4.339   8.795   9.318  0.1526  0.1024  0.0335
  376loPI   C3A 6009   4.308   8.732   8.885 -0.2122 -0.0239  0.0266
  376loPI   C4A 6010   4.277   8.720   8.392 -0.2038 -0.1632 -0.0768
  376loPI   C5A 6011   4.083   8.653   8.057  0.2750  0.0403  0.0126
  376loPI   C6A 6012   4.105   8.384   7.631 -0.0218  0.1515 -0.1066
  376loPI   C1B 6013   4.623   9.291   9.822  0.1650  0.1665  0.0447
  376loPI   C2B 6014   4.676   9.254   9.393  0.0320  0.0473 -0.0224
  376loPI   C3B 6015   4.620   9.154   8.980  0.0104  0.0367 -0.0423
  376loPI   C4B 6016   4.436   9.164   8.590 -0.2221 -0.0790  0.1778
  377loPI    C1 6017  13.536   9.183  10.451 -0.0973 -0.2150  0.0025
  377loPI    C2 6018  13.864   9.071  10.650 -0.1751  0.3279  0.4639
  377loPI    C3 6019  13.534   8.845  10.664  0.1145 -0.1317  0.1398
  377loPI   PO4 6020  13.605   9.250  10.045 -0.0724 -0.0129 -0.2388
  377loPI   GL1 6021  13.411   9.405   9.716 -0.0977  0.0375 -0.1369
  377loPI   GL2 6022  13.455   9.753   9.670  0.0465  0.1798  0.1381
  377loPI   C1A 6023  13.224   9.470   9.313  0.2894  0.2542 -0.0524
  377loPI   C2A 6024  13.166   9.428   8.859 -0.0480  0.3109  0.2702
  377loPI   C3A 6025  13.167   9.360   8.378 -0.1779  0.1654  0.0202
  377loPI   C4A 6026  13.419   9.358   8.018  0.2255  0.0078 -0.3401
  377loPI   C5A 6027  13.478   8.967   7.823  0.0058 -0.0708  0.0025
  377loPI   C6A 6028  13.333   8.859   7.397 -0.0995 -0.0697  0.3330
  377loPI   C1B 6029  13.609   9.837   9.303 -0.2824 -0.0769  0.0288
  377loPI   C2B 6030  13.616   9.588   8.973 -0.0905  0.3533  0.1056
  377loPI   C3B 6031  13.941   9.188   8.814 -0.1079 -0.0397 -0.1460
  377loPI   C4B 6032  14.090   8.807   8.682  0.0028 -0.0655  0.0725
  378loPI    C1 6033   9.405   9.916  10.326  0.0259  0.1863  0.0088
  378loPI    C2 6034   9.738   9.706  10.396 -0.0367  0.0090 -0.2089
  378loPI    C3 6035   9.456   9.734  10.678  0.0932  0.0313 -0.0798
  378loPI   PO4 6036   9.356   9.818  10.050  0.2651  0.0036  0.2528
  378loPI   GL1 6037   9.468  10.009   9.688  0.0219 -0.0629  0.0331
  378loPI   GL2 6038   9.146   9.938   9.500 -0.1521 -0.1428  0.1665
  378loPI   C1A 6039   9.539   9.960   9.195  0.1544 -0.2615  0.3171
  378loPI   C2A 6040   9.474   9.921   8.778 -0.2938 -0.2382 -0.0036
  378loPI   C3A 6041   9.338   9.795   8.373  0.2596 -0.1340  0.1717
  378loPI   C4A 6042   9.462   9.502   8.149  0.0151  0.0393 -0.0846
  378loPI   C5A 6043   9.348   9.351   7.779  0.0349 -0.0725  0.2472
  378loPI   C6A 6044   9.366   9.250   7.394  0.0424 -0.0579 -0.4053
  378loPI   C1B 6045   9.023   9.924   9.023  0.3713  0.0557  0.3014
  378loPI   C2B 6046   8.848   9.931   8.633  0.1383  0.2053  0.3298
  378loPI   C3B 6047   8.862   9.972   8.112  0.1610 -0.0601  0.0194
  378loPI   C4B 6048   9.111   9.826   7.859 -0.3038 -0.0841 -0.1914
  379loPI    C1 6049   9.059  18.195  10.315 -0.2781 -0.0934  0.2068
  379loPI    C2 6050   8.944  17.942  10.027  0.0578 -0.2299  0.1877
  379loPI    C3 6051   8.967  17.816  10.406 -0.2491 -0.0887  0.2565
  379loPI   PO4 6052   9.002  18.398  10.183 -0.0304  0.0770  0.2243
  379loPI   GL1 6053   9.074  18.304   9.705  0.0766  0.0325  0.0146
  379loPI   GL2 6054   8.843  18.158   9.464  0.2052 -0.0858  0.2144
  379loPI   C1A 6055   9.149  18.496   9.227  0.0577 -0.0010 -0.0734
  379loPI   C2A 6056   9.119  18.390   8.771  0.3902  0.1807 -0.2359
  379loPI   C3A 6057   9.070  18.375   8.360 -0.0825 -0.0129  0.2165
  379loPI   C4A 6058   8.817  18.364   8.092 -0.2092  0.1338 -0.2179
  379loPI   C5A 6059   8.921  18.365   7.724  0.1519  0.1059 -0.0162
  379loPI   C6A 6060   8.724  18.283   7.416 -0.1059 -0.0488  0.5555
  379loPI   C1B 6061   8.867  17.951   9.046 -0.0495  0.0089  0.0746
  379loPI   C2B 6062   8.867  17.959   8.605 -0.0870 -0.4773  0.0358
  379loPI   C3B 6063   8.937  17.868   8.084 -0.0556 -0.0343  0.2058
  379loPI   C4B 6064   8.963  17.837   7.614  0.0589 -0.0671 -0.1832
  380loPI    C1 6065   1.108  16.894  10.039  0.2774 -0.1876 -0.0393
  380loPI    C2 6066   0.791  16.702  10.189  0.1500 -0.0011 -0.0661
  380loPI    C3 6067   0.884  17.068  10.322  0.2250  0.0338 -0.2137
  380loPI   PO4 6068   1.376  16.639   9.990 -0.0363  0.3316  0.1927
  380loPI   GL1 6069   1.425  16.586   9.593 -0.1472  0.1273 -0.1320
  380loPI   GL2 6070   1.305  16.350   9.500  0.1779 -0.0329 -0.2344
  380loPI   C1A 6071   1.408  16.788   9.270  0.3966  0.2431 -0.1504
  380loPI   C2A 6072   1.472  17.127   9.032 -0.2166 -0.4053  0.1049
  380loPI   C3A 6073   1.710  17.116   8.730 -0.1930  0.1152  0.3444
  380loPI   C4A 6074   1.735  17.066   8.301  0.2799  0.0041  0.2846
  380loPI   C5A 6075   2.075  17.005   8.058 -0.2877  0.1130  0.0609
  380loPI   C6A 6076   2.442  16.941   7.788  0.0261 -0.2432 -0.1878
  380loPI   C1B 6077   1.409  16.276   9.063 -0.1800 -0.4461 -0.0151
  380loPI   C2B 6078   1.338  16.243   8.693 -0.2997  0.2828  0.0504
  380loPI   C3B 6079   1.166  16.243   8.353  0.5059 -0.3205  0.0187
  380loPI   C4B 6080   0.844  16.337   7.916  0.1476 -0.0712  0.4361
  381loPI    C1 6081  14.830  13.775   9.874 -0.0026  0.1659  0.0510
  381loPI    C2 6082  14.713  13.416  10.006  0.0293  0.0672 -0.1840
  381loPI    C3 6083  15.004  13.614  10.196  0.2030 -0.1557 -0.2141
  381loPI   PO4 6084  14.884  13.729   9.640 -0.1629 -0.3032 -0.0008
  381loPI   GL1 6085  14.732  13.872   9.163  0.4363  0.0522 -0.2140
  381loPI   GL2 6086  15.046  13.832   9.086 -0.2847 -0.2055 -0.1284
  381loPI   C1A 6087  14.453  13.891   8.814 -0.1018 -0.1891  0.3701
  381loPI   C2A 6088  14.412  13.746   8.405  0.2410 -0.1979 -0.1282
  381loPI   C3A 6089  14.550  13.519   7.977  0.0497  0.0993 -0.1059
  381loPI   C4A 6090  14.465  13.211   7.670 -0.0808 -0.0947  0.0550
  381loPI   C5A 6091  14.666  13.086   7.282  0.1232  0.1084  0.0065
  381loPI   C6A 6092  14.585  13.073   6.782  0.0158  0.0115  0.1011
  381loPI   C1B 6093  15.262  13.524   8.884  0.1616 -0.2176  0.0348
  381loPI   C2B 6094  15.382  13.420   8.482  0.0214 -0.0942 -0.5320
  381loPI   C3B 6095  15.447  13.527   8.193  0.2058 -0.0644  0.0348
  381loPI   C4B 6096  15.438  13.668   7.757  0.1901 -0.2340 -0.2093
  382loPI    C1 6097   9.259   0.090   9.968 -0.0156 -0.0701  0.0821
  382loPI    C2 6098   9.001   0.262  10.220  0.0189  0.0213  0.0554
  382loPI    C3 6099   8.897   0.201   9.839  0.0119 -0.0038  0.0614
  382loPI   PO4 6100   9.490   0.187   9.982 -0.1482  0.2655 -0.0397
  382loPI   GL1 6101   9.364   0.329   9.564 -0.1108 -0.1243 -0.0603
  382loPI   GL2 6102   9.333   0.723   9.547 -0.1582 -0.1124  0.0224
  382loPI   C1A 6103   9.271   0.296   9.095 -0.3570 -0.4291 -0.1667
  382loPI   C2A 6104   9.227   0.515   8.710  0.2118  0.0061  0.2504
  382loPI   C3A 6105   9.271   0.565   8.325  0.1883 -0.1703 -0.1219
  382loPI   C4A 6106   9.203   0.583   7.926 -0.1793 -0.0600  0.2545
  382loPI   C5A 6107   9.287   0.779   7.512 -0.2773  0.0090 -0.1593
  382loPI   C6A 6108   9.204   1.167   7.247 -0.1656 -0.2517  0.1070
  382loPI   C1B 6109   9.419   0.809   9.162 -0.1113  0.2015  0.1902
  382loPI   C2B 6110   9.494   0.894   8.615  0.0924 -0.0318 -0.3563
  382loPI   C3B 6111   9.438   1.022   8.193  0.1773 -0.1973  0.2340
  382loPI   C4B 6112   9.419   1.222   7.723 -0.0641  0.2066 -0.0345
  383loPI    C1 6113  11.121  10.119   9.994  0.0306  0.1424 -0.2256
  383loPI    C2 6114  11.176  10.305  10.344  0.1311 -0.1722 -0.0708
  383loPI    C3 6115  11.331  10.459  10.009  0.3169 -0.0418  0.0731
  383loPI   PO4 6116  11.029   9.755  10.062 -0.1914  0.0063  0.1190
  383loPI   GL1 6117  11.179   9.602   9.668  0.0813 -0.1664  0.0679
  383loPI   GL2 6118  11.353   9.854   9.443 -0.0437 -0.1886 -0.3268
  383loPI   C1A 6119  10.919   9.601   9.267 -0.4220 -0.0722 -0.0614
  383loPI   C2A 6120  10.818   9.590   8.863  0.0155 -0.3211  0.4288
  383loPI   C3A 6121  10.794   9.603   8.486  0.1949 -0.0174 -0.0767
  383loPI   C4A 6122  10.894   9.512   8.087  0.1719 -0.1762 -0.3433
  383loPI   C5A 6123  10.590   9.473   7.747  0.0561 -0.1814 -0.1074
  383loPI   C6A 6124  10.309   9.578   7.466  0.0571 -0.2802 -0.0709
  383loPI   C1B 6125  11.285   9.888   9.111  0.0597  0.0591  0.1256
  383loPI   C2B 6126  11.325   9.973   8.714 -0.2195  0.3541 -0.1532
  383loPI   C3B 6127  11.384   9.932   8.305  0.0817  0.0141 -0.1015
  383loPI   C4B 6128  11.571  10.104   7.918 -0.1942  0.1592  0.4091
  384loPI    C1 6129   3.956   0.638  10.018  0.1946 -0.0069 -0.0709
  384loPI    C2 6130   4.108   0.694  10.384  0.1057  0.1009 -0.0500
  384loPI    C3 6131   3.757   0.859  10.285 -0.0344 -0.2044 -0.0747
  384loPI   PO4 6132   3.970   0.355   9.962 -0.2197  0.2706 -0.0160
  384loPI   GL1 6133   4.049   0.102   9.663  0.1170  0.4115 -0.0889
  384loPI   GL2 6134   4.099  -0.267   9.607 -0.2472  0.0934  0.0675
  384loPI   C1A 6135   3.934   0.429   9.269 -0.4687  0.1347  0.2673
  384loPI   C2A 6136   4.206   0.780   9.006  0.2459  0.2711 -0.3885
  384loPI   C3A 6137   4.379   0.826   8.545 -0.0171  0.3031  0.1736
  384loPI   C4A 6138   4.335   0.697   8.192  0.1041 -0.1218  0.0858
  384loPI   C5A 6139   4.393   0.816   7.805  0.1666 -0.0640 -0.0230
  384loPI   C6A 6140   4.548   1.111   7.490  0.2408 -0.1960 -0.1547
  384loPI   C1B 6141   4.072  -0.092   9.086 -0.0705  0.1995 -0.0988
  384loPI   C2B 6142   4.111  -0.140   8.673 -0.2501 -0.0225 -0.2546
  384loPI   C3B 6143   4.265  -0.089   8.153  0.2326 -0.3157  0.1401
  384loPI   C4B 6144   4.294   0.317   7.838  0.1752  0.0108  0.3217
  385loPI    C1 6145   7.796  18.008  10.282 -0.1214 -0.1425 -0.0983
  385loPI    C2 6146   7.932  17.645  10.184  0.0166 -0.1314  0.0469
  385loPI    C3 6147   8.035  17.808  10.534 -0.0689  0.0359 -0.0051
  385loPI   PO4 6148   7.540  18.020  10.153 -0.2805  0.2606  0.0219
  385loPI   GL1 6149   7.497  18.078   9.595 -0.1152 -0.1852 -0.0690
  385loPI   GL2 6150   7.506  18.422   9.519 -0.1181  0.3479 -0.0211
  385loPI   C1A 6151   7.553  18.137   9.100  0.2159 -0.1894  0.1765
  385loPI   C2A 6152   7.724  17.929   8.692  0.0343 -0.0434  0.1227
  385loPI   C3A 6153   7.726  17.812   8.284  0.1718  0.0983  0.0971
  385loPI   C4A 6154   7.748  17.651   7.852 -0.0916 -0.3201 -0.2421
  385loPI   C5A 6155   7.498  17.378   7.643 -0.2353  0.0267 -0.1258
  385loPI   C6A 6156   7.293  16.943   7.593 -0.0789 -0.0995  0.2165
  385loPI   C1B 6157   7.567  18.637   9.093  0.3539  0.0073  0.2721
  385loPI   C2B 6158   7.539  18.908   8.729 -0.0482  0.0121 -0.3096
  385loPI   C3B 6159   7.528  18.952   8.293 -0.0231 -0.0175 -0.1375
  385loPI   C4B 6160   7.601  19.049   7.886 -0.0644 -0.0892 -0.2571
  386loPI    C1 6161   5.268   7.618  10.723 -0.2337 -0.0224  0.0914
  386loPI    C2 6162   5.433   7.671  11.084  0.0500 -0.0391 -0.0335
  386loPI    C3 6163   5.362   7.302  10.949  0.0377 -0.0355 -0.0368
  386loPI   PO4 6164   5.459   7.650  10.492  0.1677 -0.0312 -0.4898
  386loPI   GL1 6165   5.249   7.542  10.096 -0.0190 -0.0026 -0.1269
  386loPI   GL2 6166   5.511   7.378  10.086  0.0123  0.3258 -0.0705
  386loPI   C1A 6167   5.342   7.782   9.774  0.2276  0.0806 -0.4322
  386loPI   C2A 6168   5.305   7.753   9.368 -0.1809  0.0494  0.1994
  386loPI   C3A 6169   5.264   7.929   8.919  0.1159  0.1980  0.1795
  386loPI   C4A 6170   5.191   7.783   8.503  0.1264  0.0182  0.1252
  386loPI   C5A 6171   5.447   7.661   8.007 -0.3185 -0.1991 -0.0757
  386loPI   C6A 6172   5.597   7.773   7.691 -0.3013  0.3902 -0.1718
  386loPI   C1B 6173   5.659   7.344   9.719  0.2904 -0.0418 -0.1376
  386loPI   C2B 6174   5.571   7.357   9.200 -0.1402 -0.0580  0.1801
  386loPI   C3B 6175   5.465   7.400   8.802  0.0996 -0.0524  0.0016
  386loPI   C4B 6176   5.493   7.286   8.343  0.2042 -0.3300 -0.2874
  387loPI    C1 6177  11.410   4.621  10.121  0.1707 -0.1434  0.0778
  387loPI    C2 6178  11.553   4.838  10.424  0.1201 -0.1642  0.1168
  387loPI    C3 6179  11.798   4.719  10.131  0.1162  0.0843  0.0105
  387loPI   PO4 6180  11.154   4.725  10.093  0.1932  0.2457  0.1033
  387loPI   GL1 6181  11.031   4.751   9.687 -0.0368  0.1258  0.2158
  387loPI   GL2 6182  10.761   4.972   9.645 -0.0683 -0.2468 -0.2099
  387loPI   C1A 6183  10.895   4.738   9.202 -0.1634 -0.1466 -0.2043
  387loPI   C2A 6184  10.819   4.985   8.854 -0.1159  0.0173 -0.1063
  387loPI   C3A 6185  10.739   5.128   8.339  0.0018  0.0840 -0.0627
  387loPI   C4A 6186  10.703   5.147   7.848 -0.0948  0.0071  0.1853
  387loPI   C5A 6187  10.739   4.747   7.632 -0.2176 -0.0508  0.0477
  387loPI   C6A 6188  10.500   4.588   7.425 -0.0402  0.0817  0.0581
  387loPI   C1B 6189  10.673   5.227   9.330 -0.4830  0.0355 -0.1379
  387loPI   C2B 6190  10.541   5.520   9.068 -0.2760  0.0304  0.0876
  387loPI   C3B 6191  10.300   5.800   8.783 -0.1262 -0.2542  0.1381
  387loPI   C4B 6192  10.071   5.769   8.387  0.0706 -0.3688  0.1323
  388loPI    C1 6193   3.826  10.096  10.773  0.0499  0.1675  0.1435
  388loPI    C2 6194   3.536  10.177  11.036  0.0153 -0.0670  0.1796
  388loPI    C3 6195   3.914  10.281  11.117 -0.0934  0.4956  0.0076
  388loPI   PO4 6196   3.681  10.149  10.541 -0.2439 -0.0426  0.0005
  388loPI   GL1 6197   3.656  10.112  10.140 -0.3047 -0.0195  0.0166
  388loPI   GL2 6198   3.875   9.889  10.134 -0.0313 -0.1239 -0.1174
  388loPI   C1A 6199   3.579  10.229   9.699 -0.0754  0.4006 -0.1285
  388loPI   C2A 6200   3.604  10.172   9.243 -0.0520 -0.1043 -0.1161
  388loPI   C3A 6201   3.529  10.003   8.875 -0.0123  0.0939  0.0419
  388loPI   C4A 6202   3.559  10.181   8.465 -0.1685 -0.2119 -0.1263
  388loPI   C5A 6203   3.815  10.202   8.107  0.0020 -0.0443  0.1904
  388loPI   C6A 6204   4.020  10.076   7.721 -0.0093 -0.2435 -0.0153
  388loPI   C1B 6205   3.813   9.697   9.728  0.4571  0.0221  0.2421
  388loPI   C2B 6206   3.802   9.683   9.253  0.2804  0.0352  0.2037
  388loPI   C3B 6207   3.826   9.616   8.822  0.0188 -0.2717  0.1674
  388loPI   C4B 6208   3.708   9.520   8.449 -0.0462  0.1185  0.1597
  389loPI    C1 6209   1.985   1.998   9.762  0.0478 -0.0696 -0.0281
  389loPI    C2 6210   2.298   2.217   9.882  0.1912 -0.3861  0.1895
  389loPI    C3 6211   1.996   2.143  10.134 -0.0274 -0.1462  0.0045
  389loPI   PO4 6212   2.136   1.785   9.666  0.3147  0.0348 -0.1467
  389loPI   GL1 6213   2.246   1.542   9.359  0.0152 -0.1719  0.0478
  389loPI   GL2 6214   2.419   1.325   9.466  0.0990 -0.0892  0.2012
  389loPI   C1A 6215   2.164   1.498   8.988 -0.1029 -0.1736  0.2339
  389loPI   C2A 6216   2.167   1.334   8.665  0.0370  0.0069  0.1609
  389loPI   C3A 6217   2.365   1.402   8.415 -0.1305  0.0246 -0.3468
  389loPI   C4A 6218   2.339   1.635   8.036  0.4079  0.1374 -0.2886
  389loPI   C5A 6219   2.171   1.729   7.699  0.0105 -0.0487 -0.0079
  389loPI   C6A 6220   1.861   1.493   7.423  0.4048 -0.2883 -0.1079
  389loPI   C1B 6221   2.528   1.091   9.088  0.2019  0.0397  0.2106
  389loPI   C2B 6222   2.514   1.009   8.723  0.0567 -0.1807 -0.0102
  389loPI   C3B 6223   2.751   1.079   8.337 -0.1187 -0.0452 -0.0256
  389loPI   C4B 6224   2.906   1.322   8.000  0.0734  0.2170  0.4068
  390loPI    C1 6225  12.035   9.798  10.005 -0.3540 -0.1968  0.0048
  390loPI    C2 6226  12.141   9.495  10.244 -0.0214 -0.0688  0.0238
  390loPI    C3 6227  12.054   9.853  10.401 -0.0523 -0.0541 -0.0265
  390loPI   PO4 6228  11.920   9.687   9.746  0.0700  0.2127  0.0051
  390loPI   GL1 6229  11.913   9.634   9.283 -0.0797 -0.0205 -0.1002
  390loPI   GL2 6230  12.276   9.552   9.366 -0.0783  0.2167  0.1955
  390loPI   C1A 6231  11.814   9.779   8.847 -0.0145 -0.3752  0.3515
  390loPI   C2A 6232  11.768   9.785   8.533 -0.0479 -0.0798  0.1061
  390loPI   C3A 6233  11.843   9.689   8.169 -0.2198  0.0286  0.0502
  390loPI   C4A 6234  11.967   9.677   7.783 -0.2081  0.6495 -0.1141
  390loPI   C5A 6235  12.011   9.862   7.355 -0.1108  0.2215 -0.1638
  390loPI   C6A 6236  12.170   9.625   7.078 -0.1918  0.1922  0.4947
  390loPI   C1B 6237  12.343   9.577   8.917  0.1435 -0.1263  0.1054
  390loPI   C2B 6238  12.251   9.558   8.500  0.1951 -0.2655 -0.0353
  390loPI   C3B 6239  12.300   9.433   8.103 -0.2860 -0.2131 -0.0456
  390loPI   C4B 6240  12.180   9.024   7.731  0.0100  0.2563 -0.1728
  391loPI    C1 6241  15.907   8.436  10.343 -0.1191  0.1289  0.0708
  391loPI    C2 6242  15.776   8.109  10.533 -0.1748  0.1909  0.1393
  391loPI    C3 6243  15.835   8.448  10.737  0.2994  0.1066  0.1527
  391loPI   PO4 6244  15.789   8.433  10.142 -0.2009  0.2013  0.2788
  391loPI   GL1 6245  15.986   8.458   9.799  0.2042 -0.1632  0.3674
  391loPI   GL2 6246  16.280   8.746   9.746  0.1518 -0.0867 -0.0861
  391loPI   C1A 6247  15.885   8.494   9.319  0.2325 -0.1514  0.2804
  391loPI   C2A 6248  15.906   8.297   8.885  0.2452 -0.0290 -0.0808
  391loPI   C3A 6249  15.916   8.191   8.397  0.2318 -0.0410 -0.0657
  391loPI   C4A 6250  16.067   8.249   8.039 -0.1893 -0.1599 -0.0717
  391loPI   C5A 6251  16.306   7.918   7.785 -0.1610 -0.0414 -0.1561
  391loPI   C6A 6252  16.228   7.463   7.717  0.3367  0.0106  0.4764
  391loPI   C1B 6253  15.949   8.972   9.566  0.1478 -0.0439  0.1747
  391loPI   C2B 6254  15.862   9.179   9.204  0.1648  0.4175 -0.3484
  391loPI   C3B 6255  15.839   9.138   8.755  0.1528  0.0032  0.0328
  391loPI   C4B 6256  15.718   9.419   8.476  0.0036 -0.2417 -0.1357
  392loPI    C1 6257  10.927   0.047   9.832 -0.2543  0.0417  0.4494
  392loPI    C2 6258  11.291   0.194   9.910 -0.1284 -0.0470  0.0555
  392loPI    C3 6259  11.134  -0.088  10.146  0.1020 -0.0836  0.1678
  392loPI   PO4 6260  10.901   0.101   9.578 -0.1700 -0.3168 -0.0088
  392loPI   GL1 6261  11.086  -0.018   9.146 -0.1213 -0.2863 -0.0423
  392loPI   GL2 6262  10.954  -0.321   9.173 -0.1904  0.2902  0.0484
  392loPI   C1A 6263  11.312   0.194   8.881  0.1228 -0.1287 -0.0489
  392loPI   C2A 6264  11.260   0.215   8.471 -0.0557 -0.0185  0.0044
  392loPI   C3A 6265  11.194   0.286   8.095 -0.1849  0.2177  0.2046
  392loPI   C4A 6266  10.940   0.397   7.646  0.3813 -0.1268  0.0698
  392loPI   C5A 6267  10.966   0.316   7.254 -0.1715 -0.1253 -0.0852
  392loPI   C6A 6268  10.677   0.323   6.823  0.0991 -0.0591 -0.1846
  392loPI   C1B 6269  10.949  -0.264   8.746 -0.1875  0.2947  0.1305
  392loPI   C2B 6270  11.045  -0.236   8.273 -0.0393 -0.1609 -0.1753
  392loPI   C3B 6271  11.071  -0.181   7.836 -0.3535  0.2052  0.2581
  392loPI   C4B 6272  11.036  -0.267   7.429 -0.1448 -0.2257 -0.4840
  393loPI    C1 6273   9.671   3.432  10.068  0.1396 -0.0638 -0.0552
  393loPI    C2 6274   9.379   3.336  10.325  0.0028  0.2609 -0.0846
  393loPI    C3 6275   9.598   3.048  10.154 -0.3716  0.0055 -0.1456
  393loPI   PO4 6276   9.523   3.755   9.975  0.0017  0.2799 -0.0900
  393loPI   GL1 6277   9.411   3.919   9.638  0.1961  0.2736 -0.1733
  393loPI   GL2 6278   9.708   3.945   9.467  0.1124 -0.0406 -0.1590
  393loPI   C1A 6279   9.168   3.984   9.229 -0.1762  0.0466 -0.2178
  393loPI   C2A 6280   9.249   3.937   8.814 -0.1420  0.0892  0.4550
  393loPI   C3A 6281   9.361   3.956   8.431 -0.1476  0.1717 -0.0928
  393loPI   C4A 6282   9.464   4.245   8.052 -0.0690  0.2396  0.3328
  393loPI   C5A 6283   9.715   4.518   7.719  0.1236  0.0654  0.2175
  393loPI   C6A 6284   9.657   4.853   7.466  0.1784  0.1526 -0.0824
  393loPI   C1B 6285   9.682   3.924   9.078  0.1886 -0.1916 -0.2626
  393loPI   C2B 6286   9.858   3.879   8.691 -0.0152 -0.0319  0.2384
  393loPI   C3B 6287   9.938   3.768   8.336 -0.2393 -0.6187  0.0207
  393loPI   C4B 6288   9.723   3.752   7.958  0.1573 -0.1139  0.2605
  394loPI    C1 6289   7.290   2.724  10.001  0.0783 -0.1557 -0.0014
  394loPI    C2 6290   7.043   2.893  10.266  0.0110 -0.0125 -0.1536
  394loPI    C3 6291   7.397   2.751  10.385 -0.0699 -0.0600  0.0340
  394loPI   PO4 6292   7.091   2.564   9.879  0.0284  0.2021 -0.0651
  394loPI   GL1 6293   7.182   2.235   9.475  0.0546  0.2812  0.1370
  394loPI   GL2 6294   7.075   1.921   9.324  0.0446  0.0603 -0.1020
  394loPI   C1A 6295   7.174   2.503   8.981 -0.2268 -0.0844  0.4372
  394loPI   C2A 6296   7.120   2.484   8.554  0.0020 -0.1416  0.1342
  394loPI   C3A 6297   6.948   2.554   8.218  0.0937  0.0855  0.0137
  394loPI   C4A 6298   6.901   2.791   7.950 -0.0395 -0.2386  0.3088
  394loPI   C5A 6299   6.799   2.914   7.499 -0.0102  0.0941 -0.1017
  394loPI   C6A 6300   6.725   3.169   7.063 -0.0935 -0.0894 -0.1707
  394loPI   C1B 6301   7.105   1.991   8.791 -0.0911 -0.2420 -0.1007
  394loPI   C2B 6302   7.074   2.004   8.335  0.2679 -0.0864  0.1937
  394loPI   C3B 6303   6.804   1.968   7.894  0.0557 -0.1837 -0.0502
  394loPI   C4B 6304   6.568   1.813   7.507 -0.0555 -0.3052 -0.1584
  395loPI    C1 6305   5.436   9.610  10.503  0.0047  0.1384  0.1478
  395loPI    C2 6306   5.393   9.258  10.317 -0.3111  0.2135  0.0734
  395loPI    C3 6307   5.267   9.302  10.695 -0.1342  0.2056  0.1342
  395loPI   PO4 6308   5.365   9.776  10.268  0.0269  0.0463 -0.4907
  395loPI   GL1 6309   5.519   9.578   9.947 -0.0454 -0.0201 -0.1820
  395loPI   GL2 6310   5.702   9.314   9.916  0.2364  0.1722 -0.2486
  395loPI   C1A 6311   5.436   9.719   9.517  0.2172  0.0424 -0.0429
  395loPI   C2A 6312   5.507   9.720   9.100 -0.0243  0.3097 -0.1768
  395loPI   C3A 6313   5.407   9.691   8.699 -0.0810 -0.1596 -0.0080
  395loPI   C4A 6314   5.398   9.487   8.239 -0.2014 -0.1276  0.1372
  395loPI   C5A 6315   5.199   9.080   8.032  0.0928 -0.0578 -0.1997
  395loPI   C6A 6316   5.448   8.674   7.975 -0.0757  0.3299  0.0330
  395loPI   C1B 6317   5.696   9.272   9.513  0.2324  0.1245 -0.1716
  395loPI   C2B 6318   5.745   9.256   9.102  0.1193  0.4842  0.1201
  395loPI   C3B 6319   5.652   9.203   8.694  0.1743  0.1573 -0.1022
  395loPI   C4B 6320   5.621   9.079   8.328 -0.2114  0.1592 -0.0968
  396loPI    C1 6321  12.625   9.611  10.171  0.2089 -0.0833 -0.1402
  396loPI    C2 6322  12.584  10.008  10.199 -0.0969 -0.1062 -0.2238
  396loPI    C3 6323  12.541   9.779  10.524  0.1202 -0.0696 -0.1675
  396loPI   PO4 6324  12.802   9.610  10.066 -0.1540 -0.0395  0.1388
  396loPI   GL1 6325  12.842   9.512   9.661 -0.0769 -0.0445 -0.2447
  396loPI   GL2 6326  12.955   9.920   9.666  0.0919 -0.1347 -0.3918
  396loPI   C1A 6327  12.730   9.701   9.252  0.0451 -0.2237  0.0501
  396loPI   C2A 6328  12.787   9.749   8.814 -0.1914  0.4725 -0.0641
  396loPI   C3A 6329  12.717   9.626   8.416  0.0662 -0.3060 -0.0858
  396loPI   C4A 6330  12.810   9.417   8.034 -0.1142  0.1778 -0.2954
  396loPI   C5A 6331  12.622   9.379   7.727 -0.0885 -0.0263  0.2950
  396loPI   C6A 6332  12.442   9.607   7.525 -0.0975  0.1920  0.0968
  396loPI   C1B 6333  13.160   9.983   9.306  0.3335  0.1503  0.1240
  396loPI   C2B 6334  13.232   9.961   8.851 -0.1027  0.1141  0.0046
  396loPI   C3B 6335  13.217   9.846   8.502 -0.2149 -0.2853 -0.1676
  396loPI   C4B 6336  13.325   9.881   8.167  0.1943  0.0187 -0.1145
  397loPI    C1 6337  13.174   5.746  10.040 -0.1049 -0.1279  0.0831
  397loPI    C2 6338  13.364   5.807  10.388 -0.0073 -0.0040  0.0092
  397loPI    C3 6339  13.422   5.467  10.185  0.0848  0.0051  0.0197
  397loPI   PO4 6340  12.983   5.917  10.065  0.1946  0.0298  0.0186
  397loPI   GL1 6341  12.733   5.955   9.671  0.2940  0.1347  0.1540
  397loPI   GL2 6342  12.826   6.260   9.602 -0.0846  0.0999 -0.0205
  397loPI   C1A 6343  12.939   5.820   9.303  0.2430 -0.1269 -0.1164
  397loPI   C2A 6344  12.920   5.861   8.943 -0.3963 -0.1126  0.1891
  397loPI   C3A 6345  12.994   5.929   8.517 -0.2795 -0.0783  0.1357
  397loPI   C4A 6346  13.325   5.957   8.172 -0.0369 -0.1729 -0.0734
  397loPI   C5A 6347  13.630   5.901   7.806 -0.1116 -0.0765 -0.1715
  397loPI   C6A 6348  13.643   5.600   7.488 -0.4899  0.0428  0.3720
  397loPI   C1B 6349  12.818   6.355   9.124 -0.1033 -0.2197 -0.1994
  397loPI   C2B 6350  12.737   6.444   8.735  0.0310 -0.0029 -0.0220
  397loPI   C3B 6351  12.526   6.578   8.321 -0.0182  0.0103 -0.0972
  397loPI   C4B 6352  12.782   6.434   8.001 -0.3455  0.0505  0.2203
  398loPI    C1 6353   0.948   8.069  10.621  0.1171 -0.0549 -0.2113
  398loPI    C2 6354   1.226   7.820  10.766 -0.0735 -0.0463  0.1827
  398loPI    C3 6355   1.039   8.075  11.011 -0.2705  0.1042 -0.1187
  398loPI   PO4 6356   0.898   8.132  10.315  0.0405 -0.0304 -0.2767
  398loPI   GL1 6357   0.759   7.891  10.019 -0.0479  0.1446  0.1250
  398loPI   GL2 6358   1.067   7.947   9.914 -0.2012  0.0911  0.3006
  398loPI   C1A 6359   0.516   7.903   9.640  0.0543  0.1282 -0.0131
  398loPI   C2A 6360   0.604   7.920   9.275  0.4338 -0.0075  0.2755
  398loPI   C3A 6361   0.610   7.943   8.849  0.0865 -0.2466 -0.3164
  398loPI   C4A 6362   0.465   7.931   8.476 -0.2741  0.0898  0.0253
  398loPI   C5A 6363   0.187   8.028   8.180 -0.0123  0.1306 -0.0607
  398loPI   C6A 6364  -0.093   7.982   7.777 -0.0763  0.1476  0.0412
  398loPI   C1B 6365   1.097   8.081   9.471 -0.0229  0.3568  0.3149
  398loPI   C2B 6366   1.108   7.956   9.133 -0.2762  0.3203 -0.1398
  398loPI   C3B 6367   1.094   7.970   8.767 -0.1467  0.3668  0.0816
  398loPI   C4B 6368   0.981   7.863   8.380  0.1991  0.1374  0.1021
  399loPI    C1 6369   2.713   3.854  10.534 -0.0368 -0.2071  0.2152
  399loPI    C2 6370   2.885   4.171  10.706 -0.2285 -0.0420  0.1057
  399loPI    C3 6371   3.011   3.803  10.797  0.1253  0.0712  0.0903
  399loPI   PO4 6372   2.557   3.976  10.345  0.2295 -0.1196  0.0439
  399loPI   GL1 6373   2.228   4.032   9.985 -0.0987  0.3772 -0.3863
  399loPI   GL2 6374   2.432   3.836   9.794 -0.1664 -0.0563  0.4709
  399loPI   C1A 6375   2.036   4.208   9.667 -0.1490  0.1895 -0.2369
  399loPI   C2A 6376   1.994   4.262   9.188 -0.2175  0.0311  0.2132
  399loPI   C3A 6377   1.915   4.357   8.859 -0.1854  0.1317  0.0795
  399loPI   C4A 6378   2.014   4.471   8.363 -0.2964 -0.1565 -0.1084
  399loPI   C5A 6379   2.074   4.685   8.031  0.0844 -0.2615  0.3089
  399loPI   C6A 6380   2.051   5.167   8.006  0.0486 -0.2372 -0.2324
  399loPI   C1B 6381   2.357   3.824   9.321  0.0226 -0.0013 -0.3499
  399loPI   C2B 6382   2.155   3.854   8.889 -0.2084  0.1701 -0.3866
  399loPI   C3B 6383   2.167   3.980   8.405  0.3160 -0.1253  0.0057
  399loPI   C4B 6384   2.009   4.178   7.990 -0.0305  0.2443 -0.0712
  400loPI    C1 6385  17.323  14.058  10.285  0.0522 -0.1671 -0.2992
  400loPI    C2 6386  17.364  13.664  10.340  0.1041 -0.1510 -0.2221
  400loPI    C3 6387  17.641  13.916  10.481 -0.2765 -0.0363  0.3556
  400loPI   PO4 6388  17.349  14.191   9.905 -0.0081  0.1200  0.1651
  400loPI   GL1 6389  17.681  14.063   9.752 -0.1252  0.0060  0.0284
  400loPI   GL2 6390  17.570  13.983   9.483 -0.0439 -0.1970  0.2865
  400loPI   C1A 6391  17.963  14.159   9.298 -0.0585 -0.2894  0.0986
  400loPI   C2A 6392  18.044  14.116   8.843  0.1672  0.1873 -0.0053
  400loPI   C3A 6393  18.152  14.141   8.381 -0.1457  0.0180 -0.2131
  400loPI   C4A 6394  18.158  14.114   8.082 -0.0718  0.0029 -0.0530
  400loPI   C5A 6395  17.982  13.969   7.656 -0.1136 -0.1491 -0.0859
  400loPI   C6A 6396  17.676  13.852   7.395 -0.1342 -0.1927  0.1019
  400loPI   C1B 6397  17.700  13.790   9.055 -0.0170  0.0518 -0.1250
  400loPI   C2B 6398  17.807  13.705   8.666 -0.3845 -0.1186  0.4069
  400loPI   C3B 6399  17.736  13.792   8.137  0.0226 -0.1984  0.0551
  400loPI   C4B 6400  17.795  13.476   7.767 -0.0332 -0.0351 -0.1213
  401loPI    C1 6401  15.574  10.492  10.312 -0.0607 -0.4202  0.0656
  401loPI    C2 6402  15.917  10.574  10.501 -0.0764 -0.1136 -0.0317
  401loPI    C3 6403  15.569  10.605  10.696 -0.0649 -0.2072  0.0045
  401loPI   PO4 6404  15.629  10.195  10.114  0.1607  0.1138  0.0044
  401loPI   GL1 6405  15.768   9.926   9.803  0.1603 -0.1258 -0.0466
  401loPI   GL2 6406  15.884  10.154   9.668  0.1388  0.0421 -0.2616
  401loPI   C1A 6407  15.459  10.018   9.417  0.0373 -0.0550  0.2079
  401loPI   C2A 6408  15.598  10.064   9.025 -0.1645  0.2290 -0.0742
  401loPI   C3A 6409  15.496  10.065   8.658 -0.0422 -0.0896  0.0291
  401loPI   C4A 6410  15.506   9.824   8.183 -0.1128 -0.3041  0.1574
  401loPI   C5A 6411  15.745   9.547   7.904 -0.0773 -0.3299  0.0163
  401loPI   C6A 6412  16.053   9.220   7.954 -0.0295 -0.1723  0.0956
  401loPI   C1B 6413  16.026  10.002   9.289  0.3015  0.1243 -0.1503
  401loPI   C2B 6414  15.995   9.769   8.959 -0.3722 -0.0229 -0.2116
  401loPI   C3B 6415  16.182   9.463   8.630 -0.1507  0.0612 -0.2816
  401loPI   C4B 6416  16.268   9.096   8.417 -0.1071  0.0219  0.1039
  402loPI    C1 6417  17.028   6.007  10.153 -0.0156 -0.0564  0.0645
  402loPI    C2 6418  16.662   6.052  10.308 -0.0549 -0.0335 -0.0343
  402loPI    C3 6419  16.910   6.365  10.288 -0.0393 -0.0430  0.0085
  402loPI   PO4 6420  17.230   5.807  10.227  0.1157  0.0895 -0.0929
  402loPI   GL1 6421  17.548   5.757   9.983  0.2194  0.0628  0.0537
  402loPI   GL2 6422  17.811   5.898   9.850  0.1760  0.2309 -0.0260
  402loPI   C1A 6423  17.556   5.549   9.558  0.1912 -0.1831  0.2777
  402loPI   C2A 6424  17.624   5.673   9.219  0.0149  0.0155  0.0992
  402loPI   C3A 6425  17.816   5.700   8.822  0.1727  0.4080  0.0639
  402loPI   C4A 6426  17.797   5.755   8.479  0.0414 -0.0201  0.3944
  402loPI   C5A 6427  17.838   5.833   8.083 -0.1831  0.0878  0.2495
  402loPI   C6A 6428  18.196   5.855   7.816  0.2547  0.0605  0.1850
  402loPI   C1B 6429  18.061   5.742   9.592 -0.2539  0.1190  0.0428
  402loPI   C2B 6430  18.183   5.670   9.213 -0.0328 -0.1261 -0.1129
  402loPI   C3B 6431  18.311   5.711   8.788  0.0366 -0.0065  0.2299
  402loPI   C4B 6432  18.292   5.809   8.343  0.1562 -0.0319  0.1226
  403loPI    C1 6433  13.500  15.063   9.650  0.0706  0.1345  0.0194
  403loPI    C2 6434  13.249  14.823   9.848  0.3735 -0.1008  0.1262
  403loPI    C3 6435  13.265  15.213   9.938 -0.1386 -0.0282 -0.0647
  403loPI   PO4 6436  13.448  15.106   9.453  0.2289  0.0949  0.2688
  403loPI   GL1 6437  13.334  14.953   9.089  0.0020 -0.2252  0.0476
  403loPI   GL2 6438  13.070  14.768   9.178 -0.2135  0.1090  0.0103
  403loPI   C1A 6439  13.263  14.908   8.716  0.0051 -0.2021 -0.2926
  403loPI   C2A 6440  13.483  14.769   8.322 -0.0842 -0.0375  0.0226
  403loPI   C3A 6441  13.520  14.662   7.953 -0.1350 -0.0687  0.0215
  403loPI   C4A 6442  13.650  14.652   7.512 -0.2086  0.1405 -0.0085
  403loPI   C5A 6443  13.772  14.557   7.199 -0.4015  0.1474  0.0549
  403loPI   C6A 6444  14.043  14.750   6.919 -0.1358 -0.2654 -0.2440
  403loPI   C1B 6445  12.861  14.570   8.866 -0.4018 -0.2174 -0.1433
  403loPI   C2B 6446  12.614  14.446   8.555 -0.0402 -0.0990 -0.0212
  403loPI   C3B 6447  12.574  14.507   8.220 -0.0064  0.0915 -0.1955
  403loPI   C4B 6448  12.686  14.637   7.790  0.1578 -0.0367 -0.1105
  404loPI    C1 6449   8.281   4.558  10.324 -0.1202 -0.0715  0.2067
  404loPI    C2 6450   8.592   4.681  10.104 -0.0393 -0.0005  0.3587
  404loPI    C3 6451   8.295   4.934  10.190 -0.1966 -0.0998  0.1189
  404loPI   PO4 6452   8.211   4.326  10.239 -0.0396  0.0174 -0.2298
  404loPI   GL1 6453   8.252   4.143   9.757  0.1605  0.0616  0.1268
  404loPI   GL2 6454   8.545   4.240   9.879 -0.1922  0.3061 -0.0325
  404loPI   C1A 6455   8.211   4.233   9.280  0.0375 -0.0299  0.0834
  404loPI   C2A 6456   8.170   4.022   8.944  0.1864  0.0176 -0.1585
  404loPI   C3A 6457   8.217   4.090   8.534  0.1182 -0.0622  0.0807
  404loPI   C4A 6458   8.443   4.091   8.143  0.2523  0.0323  0.1711
  404loPI   C5A 6459   8.624   4.112   7.828  0.2004  0.1656  0.0147
  404loPI   C6A 6460   8.862   4.071   7.388 -0.1029 -0.1010 -0.1182
  404loPI   C1B 6461   8.770   4.376   9.456 -0.0597 -0.0632 -0.2020
  404loPI   C2B 6462   8.989   4.418   8.962  0.0782  0.0199 -0.0007
  404loPI   C3B 6463   9.093   4.361   8.523  0.2345 -0.2656  0.2268
  404loPI   C4B 6464   9.014   4.371   7.987 -0.1779  0.3405  0.0151
  405loPI    C1 6465  12.726   4.312  10.107  0.0708 -0.3114  0.0262
  405loPI    C2 6466  12.831   4.651  10.293 -0.3164 -0.2582  0.1572
  405loPI    C3 6467  13.051   4.320  10.340  0.2213  0.0360 -0.1872
  405loPI   PO4 6468  12.690   4.366   9.855  0.3065  0.1872 -0.1138
  405loPI   GL1 6469  12.575   4.253   9.437  0.1787 -0.1529 -0.0038
  405loPI   GL2 6470  12.293   4.498   9.620  0.0058 -0.0149  0.0724
  405loPI   C1A 6471  12.442   4.540   9.038  0.0214  0.4407  0.1498
  405loPI   C2A 6472  12.427   4.680   8.618  0.2567 -0.2250  0.0411
  405loPI   C3A 6473  12.744   4.628   8.327  0.0080 -0.1542  0.1111
  405loPI   C4A 6474  13.123   4.855   8.219 -0.1190 -0.1016 -0.0176
  405loPI   C5A 6475  13.156   5.026   7.842 -0.2489  0.1065 -0.0826
  405loPI   C6A 6476  13.121   5.007   7.383  0.2724  0.1384  0.1216
  405loPI   C1B 6477  12.001   4.610   9.260 -0.3082 -0.3090 -0.1688
  405loPI   C2B 6478  11.860   4.671   8.759  0.0171 -0.0962 -0.3204
  405loPI   C3B 6479  11.755   4.647   8.356  0.3166  0.0806 -0.1018
  405loPI   C4B 6480  11.668   4.733   7.897 -0.2699 -0.2497 -0.0735
  406loPI    C1 6481   3.622   3.349  10.399  0.1920  0.1173 -0.1099
  406loPI    C2 6482   3.779   3.082  10.146  0.1525  0.0796 -0.0945
  406loPI    C3 6483   3.941   3.134  10.508  0.1341  0.0457 -0.0814
  406loPI   PO4 6484   3.564   3.511  10.208  0.0643  0.1619  0.0114
  406loPI   GL1 6485   3.644   3.575   9.812  0.0362  0.3343  0.2326
  406loPI   GL2 6486   3.859   3.757   9.731 -0.1515 -0.0832  0.1765
  406loPI   C1A 6487   3.345   3.736   9.458 -0.0955 -0.1068  0.0291
  406loPI   C2A 6488   3.254   3.766   9.058  0.3425  0.0393  0.1371
  406loPI   C3A 6489   3.167   3.991   8.758  0.1159  0.0071  0.4810
  406loPI   C4A 6490   3.332   3.913   8.386  0.1891 -0.0236  0.1194
  406loPI   C5A 6491   3.301   3.983   7.910  0.0426 -0.3057  0.1547
  406loPI   C6A 6492   3.528   3.741   7.637 -0.3392 -0.2577  0.0983
  406loPI   C1B 6493   3.855   3.805   9.309  0.0478 -0.1519  0.0686
  406loPI   C2B 6494   3.781   3.821   8.868 -0.0519  0.1495 -0.0293
  406loPI   C3B 6495   3.851   3.906   8.427 -0.3351 -0.0525 -0.1576
  406loPI   C4B 6496   3.817   3.849   7.987 -0.2031 -0.2154  0.1232
  407loPI    C1 6497  15.374   0.396   9.743 -0.0785 -0.0684  0.0546
  407loPI    C2 6498  15.180   0.073   9.876 -0.0127 -0.0753  0.1343
  407loPI    C3 6499  15.241   0.384  10.120 -0.2543  0.0813 -0.0013
  407loPI   PO4 6500  15.365   0.303   9.460  0.0942 -0.3777 -0.1339
  407loPI   GL1 6501  15.235   0.342   9.143  0.2562 -0.1096 -0.0945
  407loPI   GL2 6502  15.161   0.692   9.159  0.2139 -0.1303 -0.0047
  407loPI   C1A 6503  15.187   0.321   8.711  0.1529 -0.0590  0.0584
  407loPI   C2A 6504  15.118   0.206   8.211  0.1036 -0.0838  0.0392
  407loPI   C3A 6505  14.907   0.444   7.887 -0.1381 -0.0433 -0.2256
  407loPI   C4A 6506  14.813   0.296   7.547  0.0295 -0.2932  0.0718
  407loPI   C5A 6507  14.746  -0.011   7.225  0.0943  0.0221 -0.3567
  407loPI   C6A 6508  14.737  -0.466   6.962 -0.1664 -0.3657  0.2915
  407loPI   C1B 6509  14.941   0.733   8.788  0.0280  0.0060  0.0313
  407loPI   C2B 6510  14.963   0.744   8.378 -0.1257 -0.1688 -0.1107
  407loPI   C3B 6511  15.192   0.883   8.037 -0.2891  0.1606  0.2501
  407loPI   C4B 6512  15.225   0.787   7.668 -0.2556 -0.2839  0.1574
  408loPI    C1 6513  13.555   4.184  10.075 -0.0009 -0.1718  0.0040
  408loPI    C2 6514  13.519   4.460  10.362 -0.1965 -0.0882 -0.0991
  408loPI    C3 6515  13.824   4.201  10.371 -0.0522  0.0836  0.0380
  408loPI   PO4 6516  13.616   4.355   9.868  0.3034  0.1784 -0.0159
  408loPI   GL1 6517  13.567   4.668   9.560  0.1003  0.0905 -0.1942
  408loPI   GL2 6518  13.255   4.803   9.510  0.3710  0.3762 -0.2815
  408loPI   C1A 6519  13.692   4.661   9.140 -0.0978  0.1805 -0.1392
  408loPI   C2A 6520  13.857   4.768   8.837  0.3504  0.2176  0.0694
  408loPI   C3A 6521  13.973   4.718   8.394  0.2529 -0.0173  0.0524
  408loPI   C4A 6522  13.912   4.728   7.879  0.2915 -0.0189 -0.0565
  408loPI   C5A 6523  13.668   4.694   7.573  0.0457  0.4001 -0.0799
  408loPI   C6A 6524  13.523   4.778   7.135 -0.4556  0.3672 -0.2568
  408loPI   C1B 6525  13.236   4.974   9.122 -0.3466 -0.1952  0.2370
  408loPI   C2B 6526  13.382   4.929   8.655 -0.1656 -0.0535 -0.3160
  408loPI   C3B 6527  13.644   5.023   8.160 -0.2170 -0.0299  0.1202
  408loPI   C4B 6528  13.871   5.359   7.907  0.0779  0.0240  0.0788
  409loPI    C1 6529  14.775   1.079   9.829  0.1174 -0.1861  0.1041
  409loPI    C2 6530  14.940   0.776  10.032 -0.1080 -0.2774  0.1539
  409loPI    C3 6531  14.822   1.105  10.226 -0.2195 -0.3182  0.1562
  409loPI   PO4 6532  14.853   1.011   9.442  0.1190  0.1689  0.2602
  409loPI   GL1 6533  14.738   1.401   9.128 -0.0899 -0.0416  0.1931
  409loPI   GL2 6534  14.347   1.257   9.214 -0.1027  0.0739 -0.0289
  409loPI   C1A 6535  14.894   1.213   8.725  0.2045  0.0511 -0.1352
  409loPI   C2A 6536  14.924   1.241   8.339  0.0576  0.0169 -0.2971
  409loPI   C3A 6537  14.941   1.244   7.833 -0.0880 -0.1127 -0.0186
  409loPI   C4A 6538  15.159   1.263   7.423 -0.0857  0.1736  0.1085
  409loPI   C5A 6539  15.393   1.007   7.138  0.0343 -0.0736 -0.3509
  409loPI   C6A 6540  15.669   0.601   7.102 -0.2361 -0.0739  0.0674
  409loPI   C1B 6541  14.430   1.362   8.825  0.0438  0.1097  0.2705
  409loPI   C2B 6542  14.450   1.388   8.417  0.2583 -0.1441  0.1553
  409loPI   C3B 6543  14.285   1.308   7.965 -0.2678  0.0911  0.0542
  409loPI   C4B 6544  14.229   1.361   7.542 -0.1250 -0.1798 -0.4982
  410loPI    C1 6545  14.502  15.971   9.433 -0.1106  0.2919  0.2693
  410loPI    C2 6546  14.310  16.146   9.129  0.0174 -0.0301 -0.0030
  410loPI    C3 6547  14.183  15.793   9.269  0.0568  0.0393  0.2112
  410loPI   PO4 6548  14.711  16.026   9.372  0.1453  0.3295 -0.1211
  410loPI   GL1 6549  14.840  16.169   9.036  0.0628  0.1105 -0.1328
  410loPI   GL2 6550  15.088  16.234   8.870 -0.1160 -0.3419 -0.0416
  410loPI   C1A 6551  14.666  16.243   8.689  0.1663 -0.1811  0.4061
  410loPI   C2A 6552  14.402  16.018   8.381 -0.0909 -0.1066  0.0239
  410loPI   C3A 6553  14.332  15.788   8.013 -0.1198  0.1675 -0.2413
  410loPI   C4A 6554  14.350  15.709   7.615 -0.0998  0.0319  0.0480
  410loPI   C5A 6555  14.575  15.796   7.238 -0.0687  0.0809  0.1456
  410loPI   C6A 6556  15.072  15.678   7.221 -0.2294  0.2559 -0.3241
  410loPI   C1B 6557  15.071  16.413   8.412  0.1961 -0.3290 -0.1068
  410loPI   C2B 6558  14.782  16.195   8.142  0.2684  0.0815  0.0340
  410loPI   C3B 6559  14.761  16.093   7.734 -0.1307  0.1184  0.0994
  410loPI   C4B 6560  14.632  16.290   7.428  0.0448 -0.0679  0.0134
  411loPI    C1 6561   6.954   6.049  10.698 -0.3359 -0.0798 -0.2122
  411loPI    C2 6562   6.751   6.392  10.664  0.0172  0.1358 -0.1921
  411loPI    C3 6563   6.881   6.271  11.023  0.0884  0.0965 -0.2312
  411loPI   PO4 6564   7.017   5.953  10.434  0.1373 -0.0840  0.2026
  411loPI   GL1 6565   6.993   6.338  10.223 -0.0414  0.0795 -0.0177
  411loPI   GL2 6566   7.328   6.378  10.173 -0.0889  0.1329  0.0737
  411loPI   C1A 6567   7.056   6.337   9.759  0.0227  0.1633 -0.0176
  411loPI   C2A 6568   7.092   6.350   9.309 -0.0295 -0.5020 -0.0119
  411loPI   C3A 6569   7.086   6.403   8.871  0.0807  0.3033 -0.3362
  411loPI   C4A 6570   6.834   6.346   8.370  0.2824 -0.0113 -0.1787
  411loPI   C5A 6571   6.776   6.495   7.921 -0.1069 -0.2632 -0.1802
  411loPI   C6A 6572   6.963   6.535   7.499 -0.0964 -0.0605 -0.1177
  411loPI   C1B 6573   7.335   6.712   9.966  0.0412 -0.1976 -0.2315
  411loPI   C2B 6574   7.368   6.785   9.548 -0.4955  0.2402 -0.1712
  411loPI   C3B 6575   7.410   6.795   9.132 -0.0066 -0.3533  0.3963
  411loPI   C4B 6576   7.295   6.826   8.701  0.0567 -0.1441 -0.0755
  412loPI    C1 6577  15.469  14.485  10.037  0.1309 -0.1820  0.1708
  412loPI    C2 6578  15.706  14.802  10.095  0.0057 -0.0518 -0.0161
  412loPI    C3 6579  15.460  14.681  10.386  0.0746  0.0043  0.0660
  412loPI   PO4 6580  15.546  14.422   9.747 -0.0738 -0.0661 -0.1952
  412loPI   GL1 6581  15.703  14.504   9.281 -0.0650  0.1382 -0.2013
  412loPI   GL2 6582  15.488  14.433   9.027  0.2052 -0.0761 -0.0329
  412loPI   C1A 6583  16.082  14.576   9.057 -0.0458  0.2010 -0.1633
  412loPI   C2A 6584  16.181  14.706   8.682  0.3065  0.1452 -0.1465
  412loPI   C3A 6585  16.284  14.663   8.327 -0.0377  0.3760  0.1774
  412loPI   C4A 6586  16.311  14.873   7.978 -0.1651 -0.2887 -0.1398
  412loPI   C5A 6587  16.193  15.191   7.672 -0.0353 -0.0783 -0.0239
  412loPI   C6A 6588  15.972  15.302   7.365 -0.0514 -0.3934  0.1012
  412loPI   C1B 6589  15.692  14.391   8.720  0.0996 -0.1405 -0.1787
  412loPI   C2B 6590  15.793  14.407   8.372 -0.0456  0.1998  0.0560
  412loPI   C3B 6591  15.753  14.495   7.964 -0.1499 -0.1479 -0.2010
  412loPI   C4B 6592  16.015  14.651   7.558  0.0341 -0.1384 -0.0695
  413loPI    C1 6593   3.241  15.107  10.226 -0.0657 -0.0054 -0.1500
  413loPI    C2 6594   3.087  14.904  10.534  0.3511 -0.0218  0.0552
  413loPI    C3 6595   3.113  15.303  10.551  0.1996 -0.0071 -0.0416
  413loPI   PO4 6596   3.141  14.983  10.020  0.3189 -0.0398  0.0884
  413loPI   GL1 6597   3.172  14.723   9.747  0.0114  0.0404 -0.0083
  413loPI   GL2 6598   3.517  14.675   9.551 -0.0528 -0.0491 -0.8052
  413loPI   C1A 6599   3.030  14.342   9.399  0.0344  0.0047 -0.0686
  413loPI   C2A 6600   3.140  14.233   9.061 -0.1349  0.0083 -0.0990
  413loPI   C3A 6601   3.107  14.130   8.646 -0.0478  0.1564  0.1017
  413loPI   C4A 6602   3.091  13.736   8.427  0.1254 -0.0742 -0.3170
  413loPI   C5A 6603   3.231  13.668   8.049  0.1849 -0.3395  0.3228
  413loPI   C6A 6604   3.413  13.830   7.672  0.3005 -0.0173  0.0800
  413loPI   C1B 6605   3.466  14.615   9.111  0.1749  0.2869 -0.1505
  413loPI   C2B 6606   3.545  14.449   8.613  0.1453  0.0061 -0.0129
  413loPI   C3B 6607   3.428  14.091   8.259 -0.0689  0.1990  0.2608
  413loPI   C4B 6608   3.023  14.113   8.128  0.1665 -0.3753 -0.0047
  414loPI    C1 6609   6.773  15.808  10.140 -0.1052  0.0770 -0.0178
  414loPI    C2 6610   6.487  15.917  10.398 -0.2622 -0.2486 -0.0493
  414loPI    C3 6611   6.865  15.884  10.522 -0.3018 -0.1950  0.0878
  414loPI   PO4 6612   6.766  16.037   9.953 -0.0624  0.0024  0.0743
  414loPI   GL1 6613   6.671  16.439   9.665 -0.2170  0.0255  0.1187
  414loPI   GL2 6614   6.839  16.304   9.460  0.2491  0.3009 -0.0471
  414loPI   C1A 6615   6.533  16.576   9.172  0.2710 -0.2512 -0.0204
  414loPI   C2A 6616   6.424  16.408   8.805 -0.0552  0.0409  0.0150
  414loPI   C3A 6617   6.364  16.196   8.418 -0.0904 -0.2459  0.0762
  414loPI   C4A 6618   6.401  16.110   7.934  0.4441  0.2348  0.1143
  414loPI   C5A 6619   6.451  15.992   7.495 -0.0515  0.3399 -0.0066
  414loPI   C6A 6620   6.663  15.933   7.129 -0.0022 -0.1176 -0.3025
  414loPI   C1B 6621   6.818  16.174   8.986  0.2110 -0.2171  0.0735
  414loPI   C2B 6622   6.812  16.093   8.496  0.1990 -0.2640  0.3444
  414loPI   C3B 6623   6.840  16.017   8.064  0.0169  0.3099  0.5475
  414loPI   C4B 6624   6.928  15.910   7.618 -0.1922  0.0611  0.1520
  415loPI    C1 6625  13.923  15.722   9.692  0.0536 -0.2145  0.2351
  415loPI    C2 6626  13.933  15.356   9.854  0.2119 -0.2020  0.2553
  415loPI    C3 6627  13.918  15.678  10.090  0.1492 -0.1927  0.2390
  415loPI   PO4 6628  13.736  15.695   9.489 -0.1167  0.2534  0.0960
  415loPI   GL1 6629  13.691  15.611   9.111  0.0079  0.0974 -0.1217
  415loPI   GL2 6630  13.571  15.374   8.981 -0.2428 -0.1097 -0.0104
  415loPI   C1A 6631  13.984  15.747   8.838  0.2308  0.1180  0.1620
  415loPI   C2A 6632  13.944  15.695   8.432  0.1683  0.2216 -0.1451
  415loPI   C3A 6633  14.014  15.481   8.197 -0.3374 -0.1728 -0.3485
  415loPI   C4A 6634  13.995  15.452   7.831  0.1886 -0.0049  0.0863
  415loPI   C5A 6635  13.808  15.583   7.515 -0.0646 -0.2523  0.0955
  415loPI   C6A 6636  14.100  15.651   7.120 -0.2457  0.1909  0.0253
  415loPI   C1B 6637  13.664  15.215   8.560 -0.0952 -0.0172  0.0966
  415loPI   C2B 6638  13.608  15.231   8.132  0.0173  0.0925 -0.2646
  415loPI   C3B 6639  13.441  15.249   7.701 -0.0481  0.2323  0.1503
  415loPI   C4B 6640  13.295  15.485   7.449 -0.1719 -0.1208  0.1096
  416loPI    C1 6641   5.517   6.044  10.597 -0.0201  0.1036 -0.1657
  416loPI    C2 6642   5.635   6.411  10.703 -0.0245  0.1426 -0.2938
  416loPI    C3 6643   5.297   6.259  10.852  0.0587  0.1277 -0.1177
  416loPI   PO4 6644   5.632   5.999  10.408  0.0727  0.0620 -0.1971
  416loPI   GL1 6645   5.565   5.960  10.034 -0.1343 -0.0361  0.0540
  416loPI   GL2 6646   5.517   6.243   9.972  0.0066  0.1807 -0.0057
  416loPI   C1A 6647   5.795   6.030   9.580  0.0652  0.3258 -0.0234
  416loPI   C2A 6648   5.791   6.159   9.201 -0.0764 -0.1885 -0.2259
  416loPI   C3A 6649   5.733   6.075   8.728 -0.3613  0.0490  0.0124
  416loPI   C4A 6650   5.857   6.067   8.319 -0.1392  0.0904 -0.1693
  416loPI   C5A 6651   5.717   6.378   8.073 -0.1169 -0.3560  0.0776
  416loPI   C6A 6652   5.377   6.420   7.917  0.0140  0.4750 -0.0464
  416loPI   C1B 6653   5.527   6.426   9.649 -0.3567 -0.4027  0.1792
  416loPI   C2B 6654   5.460   6.480   9.243 -0.3714 -0.0982 -0.1119
  416loPI   C3B 6655   5.426   6.460   8.815  0.1901  0.0880 -0.0903
  416loPI   C4B 6656   5.379   6.536   8.420  0.0240  0.2653 -0.2376
  417loPI    C1 6657   1.923  10.356  10.827 -0.0527  0.1727 -0.1587
  417loPI    C2 6658   2.001  10.719  10.975 -0.0163  0.0986  0.0061
  417loPI    C3 6659   2.300  10.461  10.909 -0.0601  0.0332  0.0622
  417loPI   PO4 6660   1.604  10.403  10.686  0.2873  0.0828  0.1260
  417loPI   GL1 6661   1.306  10.538  10.296 -0.0473 -0.0376  0.3998
  417loPI   GL2 6662   1.181  10.832  10.119 -0.2197 -0.0364 -0.3772
  417loPI   C1A 6663   1.395  10.417   9.866  0.1371 -0.3454 -0.0306
  417loPI   C2A 6664   1.462  10.254   9.459 -0.1231 -0.0115 -0.0646
  417loPI   C3A 6665   1.426  10.213   9.037 -0.0543  0.1491 -0.0676
  417loPI   C4A 6666   1.366  10.176   8.657 -0.0738  0.1707 -0.1743
  417loPI   C5A 6667   1.349  10.204   8.174  0.1247  0.2183 -0.1907
  417loPI   C6A 6668   1.290  10.572   7.893 -0.1020 -0.0665 -0.1040
  417loPI   C1B 6669   1.158  10.831   9.630 -0.2200  0.1066 -0.3066
  417loPI   C2B 6670   1.191  10.595   9.172  0.0117  0.0708 -0.1649
  417loPI   C3B 6671   1.107  10.657   8.731 -0.1453 -0.0848 -0.3369
  417loPI   C4B 6672   1.067  10.557   8.357  0.1670 -0.2295  0.1221
  418loPI    C1 6673   2.044  18.244   9.839  0.0410  0.1092  0.0220
  418loPI    C2 6674   2.200  18.612   9.850  0.0446  0.1058  0.0768
  418loPI    C3 6675   2.319  18.336  10.114 -0.1009  0.1223  0.1608
  418loPI   PO4 6676   1.716  18.256   9.814  0.0452 -0.1221 -0.0797
  418loPI   GL1 6677   1.419  18.154   9.495 -0.1027 -0.2219  0.0252
  418loPI   GL2 6678   1.256  18.331   9.410  0.0438  0.2109 -0.3893
  418loPI   C1A 6679   1.628  18.060   9.198  0.1350 -0.3812 -0.1305
  418loPI   C2A 6680   1.586  18.010   8.801  0.0786  0.2708 -0.2170
  418loPI   C3A 6681   1.414  17.948   8.388  0.3807 -0.1799  0.0923
  418loPI   C4A 6682   1.324  18.213   8.110  0.3345  0.1580  0.1182
  418loPI   C5A 6683   1.141  18.434   7.806  0.2188 -0.2749  0.0966
  418loPI   C6A 6684   1.112  18.310   7.366  0.0821  0.0224  0.2074
  418loPI   C1B 6685   1.334  18.507   9.041  0.1160 -0.1978  0.3565
  418loPI   C2B 6686   1.260  18.454   8.597 -0.1224  0.0190  0.1552
  418loPI   C3B 6687   1.296  18.750   8.257 -0.0677  0.0728  0.1270
  418loPI   C4B 6688   1.365  18.982   7.913 -0.1790  0.1548  0.0725
  419loPI    C1 6689  17.016  16.285   9.804  0.2222 -0.0196 -0.0806
  419loPI    C2 6690  17.366  16.215   9.985  0.1133 -0.1740  0.0729
  419loPI    C3 6691  17.027  16.216  10.198  0.0384  0.1647 -0.0414
  419loPI   PO4 6692  17.068  16.146   9.582 -0.4520 -0.2964  0.1633
  419loPI   GL1 6693  17.034  16.242   9.231 -0.2257  0.0042  0.3120
  419loPI   GL2 6694  16.886  16.632   9.167 -0.2001 -0.3430 -0.0093
  419loPI   C1A 6695  17.167  16.027   8.865  0.1889  0.4174  0.0061
  419loPI   C2A 6696  17.324  16.012   8.474 -0.1231 -0.0823 -0.1024
  419loPI   C3A 6697  17.399  15.749   8.252  0.2278 -0.1959  0.0404
  419loPI   C4A 6698  17.562  15.612   7.875  0.2335 -0.0747 -0.1547
  419loPI   C5A 6699  17.633  15.503   7.448 -0.1619 -0.2508  0.2283
  419loPI   C6A 6700  17.714  15.174   7.196 -0.2367  0.2369 -0.0425
  419loPI   C1B 6701  16.877  16.447   8.767 -0.0555 -0.0377 -0.2565
  419loPI   C2B 6702  16.904  16.281   8.324 -0.0015  0.0889 -0.0539
  419loPI   C3B 6703  16.932  16.488   8.028 -0.2637 -0.1950  0.0069
  419loPI   C4B 6704  16.956  16.530   7.567 -0.1266  0.0460 -0.0925
  420loPI    C1 6705   8.627   7.377  10.361  0.1502 -0.3290 -0.1153
  420loPI    C2 6706   8.910   7.173  10.557  0.0885  0.0638  0.4049
  420loPI    C3 6707   8.532   7.167  10.687 -0.0175  0.0781  0.1061
  420loPI   PO4 6708   8.676   7.351  10.138  0.2893  0.0440 -0.2133
  420loPI   GL1 6709   8.764   7.120   9.825  0.1013  0.0403  0.0069
  420loPI   GL2 6710   8.953   6.840   9.842  0.4030 -0.0874  0.0812
  420loPI   C1A 6711   8.777   7.205   9.483 -0.2338  0.0938 -0.1752
  420loPI   C2A 6712   8.748   7.169   9.070  0.0236 -0.0650  0.1958
  420loPI   C3A 6713   8.697   7.098   8.575  0.0867  0.3248  0.0593
  420loPI   C4A 6714   8.694   7.014   8.155 -0.2085  0.1682  0.0550
  420loPI   C5A 6715   8.426   7.163   7.758 -0.5585  0.0860 -0.1540
  420loPI   C6A 6716   8.211   7.332   7.394 -0.1051  0.0972  0.1336
  420loPI   C1B 6717   9.036   6.793   9.417  0.2977  0.1423 -0.0763
  420loPI   C2B 6718   9.000   6.792   8.975  0.1735  0.1614  0.0237
  420loPI   C3B 6719   9.138   6.756   8.639 -0.0904  0.1007 -0.0094
  420loPI   C4B 6720   9.179   6.776   8.246  0.2049  0.2945  0.2542
  421loPI    C1 6721   0.386   2.493  10.397  0.1076 -0.1967  0.0771
  421loPI    C2 6722   0.217   2.231  10.647  0.4228 -0.0766  0.4244
  421loPI    C3 6723   0.185   2.623  10.717 -0.1144 -0.0049 -0.1358
  421loPI   PO4 6724   0.247   2.452  10.080 -0.0249  0.1927  0.0777
  421loPI   GL1 6725   0.309   2.482   9.792  0.0710 -0.1636  0.1608
  421loPI   GL2 6726   0.090   2.329   9.585 -0.1117  0.0922 -0.0926
  421loPI   C1A 6727   0.390   2.796   9.425 -0.0560 -0.0838  0.1078
  421loPI   C2A 6728   0.499   2.875   9.006 -0.3127 -0.0999 -0.0039
  421loPI   C3A 6729   0.600   3.073   8.561  0.1678 -0.1992 -0.1533
  421loPI   C4A 6730   0.677   3.111   8.092 -0.3505 -0.0975  0.2503
  421loPI   C5A 6731   0.879   2.924   7.732 -0.3978  0.1953 -0.2735
  421loPI   C6A 6732   1.045   2.431   7.676 -0.1441  0.3064  0.0084
  421loPI   C1B 6733   0.296   2.328   9.205  0.0186 -0.2240 -0.1294
  421loPI   C2B 6734   0.528   2.236   8.745 -0.3592  0.0939 -0.2740
  421loPI   C3B 6735   0.572   1.909   8.404  0.1333 -0.0767  0.0366
  421loPI   C4B 6736   0.675   1.804   8.031 -0.1897 -0.0479  0.0234
  422loPI    C1 6737   9.372  11.462  10.100 -0.1923 -0.0355 -0.2496
  422loPI    C2 6738   9.544  11.137  10.257 -0.0011  0.1501 -0.0682
  422loPI    C3 6739   9.434  11.440  10.494 -0.2002  0.2094 -0.2326
  422loPI   PO4 6740   9.394  11.407   9.827 -0.0655 -0.0545  0.4339
  422loPI   GL1 6741   9.026  11.320   9.523 -0.0794 -0.2959 -0.2115
  422loPI   GL2 6742   8.664  11.291   9.533 -0.0888  0.3647 -0.1521
  422loPI   C1A 6743   8.946  10.810   9.424 -0.2776  0.2397  0.1637
  422loPI   C2A 6744   8.893  10.777   8.998 -0.1672 -0.1222  0.1680
  422loPI   C3A 6745   8.833  10.785   8.591 -0.1178  0.2309  0.2186
  422loPI   C4A 6746   8.929  10.851   8.063 -0.1364  0.4244 -0.1424
  422loPI   C5A 6747   9.265  10.779   7.740 -0.3539  0.1259 -0.2667
  422loPI   C6A 6748   9.763  10.541   7.771 -0.0757 -0.1825 -0.0218
  422loPI   C1B 6749   8.820  11.318   9.057 -0.2496 -0.3429  0.1812
  422loPI   C2B 6750   8.675  11.417   8.685 -0.0001 -0.0928 -0.1627
  422loPI   C3B 6751   8.656  11.232   8.199 -0.0079  0.0804 -0.6126
  422loPI   C4B 6752   8.533  11.124   7.805 -0.2385 -0.2906  0.0324
  423loPI    C1 6753   9.565  14.885  10.048  0.1323  0.1136  0.1928
  423loPI    C2 6754   9.887  15.098  10.152  0.1084  0.2003  0.0921
  423loPI    C3 6755   9.607  15.014  10.425  0.2798  0.0092  0.2127
  423loPI   PO4 6756   9.688  14.702   9.824 -0.3975  0.1584  0.0648
  423loPI   GL1 6757   9.766  14.487   9.516 -0.1288  0.1537 -0.2422
  423loPI   GL2 6758  10.051  14.644   9.330  0.2142  0.1020 -0.2195
  423loPI   C1A 6759   9.643  14.194   9.150  0.1705 -0.2772  0.0638
  423loPI   C2A 6760   9.643  14.104   8.707 -0.2051  0.0512  0.1635
  423loPI   C3A 6761   9.633  14.036   8.293  0.2740  0.2354  0.0176
  423loPI   C4A 6762   9.534  14.382   7.981  0.0479  0.0850  0.4633
  423loPI   C5A 6763   9.390  14.554   7.609  0.0070  0.0272  0.1069
  423loPI   C6A 6764   9.523  14.652   7.192 -0.0213 -0.0102 -0.0614
  423loPI   C1B 6765  10.223  14.564   8.943  0.2371 -0.1454  0.0557
  423loPI   C2B 6766  10.336  14.683   8.545 -0.1319 -0.1465  0.3655
  423loPI   C3B 6767  10.527  14.546   8.184 -0.3229  0.2701  0.1156
  423loPI   C4B 6768  10.678  14.676   7.887 -0.0090  0.2097 -0.1537
  424loPI    C1 6769  13.329  12.426  10.024  0.1568  0.0607  0.0197
  424loPI    C2 6770  13.270  12.820  10.057 -0.4687 -0.0221  0.0099
  424loPI    C3 6771  13.285  12.592  10.385 -0.0215  0.0130  0.0206
  424loPI   PO4 6772  13.205  12.391   9.709 -0.0103  0.1198  0.1307
  424loPI   GL1 6773  13.282  11.997   9.519  0.3204 -0.1858  0.0768
  424loPI   GL2 6774  13.039  12.051   9.299  0.1634 -0.1770  0.2287
  424loPI   C1A 6775  13.535  12.254   9.158  0.0183 -0.4001 -0.1283
  424loPI   C2A 6776  13.582  12.213   8.628 -0.1704 -0.3100 -0.1212
  424loPI   C3A 6777  13.529  11.970   8.317  0.2776 -0.1467 -0.0614
  424loPI   C4A 6778  13.759  11.778   7.971  0.1631 -0.0428  0.0917
  424loPI   C5A 6779  14.080  11.684   7.670 -0.0205  0.0127 -0.1050
  424loPI   C6A 6780  14.519  11.735   7.587 -0.1833  0.0910 -0.1002
  424loPI   C1B 6781  13.160  12.158   8.893 -0.2729  0.0833  0.3565
  424loPI   C2B 6782  13.031  11.993   8.538 -0.2517  0.0248  0.0503
  424loPI   C3B 6783  12.909  11.919   8.161 -0.1919  0.2275 -0.0253
  424loPI   C4B 6784  12.786  11.996   7.820 -0.2629  0.1707 -0.0060
  425loPI    C1 6785   5.039   0.079  10.161 -0.0888  0.0900 -0.0097
  425loPI    C2 6786   4.847  -0.268  10.221  0.1139 -0.0340 -0.0692
  425loPI    C3 6787   5.014  -0.076  10.530 -0.1130  0.0801 -0.0154
  425loPI   PO4 6788   4.916   0.213  10.079 -0.0388 -0.1630  0.0534
  425loPI   GL1 6789   5.031   0.434   9.738  0.0496  0.0008 -0.0040
  425loPI   GL2 6790   4.782   0.660   9.687  0.1881  0.2232  0.0758
  425loPI   C1A 6791   5.296   0.562   9.295 -0.0437 -0.2717  0.0698
  425loPI   C2A 6792   5.245   0.605   8.821 -0.3386  0.0169  0.1077
  425loPI   C3A 6793   5.284   0.550   8.365 -0.0741 -0.1062  0.1522
  425loPI   C4A 6794   5.103   0.232   8.082  0.2080 -0.1281  0.0896
  425loPI   C5A 6795   4.720  -0.098   7.934 -0.2849 -0.2439 -0.2605
  425loPI   C6A 6796   4.289  -0.216   7.684  0.1926  0.2067 -0.0177
  425loPI   C1B 6797   4.867   0.747   9.282 -0.0367 -0.1750 -0.2073
  425loPI   C2B 6798   4.645   0.772   8.934 -0.2809  0.6443  0.0167
  425loPI   C3B 6799   4.782   0.547   8.568  0.2474  0.1639  0.1469
  425loPI   C4B 6800   4.642   0.231   8.394 -0.1215 -0.2648  0.2414
  426loPI    C1 6801   0.073   8.806  10.454  0.0826 -0.0597 -0.0044
  426loPI    C2 6802   0.013   9.144  10.659 -0.0059 -0.1891  0.1854
  426loPI    C3 6803  -0.099   9.121  10.276  0.0712  0.0216  0.1486
  426loPI   PO4 6804   0.282   8.654  10.431 -0.5006  0.0226 -0.1384
  426loPI   GL1 6805   0.559   8.674  10.104 -0.0083  0.2308  0.1722
  426loPI   GL2 6806   0.517   8.340  10.099 -0.2837 -0.0971  0.0765
  426loPI   C1A 6807   0.663   8.859   9.748  0.0924 -0.0438  0.2570
  426loPI   C2A 6808   0.489   8.887   9.350  0.1269  0.2266  0.0890
  426loPI   C3A 6809   0.542   8.814   8.889  0.2303  0.0276 -0.1377
  426loPI   C4A 6810   0.534   8.827   8.516  0.0289 -0.0582  0.0901
  426loPI   C5A 6811   0.593   8.935   8.094 -0.2274  0.2126 -0.1214
  426loPI   C6A 6812   0.809   9.029   7.800  0.2999 -0.2680 -0.0750
  426loPI   C1B 6813   0.763   8.397   9.739 -0.0298 -0.0682  0.0008
  426loPI   C2B 6814   0.757   8.486   9.342 -0.2024 -0.1054  0.1183
  426loPI   C3B 6815   0.781   8.404   8.911  0.1191  0.2431 -0.0320
  426loPI   C4B 6816   0.905   8.327   8.536 -0.2483  0.0589  0.3459
  427loPI    C1 6817   7.961  12.934  10.225  0.2179 -0.1350  0.1234
  427loPI    C2 6818   7.630  12.749  10.353  0.1309 -0.0468  0.0282
  427loPI    C3 6819   7.964  12.739  10.574 -0.0138  0.0958  0.2573
  427loPI   PO4 6820   8.101  12.860   9.964 -0.2584  0.1175 -0.1244
  427loPI   GL1 6821   8.249  12.857   9.562 -0.2227  0.1540 -0.1871
  427loPI   GL2 6822   7.945  12.672   9.469  0.0601 -0.1352 -0.0501
  427loPI   C1A 6823   8.416  12.845   9.153  0.1600  0.1929 -0.0905
  427loPI   C2A 6824   8.440  12.834   8.718  0.5840 -0.2865 -0.1508
  427loPI   C3A 6825   8.516  12.604   8.346 -0.0461  0.2742 -0.2989
  427loPI   C4A 6826   8.563  12.478   7.878  0.0082  0.0039 -0.2030
  427loPI   C5A 6827   8.989  12.431   7.614  0.0415  0.2060  0.0584
  427loPI   C6A 6828   9.295  12.642   7.432 -0.0861 -0.2865  0.1967
  427loPI   C1B 6829   7.817  12.485   9.084  0.0736 -0.0308  0.4191
  427loPI   C2B 6830   7.769  12.299   8.699  0.0136  0.1370 -0.1868
  427loPI   C3B 6831   7.727  12.216   8.281  0.1962  0.3314 -0.2295
  427loPI   C4B 6832   7.722  12.178   8.009  0.3209  0.0315  0.1943
  428loPI    C1 6833   1.890   9.442  10.987 -0.0118 -0.0530 -0.1417
  428loPI    C2 6834   2.113   9.111  10.960  0.1332  0.0290  0.0336
  428loPI    C3 6835   2.158   9.359  11.271 -0.3364 -0.0500  0.1729
  428loPI   PO4 6836   1.875   9.475  10.725  0.2696  0.1430  0.1715
  428loPI   GL1 6837   1.720   9.647  10.274  0.0100  0.1114  0.1812
  428loPI   GL2 6838   1.907   9.560  10.216  0.0681  0.1521 -0.2486
  428loPI   C1A 6839   1.724   9.801   9.856  0.2644  0.5530 -0.4831
  428loPI   C2A 6840   1.725   9.860   9.471  0.0069 -0.0932  0.1272
  428loPI   C3A 6841   1.678   9.789   9.079 -0.3310  0.3948 -0.0049
  428loPI   C4A 6842   1.610   9.738   8.610  0.1341  0.0187 -0.2829
  428loPI   C5A 6843   1.644   9.669   8.126  0.2337 -0.2243  0.0456
  428loPI   C6A 6844   1.927   9.658   7.793  0.0994 -0.1484 -0.1505
  428loPI   C1B 6845   1.885   9.336   9.894  0.0362 -0.1367  0.0852
  428loPI   C2B 6846   1.925   9.342   9.460  0.1088 -0.2744  0.2081
  428loPI   C3B 6847   1.971   9.210   9.066 -0.2007  0.1278  0.3011
  428loPI   C4B 6848   1.834   9.190   8.645  0.2388 -0.1864  0.1089
  429loPI    C1 6849   5.590   1.522  10.221 -0.0377  0.0009  0.0023
  429loPI    C2 6850   5.336   1.465  10.524 -0.1196  0.0865 -0.0496
  429loPI    C3 6851   5.727   1.396  10.575 -0.1877 -0.3278 -0.0525
  429loPI   PO4 6852   5.485   1.400   9.994  0.3477  0.1459  0.1456
  429loPI   GL1 6853   5.371   1.434   9.559  0.0447 -0.0538  0.3446
  429loPI   GL2 6854   5.085   1.452   9.536  0.0246  0.2991  0.0464
  429loPI   C1A 6855   5.597   1.399   9.146 -0.2457 -0.2998  0.0190
  429loPI   C2A 6856   5.593   1.199   8.679  0.3196 -0.2653 -0.0080
  429loPI   C3A 6857   5.484   1.080   8.212  0.0332  0.0217 -0.2353
  429loPI   C4A 6858   5.372   1.053   7.726 -0.0858  0.3678 -0.0738
  429loPI   C5A 6859   5.042   0.922   7.540  0.0295 -0.1339  0.1597
  429loPI   C6A 6860   4.687   0.611   7.334 -0.1882 -0.2222 -0.1345
  429loPI   C1B 6861   5.051   1.613   9.116  0.0628  0.2101  0.1820
  429loPI   C2B 6862   5.056   1.473   8.657  0.0482 -0.3957 -0.1074
  429loPI   C3B 6863   5.090   1.446   8.286 -0.0769  0.0059  0.0166
  429loPI   C4B 6864   4.970   1.143   8.021 -0.5053  0.0892 -0.1648
  430loPI    C1 6865  18.452   0.738  10.269  0.0309  0.2928 -0.1369
  430loPI    C2 6866  18.664   0.809  10.601  0.2869  0.0005 -0.2332
  430loPI    C3 6867  18.383   1.068  10.484  0.0051 -0.0218  0.3558
  430loPI   PO4 6868  18.630   0.717   9.995  0.1526 -0.0363 -0.1256
  430loPI   GL1 6869  18.611   0.713   9.616  0.1943  0.0021 -0.0039
  430loPI   GL2 6870  18.531   0.976   9.537  0.1144 -0.0444 -0.0366
  430loPI   C1A 6871  18.748   0.547   9.287  0.1731 -0.0477 -0.0418
  430loPI   C2A 6872  18.835   0.626   8.909 -0.0115  0.2912 -0.0615
  430loPI   C3A 6873  19.028   0.407   8.501 -0.3854 -0.1398  0.3972
  430loPI   C4A 6874  19.297   0.279   8.086  0.0116 -0.2539 -0.1004
  430loPI   C5A 6875  19.484   0.173   7.849 -0.2849  0.2621  0.1099
  430loPI   C6A 6876  19.703   0.132   7.452  0.0506 -0.0149  0.2597
  430loPI   C1B 6877  18.839   1.115   9.235  0.1364 -0.1429  0.0836
  430loPI   C2B 6878  18.767   1.101   8.760  0.0494  0.0006  0.4603
  430loPI   C3B 6879  18.633   1.143   8.320 -0.0991 -0.0938 -0.0751
  430loPI   C4B 6880  18.725   1.044   7.974  0.2765 -0.2165  0.1219
  431loPI    C1 6881  18.231  12.181  10.175 -0.0413  0.0257 -0.0288
  431loPI    C2 6882  18.371  11.855   9.991 -0.0549  0.1861 -0.3288
  431loPI    C3 6883  18.606  12.175  10.036 -0.0093  0.1036  0.0535
  431loPI   PO4 6884  18.052  12.292  10.037 -0.0079 -0.2205  0.3654
  431loPI   GL1 6885  18.162  12.401   9.561  0.1823  0.0348  0.0038
  431loPI   GL2 6886  18.393  12.170   9.552  0.1189  0.0308 -0.2376
  431loPI   C1A 6887  18.070  12.394   9.102 -0.1580 -0.1696  0.0091
  431loPI   C2A 6888  18.123  12.267   8.646 -0.1352 -0.3467 -0.0090
  431loPI   C3A 6889  18.384  12.379   8.315 -0.2536  0.0405  0.1860
  431loPI   C4A 6890  18.724  12.335   8.003  0.4784  0.0502  0.0359
  431loPI   C5A 6891  19.085  12.228   7.755 -0.2265 -0.0029  0.0194
  431loPI   C6A 6892  19.533  12.146   7.743  0.1763  0.1091 -0.1523
  431loPI   C1B 6893  18.424  12.048   9.166 -0.1536 -0.0639  0.1658
  431loPI   C2B 6894  18.507  12.087   8.833 -0.2617 -0.0053  0.2192
  431loPI   C3B 6895  18.759  12.038   8.465  0.0910 -0.3108  0.1414
  431loPI   C4B 6896  19.101  11.994   8.548  0.0834  0.2474 -0.2229
  432loPI    C1 6897   5.215  17.947  10.090 -0.3597  0.1877 -0.0434
  432loPI    C2 6898   5.180  18.282   9.874  0.1661  0.0325 -0.3895
  432loPI    C3 6899   5.354  18.294  10.234 -0.0773  0.1735 -0.2733
  432loPI   PO4 6900   5.296  17.725   9.888 -0.2254 -0.0150  0.1827
  432loPI   GL1 6901   4.997  17.499   9.488  0.1597 -0.0222 -0.1156
  432loPI   GL2 6902   4.653  17.474   9.487 -0.1221 -0.1059 -0.1045
  432loPI   C1A 6903   5.308  17.391   9.222 -0.2264 -0.3093 -0.0085
  432loPI   C2A 6904   5.345  17.434   8.843  0.1330  0.1761  0.1464
  432loPI   C3A 6905   5.265  17.380   8.493  0.2482 -0.1485  0.0250
  432loPI   C4A 6906   5.214  17.404   8.066 -0.1205 -0.0810  0.1291
  432loPI   C5A 6907   5.146  17.328   7.640  0.2059 -0.0512 -0.0206
  432loPI   C6A 6908   4.998  16.919   7.413  0.4177  0.1776  0.3256
  432loPI   C1B 6909   4.787  17.552   9.068 -0.1936  0.0775  0.2183
  432loPI   C2B 6910   4.845  17.485   8.654 -0.1325  0.1904 -0.1191
  432loPI   C3B 6911   4.685  17.541   8.266 -0.2255  0.0284  0.1600
  432loPI   C4B 6912   4.590  17.548   7.812  0.0400 -0.0732  0.3891
  433loPI    C1 6913  18.315   9.501  10.407  0.1509 -0.2139  0.1942
  433loPI    C2 6914  18.219   9.855  10.566 -0.1753 -0.1920 -0.0425
  433loPI    C3 6915  18.132   9.518  10.762 -0.4472 -0.1603 -0.1050
  433loPI   PO4 6916  18.256   9.602  10.148  0.1313 -0.0368 -0.0857
  433loPI   GL1 6917  18.494   9.591   9.758  0.1582  0.2013 -0.1284
  433loPI   GL2 6918  18.310   9.890   9.729 -0.2049 -0.0523  0.1337
  433loPI   C1A 6919  18.471   9.459   9.267  0.1343 -0.0687  0.1528
  433loPI   C2A 6920  18.532   9.426   8.878 -0.0747  0.0825  0.0196
  433loPI   C3A 6921  18.443   9.400   8.513 -0.0403  0.1082 -0.1228
  433loPI   C4A 6922  18.513   9.237   8.130 -0.0483 -0.1833  0.0933
  433loPI   C5A 6923  18.231   9.200   7.811  0.1736 -0.1937  0.0176
  433loPI   C6A 6924  18.162   9.514   7.457  0.1118 -0.4013 -0.0648
  433loPI   C1B 6925  18.208   9.899   9.297 -0.0705  0.3147 -0.1666
  433loPI   C2B 6926  18.205   9.799   8.944 -0.0365  0.1937 -0.0944
  433loPI   C3B 6927  18.171   9.829   8.541  0.2576 -0.1496 -0.1579
  433loPI   C4B 6928  17.891   9.851   8.226 -0.1388  0.0933  0.4519
  434loPI    C1 6929  10.330  13.200   9.953 -0.0368  0.2028 -0.2096
  434loPI    C2 6930  10.523  12.879  10.091 -0.0521  0.0744 -0.4813
  434loPI    C3 6931  10.176  12.835   9.897 -0.3828  0.3050  0.0367
  434loPI   PO4 6932  10.495  13.322   9.871  0.1055 -0.4299 -0.1935
  434loPI   GL1 6933  10.455  13.529   9.433  0.1376  0.1501  0.0962
  434loPI   GL2 6934  10.565  13.225   9.350 -0.2544 -0.4234  0.2786
  434loPI   C1A 6935  10.324  13.663   9.056 -0.5516  0.2984 -0.1711
  434loPI   C2A 6936  10.435  13.758   8.591  0.4131  0.1289  0.3755
  434loPI   C3A 6937  10.307  13.640   8.245 -0.2567  0.2918  0.2438
  434loPI   C4A 6938  10.228  13.426   7.869  0.3421 -0.0894  0.2863
  434loPI   C5A 6939  10.243  13.404   7.543  0.3521 -0.0979 -0.1127
  434loPI   C6A 6940   9.934  13.374   7.094  0.1382  0.1926 -0.3246
  434loPI   C1B 6941  10.743  13.077   8.996 -0.0284  0.3213 -0.0624
  434loPI   C2B 6942  10.880  12.876   8.652  0.0865 -0.2016 -0.0527
  434loPI   C3B 6943  10.992  12.841   8.208 -0.1501 -0.1281 -0.1287
  434loPI   C4B 6944  11.307  12.974   7.915 -0.1100  0.1409  0.3733
  435loPI    C1 6945   5.406   2.439  10.299  0.1872 -0.2317  0.0680
  435loPI    C2 6946   5.070   2.281  10.449  0.0063  0.0548 -0.0259
  435loPI    C3 6947   5.359   2.408  10.695 -0.0741  0.0641  0.0642
  435loPI   PO4 6948   5.413   2.202  10.066 -0.1475 -0.0530  0.1233
  435loPI   GL1 6949   5.624   2.125   9.676  0.1433  0.2831 -0.1699
  435loPI   GL2 6950   5.510   1.847   9.729 -0.1385 -0.3125  0.0343
  435loPI   C1A 6951   5.675   2.363   9.313 -0.0101 -0.0716 -0.1662
  435loPI   C2A 6952   5.622   2.322   8.850 -0.1069 -0.1980  0.1558
  435loPI   C3A 6953   5.423   2.266   8.467  0.2860 -0.1501  0.1084
  435loPI   C4A 6954   5.273   1.942   8.293  0.1774  0.2240 -0.0666
  435loPI   C5A 6955   5.270   1.988   7.921  0.2660 -0.1016  0.0764
  435loPI   C6A 6956   5.547   1.953   7.528 -0.2004 -0.0549 -0.1290
  435loPI   C1B 6957   5.472   1.897   9.175 -0.0073 -0.3360  0.2295
  435loPI   C2B 6958   5.469   1.707   8.736 -0.2053 -0.2710 -0.0365
  435loPI   C3B 6959   5.593   1.552   8.295 -0.2785 -0.1131 -0.0267
  435loPI   C4B 6960   5.429   1.531   7.892 -0.1629 -0.2117 -0.2494
  436loPI    C1 6961   4.322  13.605  10.372 -0.0788  0.0159  0.1262
  436loPI    C2 6962   4.042  13.788  10.592 -0.0651 -0.0045  0.1609
  436loPI    C3 6963   4.422  13.784  10.716 -0.0969 -0.2187  0.2560
  436loPI   PO4 6964   4.291  13.761  10.147 -0.0575 -0.0841 -0.3152
  436loPI   GL1 6965   4.568  13.687   9.813 -0.0383  0.2090  0.0581
  436loPI   GL2 6966   4.346  13.832   9.596 -0.0275 -0.0507  0.0753
  436loPI   C1A 6967   4.685  13.523   9.376 -0.2273  0.3856  0.0795
  436loPI   C2A 6968   4.685  13.701   8.969 -0.4750  0.0478  0.0422
  436loPI   C3A 6969   4.678  13.685   8.524 -0.5609  0.4187 -0.0111
  436loPI   C4A 6970   4.624  13.719   8.042 -0.0189  0.0362 -0.4058
  436loPI   C5A 6971   4.786  13.816   7.667  0.0964 -0.1018  0.0373
  436loPI   C6A 6972   5.191  14.109   7.632 -0.1439 -0.2090 -0.0445
  436loPI   C1B 6973   4.117  13.819   9.232  0.0670  0.0783 -0.2696
  436loPI   C2B 6974   4.220  13.872   8.790 -0.2283  0.1410  0.1615
  436loPI   C3B 6975   4.284  13.861   8.337 -0.1126 -0.3826 -0.5415
  436loPI   C4B 6976   4.385  14.148   7.961 -0.0722 -0.3231  0.3558
  437loPI    C1 6977  11.178  15.784  10.074  0.1584  0.2376 -0.0427
  437loPI    C2 6978  11.332  16.153  10.073  0.3359  0.1646 -0.0152
  437loPI    C3 6979  11.103  16.032  10.378 -0.1405  0.4208 -0.2607
  437loPI   PO4 6980  11.167  15.773   9.770  0.1805 -0.2100 -0.1441
  437loPI   GL1 6981  11.418  16.072   9.519 -0.0281 -0.0550  0.1667
  437loPI   GL2 6982  11.742  16.176   9.595  0.1973 -0.1115  0.1528
  437loPI   C1A 6983  11.520  15.904   9.016 -0.1502  0.0231 -0.1606
  437loPI   C2A 6984  11.611  15.884   8.587  0.0583  0.1130  0.2308
  437loPI   C3A 6985  11.535  16.010   8.154 -0.1005 -0.0016 -0.3527
  437loPI   C4A 6986  11.297  16.025   7.654  0.3716 -0.1257  0.0500
  437loPI   C5A 6987  10.797  15.898   7.479  0.1216 -0.0182  0.0724
  437loPI   C6A 6988  10.442  15.723   7.211  0.0893  0.0284 -0.1943
  437loPI   C1B 6989  11.845  16.260   9.180  0.3483  0.0500 -0.3560
  437loPI   C2B 6990  12.030  16.148   8.750  0.1990 -0.0443 -0.0773
  437loPI   C3B 6991  12.090  16.203   8.369 -0.2069 -0.0372  0.0617
  437loPI   C4B 6992  12.403  16.312   8.087  0.1106  0.1650  0.1307
  438loPI    C1 6993   8.084   8.871  10.645  0.2295  0.0738  0.1549
  438loPI    C2 6994   7.920   9.236  10.654 -0.0816 -0.0490 -0.2594
  438loPI    C3 6995   8.289   9.186  10.509  0.0403  0.1255 -0.0154
  438loPI   PO4 6996   7.914   8.690  10.500 -0.0426 -0.1525 -0.2306
  438loPI   GL1 6997   7.956   8.634  10.077 -0.2103 -0.0239  0.3291
  438loPI   GL2 6998   7.675   8.703   9.979  0.0489 -0.1541  0.1245
  438loPI   C1A 6999   8.121   8.591   9.744 -0.1383  0.0855  0.0690
  438loPI   C2A 7000   8.032   8.680   9.256  0.1368  0.0006  0.1413
  438loPI   C3A 7001   8.003   8.629   8.794 -0.0008 -0.1026  0.1148
  438loPI   C4A 7002   8.118   8.564   8.314 -0.3797 -0.1315 -0.3408
  438loPI   C5A 7003   8.433   8.348   7.944 -0.0138  0.1240 -0.0313
  438loPI   C6A 7004   8.837   8.403   7.841  0.1009 -0.1399  0.1436
  438loPI   C1B 7005   7.566   8.622   9.529  0.0828  0.0143 -0.0271
  438loPI   C2B 7006   7.557   8.605   9.083  0.0982 -0.2057 -0.1186
  438loPI   C3B 7007   7.397   8.644   8.674 -0.1326  0.3832 -0.1670
  438loPI   C4B 7008   7.344   8.504   8.229 -0.0000 -0.0261  0.0443
  439loPI    C1 7009   2.183  16.431   9.968 -0.3694 -0.1063  0.1939
  439loPI    C2 7010   2.472  16.167  10.051 -0.0638  0.0783 -0.2487
  439loPI    C3 7011   2.457  16.516  10.246  0.0219  0.0747 -0.2351
  439loPI   PO4 7012   2.065  16.318   9.799  0.1962 -0.0962  0.0147
  439loPI   GL1 7013   1.838  16.486   9.344  0.0466 -0.0299  0.0443
  439loPI   GL2 7014   2.115  16.176   9.283  0.0580  0.0860 -0.4129
  439loPI   C1A 7015   1.730  16.591   8.908  0.0267  0.2333  0.4102
  439loPI   C2A 7016   1.824  16.595   8.519 -0.0177 -0.0102  0.1104
  439loPI   C3A 7017   1.659  16.462   8.096 -0.5601 -0.2062  0.0016
  439loPI   C4A 7018   1.367  16.372   7.895 -0.1729  0.2584 -0.4230
  439loPI   C5A 7019   1.194  16.170   7.525  0.1652 -0.0131 -0.0072
  439loPI   C6A 7020   0.877  16.192   7.098  0.0034 -0.1748  0.3227
  439loPI   C1B 7021   2.297  16.249   8.941 -0.0732 -0.1117  0.1864
  439loPI   C2B 7022   2.360  16.192   8.557  0.1856  0.0218  0.1596
  439loPI   C3B 7023   2.087  16.211   8.208  0.2364 -0.0642  0.1238
  439loPI   C4B 7024   2.123  16.443   7.901  0.2097  0.0094  0.1886
  440loPI    C1 7025  12.532   6.782  10.083  0.0608  0.1750  0.2068
  440loPI    C2 7026  12.854   6.993  10.192  0.1023  0.2214 -0.0013
  440loPI    C3 7027  12.750   6.666  10.399  0.2787  0.2099  0.0715
  440loPI   PO4 7028  12.585   6.793   9.786  0.0752  0.2481  0.2539
  440loPI   GL1 7029  12.414   6.646   9.498  0.0455 -0.0535 -0.1722
  440loPI   GL2 7030  12.356   6.280   9.607  0.0392  0.2101  0.0139
  440loPI   C1A 7031  12.540   6.807   9.059 -0.2440 -0.1805  0.1523
  440loPI   C2A 7032  12.510   6.990   8.660 -0.2819  0.2873 -0.0922
  440loPI   C3A 7033  12.373   7.273   8.225 -0.0842  0.1113 -0.0632
  440loPI   C4A 7034  12.129   7.220   7.714 -0.1661 -0.3732  0.2516
  440loPI   C5A 7035  11.873   6.968   7.615 -0.2579 -0.2639 -0.1541
  440loPI   C6A 7036  12.077   6.555   7.550 -0.1376 -0.0705  0.1267
  440loPI   C1B 7037  12.262   6.392   9.117 -0.2572  0.1579  0.1897
  440loPI   C2B 7038  12.217   6.435   8.719  0.2582 -0.0552 -0.2561
  440loPI   C3B 7039  12.128   6.347   8.158 -0.0223 -0.0244 -0.0209
  440loPI   C4B 7040  12.356   6.248   7.797 -0.0133 -0.0988  0.1080
  441loPI    C1 7041  14.425   3.247   9.695 -0.0256 -0.2866 -0.0606
  441loPI    C2 7042  14.631   3.220  10.037 -0.0395 -0.1899 -0.0444
  441loPI    C3 7043  14.787   3.415   9.724 -0.1481 -0.0287  0.0009
  441loPI   PO4 7044  14.363   2.998   9.654  0.1519  0.2261 -0.1101
  441loPI   GL1 7045  14.020   2.731   9.380 -0.0585  0.0802 -0.2368
  441loPI   GL2 7046  14.208   2.786   9.174  0.1254 -0.0380 -0.0794
  441loPI   C1A 7047  13.771   2.575   9.070  0.4018  0.1819 -0.1216
  441loPI   C2A 7048  13.642   2.528   8.677  0.0123  0.2548 -0.1435
  441loPI   C3A 7049  13.480   2.382   8.299 -0.1206  0.4274  0.3174
  441loPI   C4A 7050  13.137   2.299   7.996 -0.0051  0.2801 -0.4079
  441loPI   C5A 7051  12.985   2.171   7.611 -0.1846  0.0634 -0.2280
  441loPI   C6A 7052  12.811   1.889   7.489 -0.0395  0.1350 -0.0268
  441loPI   C1B 7053  14.208   2.534   8.863 -0.2406 -0.3129  0.0531
  441loPI   C2B 7054  14.071   2.369   8.573 -0.0112 -0.1545 -0.1609
  441loPI   C3B 7055  13.977   2.296   8.204 -0.0576  0.0376 -0.0402
  441loPI   C4B 7056  13.870   2.331   7.795 -0.0178 -0.0297 -0.1013
  442loPI    C1 7057  17.529   6.488  10.519  0.1339 -0.0892  0.2561
  442loPI    C2 7058  17.332   6.832  10.465  0.3792  0.0277  0.0848
  442loPI    C3 7059  17.229   6.587  10.764 -0.1594 -0.0143 -0.1244
  442loPI   PO4 7060  17.450   6.377  10.213  0.0338 -0.1958 -0.3263
  442loPI   GL1 7061  17.404   6.229   9.824  0.0343  0.0703  0.0967
  442loPI   GL2 7062  17.167   6.351   9.667  0.0470  0.0323  0.2010
  442loPI   C1A 7063  17.543   6.122   9.436 -0.0847  0.0991 -0.1329
  442loPI   C2A 7064  17.586   6.200   8.922 -0.4839 -0.3788 -0.1730
  442loPI   C3A 7065  17.487   6.212   8.603 -0.1390 -0.2122 -0.0283
  442loPI   C4A 7066  17.557   6.205   8.173  0.1520  0.0413  0.1563
  442loPI   C5A 7067  17.626   6.133   7.690  0.1391  0.1291  0.1027
  442loPI   C6A 7068  17.587   5.966   7.253 -0.3040 -0.0484  0.3757
  442loPI   C1B 7069  17.279   6.501   9.166 -0.2763 -0.3171 -0.2943
  442loPI   C2B 7070  17.262   6.658   8.775  0.4104  0.5683  0.2674
  442loPI   C3B 7071  17.273   6.720   8.358  0.0761 -0.2235 -0.0403
  442loPI   C4B 7072  17.232   6.581   7.922  0.1366  0.0204  0.3566
  443loPI    C1 7073  12.275  13.271   9.728  0.2877 -0.1884 -0.0358
  443loPI    C2 7074  12.190  13.194  10.111  0.0070  0.0503 -0.0471
  443loPI    C3 7075  12.571  13.226   9.994  0.1031 -0.3068  0.1527
  443loPI   PO4 7076  12.059  13.151   9.599  0.0096 -0.2107 -0.0411
  443loPI   GL1 7077  12.073  13.132   9.214 -0.1956 -0.3569 -0.1332
  443loPI   GL2 7078  11.906  13.348   9.048  0.0482  0.3340  0.1353
  443loPI   C1A 7079  12.284  13.075   8.859  0.0330  0.2330  0.2435
  443loPI   C2A 7080  12.301  13.001   8.553  0.2594 -0.2386 -0.2235
  443loPI   C3A 7081  12.186  12.983   8.110  0.1764  0.1621 -0.0745
  443loPI   C4A 7082  12.261  12.800   7.665  0.0714 -0.0800  0.0709
  443loPI   C5A 7083  12.089  12.483   7.437  0.1304  0.3312 -0.1555
  443loPI   C6A 7084  11.997  12.324   7.059 -0.1786  0.2562 -0.3208
  443loPI   C1B 7085  11.967  13.340   8.582 -0.0273  0.2458  0.0980
  443loPI   C2B 7086  11.921  13.504   8.121 -0.0149 -0.2411  0.4963
  443loPI   C3B 7087  11.938  13.744   7.791 -0.3211 -0.2271 -0.3919
  443loPI   C4B 7088  12.303  13.739   7.500  0.0560  0.0146  0.3269
  444loPI    C1 7089  14.444   0.243   9.651  0.1579 -0.0055 -0.1592
  444loPI    C2 7090  14.551  -0.088   9.849 -0.0330 -0.0016 -0.0467
  444loPI    C3 7091  14.718   0.263   9.941 -0.2381  0.0285  0.2237
  444loPI   PO4 7092  14.195   0.110   9.581  0.0070 -0.0463 -0.2217
  444loPI   GL1 7093  13.977  -0.090   9.116  0.1111 -0.0003 -0.0172
  444loPI   GL2 7094  14.290  -0.016   9.093 -0.1237 -0.0181 -0.2400
  444loPI   C1A 7095  13.890   0.070   8.725  0.1192  0.5312 -0.4419
  444loPI   C2A 7096  13.900  -0.065   8.343 -0.0339  0.3454 -0.1955
  444loPI   C3A 7097  14.210  -0.064   8.048 -0.0187 -0.3106 -0.0152
  444loPI   C4A 7098  14.384  -0.003   7.621 -0.0495  0.0201  0.2473
  444loPI   C5A 7099  14.230   0.312   7.213  0.2698  0.2435  0.2263
  444loPI   C6A 7100  14.374   0.622   7.062  0.1089 -0.1164  0.0091
  444loPI   C1B 7101  14.332  -0.233   8.746 -0.0238 -0.0798 -0.1642
  444loPI   C2B 7102  14.412  -0.331   8.479  0.1845  0.0880 -0.2973
  444loPI   C3B 7103  14.453  -0.562   8.089  0.4327 -0.0702 -0.0495
  444loPI   C4B 7104  14.444  -0.579   7.714  0.1788 -0.0974  0.0373
  445loPI    C1 7105  15.971   0.664   9.828  0.1885  0.0347  0.0516
  445loPI    C2 7106  16.219   0.439   9.609 -0.0281 -0.3282  0.1693
  445loPI    C3 7107  16.243   0.432  10.008  0.1681  0.1032  0.1711
  445loPI   PO4 7108  15.783   0.718   9.635  0.0417 -0.0049 -0.1294
  445loPI   GL1 7109  15.637   0.715   9.251 -0.0253  0.0591 -0.1477
  445loPI   GL2 7110  15.963   0.619   9.180 -0.1673  0.1586 -0.0633
  445loPI   C1A 7111  15.608   0.633   8.804 -0.0554 -0.0428  0.1699
  445loPI   C2A 7112  15.509   0.609   8.406  0.1681  0.0658  0.1703
  445loPI   C3A 7113  15.414   0.426   7.907 -0.2810 -0.1794  0.3164
  445loPI   C4A 7114  15.353   0.355   7.513  0.1936  0.5271  0.3393
  445loPI   C5A 7115  15.120   0.538   7.212 -0.4655  0.0919 -0.3014
  445loPI   C6A 7116  14.962   0.757   6.922 -0.2468  0.0376  0.4905
  445loPI   C1B 7117  16.083   0.505   8.726 -0.0208  0.1228 -0.1455
  445loPI   C2B 7118  15.945   0.754   8.399 -0.0176 -0.1489 -0.1852
  445loPI   C3B 7119  15.843   0.890   8.030 -0.1105 -0.3813  0.1663
  445loPI   C4B 7120  15.718   0.900   7.545 -0.1401  0.1585 -0.3416
  446loPI    C1 7121   3.612  10.604  10.635 -0.2824  0.1114 -0.0551
  446loPI    C2 7122   3.280  10.556  10.854 -0.2473  0.2635  0.0325
  446loPI    C3 7123   3.625  10.653  11.032 -0.1039 -0.1142 -0.0311
  446loPI   PO4 7124   3.442  10.571  10.361  0.0934  0.0055 -0.1179
  446loPI   GL1 7125   3.426  10.834  10.067 -0.0710 -0.1184 -0.0739
  446loPI   GL2 7126   3.072  10.849  10.064 -0.0387 -0.2915  0.1666
  446loPI   C1A 7127   3.294  10.753   9.643 -0.0266 -0.2780  0.0626
  446loPI   C2A 7128   3.375  10.595   9.276 -0.0913  0.3313 -0.2240
  446loPI   C3A 7129   3.302  10.477   8.869 -0.1710  0.0006 -0.0267
  446loPI   C4A 7130   3.243  10.553   8.513 -0.3594 -0.1112  0.1992
  446loPI   C5A 7131   3.144  10.356   8.114 -0.0741 -0.1952 -0.2944
  446loPI   C6A 7132   3.218  10.013   7.846 -0.0917  0.1483  0.0747
  446loPI   C1B 7133   2.792  10.805   9.718 -0.0995  0.1993  0.1206
  446loPI   C2B 7134   2.866  10.653   9.382  0.0941  0.2109  0.2647
  446loPI   C3B 7135   2.843  10.556   8.989  0.1347  0.1222  0.0104
  446loPI   C4B 7136   2.662  10.576   8.565  0.0808  0.0942  0.0049
  447loPI    C1 7137  12.880   3.805  10.255 -0.0370 -0.1211 -0.2271
  447loPI    C2 7138  13.140   3.505  10.201 -0.0310 -0.1426 -0.0834
  447loPI    C3 7139  12.985   3.572  10.563  0.0091  0.0622 -0.1027
  447loPI   PO4 7140  12.744   3.818  10.034  0.1501 -0.0935  0.2461
  447loPI   GL1 7141  12.774   3.753   9.547  0.0103 -0.0585 -0.1023
  447loPI   GL2 7142  13.056   3.759   9.383 -0.0343 -0.1300 -0.1087
  447loPI   C1A 7143  12.732   4.014   9.088  0.4560 -0.3744  0.1082
  447loPI   C2A 7144  12.626   4.139   8.800  0.1445  0.0321  0.2120
  447loPI   C3A 7145  12.938   4.021   8.425  0.0377 -0.0315  0.2470
  447loPI   C4A 7146  13.055   3.934   7.838  0.2688  0.0491 -0.0279
  447loPI   C5A 7147  13.214   4.026   7.387 -0.2036  0.1244 -0.1689
  447loPI   C6A 7148  13.519   4.290   7.257  0.2811  0.3943 -0.0542
  447loPI   C1B 7149  13.212   3.872   8.948  0.0587  0.2447  0.3545
  447loPI   C2B 7150  13.418   3.975   8.597  0.0682  0.1202 -0.0315
  447loPI   C3B 7151  13.335   3.869   8.189 -0.0180  0.2062 -0.4280
  447loPI   C4B 7152  13.460   3.656   7.801 -0.3131  0.1066  0.2045
  448loPI    C1 7153  16.859  13.741  10.078  0.1463  0.0968 -0.0596
  448loPI    C2 7154  16.464  13.718  10.136  0.1787  0.1873  0.2116
  448loPI    C3 7155  16.672  13.389  10.044  0.0654  0.1087  0.2347
  448loPI   PO4 7156  16.838  14.054   9.903 -0.1453  0.0634 -0.1345
  448loPI   GL1 7157  16.686  14.161   9.442 -0.1949  0.2763 -0.2267
  448loPI   GL2 7158  17.046  14.004   9.405  0.2820 -0.1949 -0.0427
  448loPI   C1A 7159  16.438  14.222   9.091 -0.1006  0.2132  0.0374
  448loPI   C2A 7160  16.294  14.227   8.646 -0.0271  0.2970  0.2172
  448loPI   C3A 7161  16.205  14.160   8.320 -0.0808  0.1546  0.1780
  448loPI   C4A 7162  16.253  14.271   7.993 -0.0924  0.1027 -0.1834
  448loPI   C5A 7163  16.394  14.288   7.643  0.0677  0.0007  0.2564
  448loPI   C6A 7164  16.553  14.656   7.581  0.2009 -0.3358 -0.1416
  448loPI   C1B 7165  17.169  13.772   9.100  0.0812  0.2159 -0.0502
  448loPI   C2B 7166  17.273  13.843   8.691  0.1121 -0.1753  0.0995
  448loPI   C3B 7167  17.271  13.885   8.249  0.2479  0.0023 -0.2232
  448loPI   C4B 7168  17.377  13.795   7.809 -0.2316 -0.1177 -0.0402
  449loPI    C1 7169   0.197  11.134  10.653 -0.1990  0.2885  0.0489
  449loPI    C2 7170   0.301  11.327  10.987  0.0762  0.0253  0.1190
  449loPI    C3 7171  -0.055  11.147  10.963  0.0458  0.0652  0.2616
  449loPI   PO4 7172   0.450  10.972  10.450 -0.0388  0.2754 -0.2131
  449loPI   GL1 7173   0.704  11.030  10.077  0.1646  0.0733 -0.2422
  449loPI   GL2 7174   0.905  11.319   9.814  0.1217  0.2826 -0.0251
  449loPI   C1A 7175   0.695  10.806   9.654  0.3207  0.0377 -0.1940
  449loPI   C2A 7176   0.689  10.734   9.219  0.1312  0.1038  0.1669
  449loPI   C3A 7177   0.568  10.772   8.775  0.1475  0.0797 -0.0575
  449loPI   C4A 7178   0.573  10.836   8.311 -0.2444 -0.0917 -0.0029
  449loPI   C5A 7179   0.743  10.775   7.894  0.2695 -0.3254  0.0147
  449loPI   C6A 7180   0.731  11.212   7.713  0.1161 -0.0643 -0.1007
  449loPI   C1B 7181   0.891  11.205   9.412  0.1601  0.2694  0.3396
  449loPI   C2B 7182   0.872  11.166   8.962 -0.2079  0.0967 -0.0567
  449loPI   C3B 7183   0.905  11.115   8.538  0.2442  0.3298  0.1098
  449loPI   C4B 7184   1.025  11.165   8.120  0.2679 -0.0817  0.2264
  450loPI    C1 7185  18.431   4.826  10.720  0.0320 -0.1720  0.0051
  450loPI    C2 7186  18.738   5.024  10.882 -0.1759  0.2699 -0.1271
  450loPI    C3 7187  18.711   4.628  10.926  0.3871  0.2290 -0.0782
  450loPI   PO4 7188  18.469   4.840  10.418 -0.2345 -0.0155  0.0398
  450loPI   GL1 7189  18.695   4.782  10.100 -0.2391 -0.3097 -0.1993
  450loPI   GL2 7190  18.413   4.546   9.943 -0.3410  0.0693 -0.1190
  450loPI   C1A 7191  18.832   4.696   9.754 -0.1874  0.1420 -0.1458
  450loPI   C2A 7192  18.805   4.731   9.326 -0.1628  0.1526  0.0303
  450loPI   C3A 7193  18.751   4.733   8.939  0.1869 -0.4069  0.2030
  450loPI   C4A 7194  18.763   4.787   8.553 -0.1140  0.0625  0.0904
  450loPI   C5A 7195  18.760   5.058   8.134  0.2683  0.0450 -0.3286
  450loPI   C6A 7196  18.790   5.058   7.725  0.0414  0.0004  0.2123
  450loPI   C1B 7197  18.496   4.288   9.550  0.2020  0.1776  0.0274
  450loPI   C2B 7198  18.492   4.299   9.154  0.0424 -0.2942 -0.2361
  450loPI   C3B 7199  18.514   4.332   8.726  0.2600  0.0115  0.1199
  450loPI   C4B 7200  18.583   4.389   8.360 -0.0250  0.2925 -0.1848
  451loPI    C1 7201   8.660   0.844  10.242  0.1575  0.0278 -0.1857
  451loPI    C2 7202   8.286   0.962  10.322  0.1272 -0.0985 -0.1377
  451loPI    C3 7203   8.578   1.028  10.588  0.1720  0.1451 -0.2441
  451loPI   PO4 7204   8.647   0.601  10.074 -0.0416  0.3220  0.0499
  451loPI   GL1 7205   8.579   0.624   9.663  0.1643  0.0725 -0.2437
  451loPI   GL2 7206   8.383   0.373   9.456 -0.1024 -0.1049 -0.1088
  451loPI   C1A 7207   8.842   0.607   9.270  0.0099 -0.0388 -0.3967
  451loPI   C2A 7208   8.773   0.389   8.807 -0.1058  0.2307  0.0085
  451loPI   C3A 7209   8.996   0.139   8.539  0.2049  0.0287 -0.0368
  451loPI   C4A 7210   9.009   0.180   8.158 -0.0356 -0.1724 -0.2378
  451loPI   C5A 7211   9.193   0.170   7.680 -0.0527  0.0168  0.1563
  451loPI   C6A 7212   9.469  -0.014   7.475 -0.0297  0.0119 -0.1608
  451loPI   C1B 7213   8.377   0.527   9.007  0.0522 -0.1303  0.0731
  451loPI   C2B 7214   8.342   0.465   8.537  0.1214  0.1152 -0.3688
  451loPI   C3B 7215   8.406   0.247   8.193 -0.0184 -0.3039 -0.0198
  451loPI   C4B 7216   8.601   0.087   7.862 -0.2237 -0.0822 -0.0260
  452loPI    C1 7217   4.284  13.136  10.444 -0.2143 -0.2474  0.2160
  452loPI    C2 7218   4.541  13.315  10.692 -0.1028 -0.1760  0.0505
  452loPI    C3 7219   4.148  13.330  10.766 -0.0856  0.0298  0.1060
  452loPI   PO4 7220   4.386  12.978  10.341  0.0999  0.1891  0.0115
  452loPI   GL1 7221   4.552  12.778  10.010 -0.1532  0.2525  0.4032
  452loPI   GL2 7222   4.660  13.072   9.891 -0.2932 -0.0109  0.0622
  452loPI   C1A 7223   4.300  12.854   9.605  0.0332  0.0503 -0.3895
  452loPI   C2A 7224   4.232  12.867   9.172  0.1323 -0.0058  0.1037
  452loPI   C3A 7225   4.181  12.750   8.709 -0.0235  0.0254 -0.1833
  452loPI   C4A 7226   4.302  12.749   8.273  0.0598 -0.1202 -0.1124
  452loPI   C5A 7227   4.501  12.690   7.888  0.0308 -0.1004  0.2332
  452loPI   C6A 7228   4.798  12.409   7.782  0.1633  0.3592  0.0211
  452loPI   C1B 7229   4.748  13.003   9.456 -0.0809 -0.0900 -0.1735
  452loPI   C2B 7230   4.739  12.970   9.091 -0.1214  0.1235 -0.0208
  452loPI   C3B 7231   4.830  12.870   8.703 -0.0232  0.2831 -0.0262
  452loPI   C4B 7232   4.833  12.852   8.192 -0.5330 -0.2734  0.1404
  453loPI    C1 7233  11.841  10.429   9.970 -0.0806  0.0792  0.2703
  453loPI    C2 7234  11.696  10.178  10.246  0.2347 -0.3909  0.0222
  453loPI    C3 7235  12.056  10.345  10.297  0.1289 -0.1736  0.0718
  453loPI   PO4 7236  11.664  10.281   9.719  0.2590  0.0537 -0.1049
  453loPI   GL1 7237  11.755  10.181   9.431 -0.0565  0.0184  0.0845
  453loPI   GL2 7238  12.057  10.086   9.438  0.2585 -0.2167  0.3131
  453loPI   C1A 7239  11.708  10.190   9.076  0.3694  0.1227 -0.0629
  453loPI   C2A 7240  11.934  10.270   8.612  0.0763  0.2700  0.0043
  453loPI   C3A 7241  11.964  10.219   8.230  0.0040 -0.0780  0.0349
  453loPI   C4A 7242  12.099  10.221   7.828  0.0407 -0.3491  0.0321
  453loPI   C5A 7243  12.383  10.293   7.529  0.2177 -0.2966  0.1494
  453loPI   C6A 7244  12.596  10.429   7.159 -0.2602 -0.0631 -0.2327
  453loPI   C1B 7245  12.343  10.046   9.132 -0.1403 -0.1518 -0.0758
  453loPI   C2B 7246  12.374  10.080   8.718  0.3182 -0.0374  0.0858
  453loPI   C3B 7247  12.436   9.978   8.228  0.3300  0.2690 -0.2152
  453loPI   C4B 7248  12.698   9.943   7.841  0.0058 -0.0311 -0.1372
  454loPI    C1 7249   8.013   2.340  10.391 -0.0032  0.0611  0.1624
  454loPI    C2 7250   7.618   2.339  10.328 -0.0159  0.0186  0.2411
  454loPI    C3 7251   7.761   2.310  10.700  0.0631 -0.0754  0.2042
  454loPI   PO4 7252   8.130   2.257  10.119  0.1468  0.0462  0.2514
  454loPI   GL1 7253   8.088   2.363   9.616 -0.1260 -0.1077 -0.1584
  454loPI   GL2 7254   8.067   2.694   9.530  0.0480 -0.0437 -0.0901
  454loPI   C1A 7255   8.075   2.355   9.162 -0.1789 -0.2442  0.5362
  454loPI   C2A 7256   8.000   2.368   8.799 -0.0310 -0.3862 -0.1366
  454loPI   C3A 7257   7.819   2.502   8.351  0.1287 -0.0637 -0.1800
  454loPI   C4A 7258   7.851   2.533   7.863 -0.1825  0.0393 -0.0319
  454loPI   C5A 7259   7.523   2.564   7.553  0.3130 -0.2690  0.0444
  454loPI   C6A 7260   7.114   2.520   7.472 -0.2051 -0.1954  0.1170
  454loPI   C1B 7261   8.169   2.934   9.134  0.1661  0.1117  0.0788
  454loPI   C2B 7262   8.051   2.918   8.645  0.2270  0.3283  0.0781
  454loPI   C3B 7263   8.047   2.972   8.148  0.2271  0.1480  0.1681
  454loPI   C4B 7264   8.273   3.071   7.751 -0.1413 -0.1277  0.0056
  455loPI    C1 7265  16.235   6.242  10.456 -0.1247  0.0039  0.2446
  455loPI    C2 7266  16.354   6.608  10.561 -0.0483 -0.0399  0.3112
  455loPI    C3 7267  16.009   6.463  10.700 -0.1765  0.0835  0.1254
  455loPI   PO4 7268  16.266   6.268  10.123  0.1394 -0.0909 -0.1645
  455loPI   GL1 7269  16.660   6.484   9.889  0.1276 -0.3055 -0.1059
  455loPI   GL2 7270  16.627   6.758  10.061  0.0371  0.0505  0.2974
  455loPI   C1A 7271  16.719   6.414   9.293 -0.0317  0.0239 -0.2366
  455loPI   C2A 7272  16.832   6.394   8.970 -0.1016  0.3120  0.1812
  455loPI   C3A 7273  16.967   6.294   8.587  0.0166  0.0131 -0.0236
  455loPI   C4A 7274  16.889   6.202   8.331  0.0442  0.1289 -0.2722
  455loPI   C5A 7275  16.715   6.480   8.051  0.0680  0.3879 -0.4699
  455loPI   C6A 7276  16.858   6.665   7.603  0.1395 -0.0471  0.0761
  455loPI   C1B 7277  16.859   6.841   9.628 -0.4811 -0.1418  0.1598
  455loPI   C2B 7278  16.903   6.848   9.172  0.0830  0.3321  0.0623
  455loPI   C3B 7279  16.812   6.751   8.668  0.0760 -0.6012 -0.1717
  455loPI   C4B 7280  16.737   6.977   8.287 -0.1890  0.1754  0.2741
  456loPI    C1 7281  15.579   6.824  10.097  0.1955 -0.0732 -0.0824
  456loPI    C2 7282  15.587   6.707  10.479  0.1664 -0.1841 -0.1154
  456loPI    C3 7283  15.924   6.709  10.263  0.2139  0.0404 -0.0414
  456loPI   PO4 7284  15.358   6.606   9.985 -0.2121 -0.0352  0.4691
  456loPI   GL1 7285  15.291   6.803   9.558  0.3867 -0.1280 -0.1892
  456loPI   GL2 7286  14.999   6.849   9.604  0.1554 -0.1837 -0.0956
  456loPI   C1A 7287  15.349   6.667   9.143  0.0184  0.3064  0.0941
  456loPI   C2A 7288  15.502   6.821   8.769  0.0626 -0.0246  0.3184
  456loPI   C3A 7289  15.697   6.717   8.383  0.1250  0.0959 -0.0260
  456loPI   C4A 7290  15.932   6.523   7.949  0.0655  0.1871 -0.0812
  456loPI   C5A 7291  16.340   6.463   7.655 -0.1648  0.1148  0.0100
  456loPI   C6A 7292  16.597   6.263   7.340  0.0097 -0.0043 -0.2622
  456loPI   C1B 7293  14.875   6.706   9.119 -0.4823 -0.4096  0.0228
  456loPI   C2B 7294  14.993   6.845   8.769 -0.0181 -0.1042  0.3497
  456loPI   C3B 7295  14.731   6.917   8.440 -0.1770 -0.2441 -0.1265
  456loPI   C4B 7296  14.619   6.795   8.073 -0.2254  0.0872  0.0311
  457loPI    C1 7297   4.785   3.607  10.300 -0.0653  0.0144 -0.2248
  457loPI    C2 7298   4.803   3.259  10.497 -0.1283  0.2164  0.1474
  457loPI    C3 7299   4.876   3.602  10.690 -0.0235  0.4090 -0.2253
  457loPI   PO4 7300   4.564   3.583  10.179  0.1825 -0.0768  0.1750
  457loPI   GL1 7301   4.402   3.445   9.813  0.1170 -0.1301 -0.2748
  457loPI   GL2 7302   4.506   3.159   9.612 -0.0578  0.1350 -0.1895
  457loPI   C1A 7303   4.375   3.589   9.443  0.0136 -0.1412  0.0491
  457loPI   C2A 7304   4.282   3.632   9.055 -0.0462  0.0917 -0.3154
  457loPI   C3A 7305   4.280   3.740   8.771  0.0511 -0.0610 -0.2031
  457loPI   C4A 7306   4.375   3.859   8.412  0.0430  0.2192  0.1189
  457loPI   C5A 7307   4.368   3.875   8.018  0.2125  0.4135 -0.0120
  457loPI   C6A 7308   4.279   3.776   7.709 -0.3984  0.3046 -0.0773
  457loPI   C1B 7309   4.591   3.267   9.148 -0.0896  0.1989 -0.0777
  457loPI   C2B 7310   4.555   3.333   8.701 -0.1978  0.1737 -0.0008
  457loPI   C3B 7311   4.662   3.279   8.289 -0.2231  0.0982 -0.4457
  457loPI   C4B 7312   4.659   2.946   8.016 -0.0649  0.0440  0.1312
  458loPI    C1 7313   6.187  18.209  10.197 -0.0867  0.1343 -0.1973
  458loPI    C2 7314   5.853  18.358  10.359  0.0100  0.0100  0.1253
  458loPI    C3 7315   5.995  18.006  10.483  0.1694 -0.0188 -0.1309
  458loPI   PO4 7316   6.148  18.359   9.930  0.2361  0.6331  0.1929
  458loPI   GL1 7317   6.384  18.438   9.647 -0.1008 -0.0389 -0.0678
  458loPI   GL2 7318   6.686  18.420   9.686  0.0553  0.1526  0.1203
  458loPI   C1A 7319   6.387  18.241   9.235 -0.0973  0.0446  0.0296
  458loPI   C2A 7320   6.641  18.334   8.915 -0.0340  0.2526  0.2834
  458loPI   C3A 7321   6.859  18.349   8.534 -0.2303  0.0652 -0.1035
  458loPI   C4A 7322   6.861  18.280   8.088  0.1038 -0.2915 -0.1596
  458loPI   C5A 7323   7.060  18.422   7.683 -0.0299  0.0090 -0.1530
  458loPI   C6A 7324   7.275  18.642   7.549  0.2068 -0.0344  0.1961
  458loPI   C1B 7325   6.910  18.400   9.300 -0.0086  0.0548  0.0099
  458loPI   C2B 7326   7.133  18.299   8.998 -0.0479 -0.0790 -0.0153
  458loPI   C3B 7327   7.405  18.408   8.625 -0.1621  0.0427  0.1089
  458loPI   C4B 7328   7.395  18.416   8.166  0.0714 -0.2090  0.1574
  459loPI    C1 7329  15.066   8.074  10.229 -0.0760  0.0515  0.1504
  459loPI    C2 7330  15.339   7.971  10.502  0.0767 -0.0739 -0.0477
  459loPI    C3 7331  15.334   8.343  10.355 -0.1589  0.0653  0.3001
  459loPI   PO4 7332  15.084   7.973  10.057 -0.0679  0.3065 -0.5401
  459loPI   GL1 7333  15.339   8.047   9.676  0.1775 -0.4126  0.0719
  459loPI   GL2 7334  15.699   8.083   9.608 -0.0835 -0.2486  0.1815
  459loPI   C1A 7335  15.493   8.165   9.171 -0.1888 -0.1443  0.3320
  459loPI   C2A 7336  15.447   8.236   8.696  0.4641 -0.3934  0.3325
  459loPI   C3A 7337  15.362   8.343   8.261  0.0717  0.1884  0.2189
  459loPI   C4A 7338  14.994   8.383   7.880  0.2685  0.1585  0.1643
  459loPI   C5A 7339  14.612   8.035   7.809  0.0164  0.0916 -0.0007
  459loPI   C6A 7340  14.443   7.603   7.845  0.2907 -0.2951 -0.0397
  459loPI   C1B 7341  15.978   8.016   9.342  0.3026  0.1301 -0.0904
  459loPI   C2B 7342  16.123   7.740   8.987  0.2425  0.0926 -0.3654
  459loPI   C3B 7343  16.375   7.735   8.666 -0.1585 -0.1796 -0.2227
  459loPI   C4B 7344  16.341   7.945   8.262  0.1077  0.1946  0.1065
  460loPI    C1 7345  17.496  12.698  10.125 -0.0184 -0.1783 -0.1670
  460loPI    C2 7346  17.296  12.428  10.342  0.1038 -0.2046 -0.0855
  460loPI    C3 7347  17.366  12.793  10.491  0.0955 -0.1874 -0.1236
  460loPI   PO4 7348  17.383  12.687   9.891 -0.1116  0.0605 -0.0132
  460loPI   GL1 7349  17.480  12.792   9.410  0.0204  0.0853 -0.1208
  460loPI   GL2 7350  17.535  12.412   9.501 -0.2974  0.0619  0.1228
  460loPI   C1A 7351  17.338  12.877   9.050  0.4138  0.1549  0.1499
  460loPI   C2A 7352  17.243  12.857   8.670 -0.2847 -0.0843 -0.0240
  460loPI   C3A 7353  17.233  12.586   8.507 -0.0471  0.0221  0.2831
  460loPI   C4A 7354  17.251  12.497   8.074 -0.0291 -0.1089  0.0628
  460loPI   C5A 7355  16.806  12.520   7.875  0.1958  0.0852  0.2356
  460loPI   C6A 7356  16.357  12.670   7.666  0.1817 -0.1091 -0.3191
  460loPI   C1B 7357  17.598  12.371   9.134  0.2019 -0.0710 -0.3154
  460loPI   C2B 7358  17.662  12.456   8.823 -0.0078 -0.2010  0.0370
  460loPI   C3B 7359  17.726  12.199   8.393  0.3923  0.0657 -0.0398
  460loPI   C4B 7360  17.609  11.996   7.910 -0.1333 -0.0856 -0.0192
  461loPI    C1 7361   3.766  11.588  10.651  0.0359 -0.0196 -0.1975
  461loPI    C2 7362   4.064  11.465  10.414  0.1044 -0.0821 -0.0802
  461loPI    C3 7363   4.071  11.379  10.805  0.0360  0.0949 -0.0390
  461loPI   PO4 7364   3.550  11.485  10.551 -0.2038 -0.1273 -0.0536
  461loPI   GL1 7365   3.497  11.313  10.185  0.2924  0.1773  0.2381
  461loPI   GL2 7366   3.593  11.600  10.065  0.2036 -0.0311  0.0627
  461loPI   C1A 7367   3.479  11.208   9.754 -0.1070  0.0284 -0.1740
  461loPI   C2A 7368   3.543  11.141   9.344  0.0433  0.0329 -0.1259
  461loPI   C3A 7369   3.745  10.982   9.057  0.0755 -0.0435 -0.1354
  461loPI   C4A 7370   3.574  10.909   8.692  0.4445  0.2046 -0.1876
  461loPI   C5A 7371   3.459  11.171   8.294 -0.0656  0.4664 -0.0733
  461loPI   C6A 7372   3.604  11.365   7.954 -0.0890  0.3694 -0.1267
  461loPI   C1B 7373   3.688  11.637   9.631  0.0453  0.0449  0.1264
  461loPI   C2B 7374   3.985  11.504   9.306  0.0649  0.1136  0.1594
  461loPI   C3B 7375   4.015  11.444   8.921  0.0243  0.0396  0.1357
  461loPI   C4B 7376   3.858  11.378   8.465  0.3535 -0.1753  0.3745
  462loPI    C1 7377  14.511   3.743  10.220  0.2177 -0.2795 -0.0943
  462loPI    C2 7378  14.788   3.933  10.438 -0.0511  0.0826 -0.0580
  462loPI    C3 7379  14.734   3.539  10.482  0.0585  0.1096  0.3592
  462loPI   PO4 7380  14.517   3.814   9.985 -0.1763 -0.1676 -0.0481
  462loPI   GL1 7381  14.348   3.729   9.653  0.0187  0.0847 -0.0573
  462loPI   GL2 7382  14.304   3.952   9.500  0.2352 -0.2589 -0.2499
  462loPI   C1A 7383  14.585   3.593   9.276 -0.1196  0.0613  0.0110
  462loPI   C2A 7384  14.767   3.551   8.912 -0.2391  0.0026  0.3501
  462loPI   C3A 7385  14.756   3.424   8.530  0.0475 -0.1918  0.5513
  462loPI   C4A 7386  14.550   3.232   8.194 -0.2174 -0.1844 -0.0447
  462loPI   C5A 7387  14.501   3.052   7.686 -0.2036  0.2156 -0.0900
  462loPI   C6A 7388  14.417   2.745   7.369  0.0035  0.1217 -0.0698
  462loPI   C1B 7389  14.450   4.010   9.109  0.1948 -0.2063 -0.4536
  462loPI   C2B 7390  14.500   3.940   8.673 -0.0789 -0.1614 -0.1229
  462loPI   C3B 7391  14.299   3.791   8.257  0.0080 -0.2213  0.0789
  462loPI   C4B 7392  14.335   3.505   7.808  0.1624  0.3888 -0.1057
  463loPI    C1 7393   3.627   6.247  10.598  0.0068 -0.0365  0.2207
  463loPI    C2 7394   4.020   6.214  10.663  0.0575  0.1184  0.0010
  463loPI    C3 7395   3.824   6.542  10.783  0.0175  0.0920  0.0074
  463loPI   PO4 7396   3.612   6.255  10.381  0.0628 -0.0519 -0.1796
  463loPI   GL1 7397   3.898   6.239  10.063 -0.1450  0.2816 -0.3651
  463loPI   GL2 7398   3.543   6.156   9.891 -0.3117  0.3098 -0.0938
  463loPI   C1A 7399   3.888   6.565   9.676 -0.0031  0.1705 -0.0324
  463loPI   C2A 7400   3.764   6.547   9.287 -0.0909 -0.2068  0.0106
  463loPI   C3A 7401   3.929   6.502   8.908  0.4087 -0.1606  0.2433
  463loPI   C4A 7402   3.847   6.583   8.488  0.0561 -0.1640 -0.2786
  463loPI   C5A 7403   3.989   6.696   8.057 -0.0365 -0.1377  0.0850
  463loPI   C6A 7404   4.207   6.720   7.576 -0.0063  0.0259 -0.2429
  463loPI   C1B 7405   3.522   6.128   9.469  0.1247 -0.3682 -0.0289
  463loPI   C2B 7406   3.536   6.119   8.996 -0.0159  0.2350  0.1198
  463loPI   C3B 7407   3.493   6.126   8.622 -0.1871 -0.1289 -0.1995
  463loPI   C4B 7408   3.607   6.152   8.298  0.1668  0.0367  0.1086
  464loPI    C1 7409   0.359  12.549  10.479  0.1139 -0.0962 -0.1962
  464loPI    C2 7410   0.702  12.753  10.450  0.1098 -0.0737 -0.0929
  464loPI    C3 7411   0.708  12.362  10.533  0.1101 -0.0715 -0.0823
  464loPI   PO4 7412   0.226  12.606  10.180  0.0319 -0.0048 -0.1550
  464loPI   GL1 7413   0.215  12.661   9.757 -0.2760  0.3833  0.1665
  464loPI   GL2 7414   0.402  12.812   9.527 -0.0917  0.4314 -0.2456
  464loPI   C1A 7415   0.308  12.283   9.426 -0.0830 -0.0488  0.0870
  464loPI   C2A 7416   0.333  12.213   8.975 -0.1392  0.0140 -0.0446
  464loPI   C3A 7417   0.423  12.472   8.794 -0.1834 -0.3915  0.2078
  464loPI   C4A 7418   0.510  12.578   8.422 -0.2554 -0.1600  0.0996
  464loPI   C5A 7419   0.682  12.483   8.106  0.0350 -0.0105  0.0955
  464loPI   C6A 7420   0.657  12.705   7.686  0.0728 -0.1068 -0.2196
  464loPI   C1B 7421   0.425  12.900   9.094  0.0554 -0.0075  0.1587
  464loPI   C2B 7422   0.390  13.018   8.639 -0.0179 -0.0580 -0.2708
  464loPI   C3B 7423   0.629  13.078   8.238 -0.0648  0.1019 -0.0593
  464loPI   C4B 7424   0.907  13.107   7.819 -0.1766  0.2237  0.2283
  465loPI    C1 7425  10.497   4.128  10.184  0.1195  0.3870 -0.0485
  465loPI    C2 7426  10.549   3.944  10.535 -0.1297  0.0604 -0.1775
  465loPI    C3 7427  10.375   4.304  10.522  0.0525  0.1590  0.0480
  465loPI   PO4 7428  10.289   4.088   9.961  0.0127 -0.3719 -0.3520
  465loPI   GL1 7429  10.505   4.315   9.605 -0.3479 -0.1613 -0.3397
  465loPI   GL2 7430  10.179   4.462   9.592 -0.0667  0.0912  0.1546
  465loPI   C1A 7431  10.547   4.372   9.251  0.1218  0.4158 -0.0272
  465loPI   C2A 7432  10.683   4.436   8.824 -0.4088  0.1570  0.1781
  465loPI   C3A 7433  10.644   4.224   8.452  0.1165  0.0596 -0.0000
  465loPI   C4A 7434  10.482   4.011   8.184 -0.0909 -0.1529  0.1471
  465loPI   C5A 7435  10.554   3.528   8.052 -0.2897 -0.0037 -0.1113
  465loPI   C6A 7436  10.457   3.083   8.026 -0.1519  0.2339  0.1348
  465loPI   C1B 7437   9.987   4.352   9.180 -0.0239  0.3893 -0.0514
  465loPI   C2B 7438  10.180   4.319   8.891 -0.0872  0.0713  0.1522
  465loPI   C3B 7439  10.139   4.225   8.504  0.0102  0.0477  0.1285
  465loPI   C4B 7440  10.006   4.294   8.159  0.0954  0.0334  0.1026
  466loPI    C1 7441   1.165  14.719  10.123  0.0517 -0.0500 -0.0579
  466loPI    C2 7442   1.296  14.351  10.209 -0.0288  0.0026  0.3098
  466loPI    C3 7443   0.914  14.408  10.102  0.0059 -0.0304  0.1661
  466loPI   PO4 7444   1.395  14.888   9.931 -0.0752 -0.2760 -0.0423
  466loPI   GL1 7445   1.608  14.933   9.560  0.0704  0.1643  0.0930
  466loPI   GL2 7446   1.937  14.772   9.628  0.1661 -0.0969 -0.2545
  466loPI   C1A 7447   1.572  14.753   9.139 -0.4256  0.0587  0.1280
  466loPI   C2A 7448   1.602  14.758   8.696 -0.1444  0.1449 -0.2228
  466loPI   C3A 7449   1.689  14.968   8.353  0.0638  0.0074  0.1040
  466loPI   C4A 7450   1.698  15.044   7.925  0.2351  0.0596 -0.0426
  466loPI   C5A 7451   1.847  15.057   7.459  0.1898  0.0920 -0.2842
  466loPI   C6A 7452   1.930  15.434   7.223  0.2992 -0.0729  0.0103
  466loPI   C1B 7453   2.047  14.622   9.165  0.5662  0.2469  0.0875
  466loPI   C2B 7454   2.144  14.623   8.692 -0.2220 -0.1723  0.0030
  466loPI   C3B 7455   2.165  14.746   8.333  0.0912 -0.6794 -0.1097
  466loPI   C4B 7456   2.163  14.735   7.873  0.2497 -0.1280  0.0982
  467loPI    C1 7457   9.871  12.149  10.281 -0.1790  0.1345 -0.0794
  467loPI    C2 7458  10.172  12.360  10.123 -0.2239  0.0239 -0.3168
  467loPI    C3 7459  10.070  12.413  10.506  0.1612 -0.0085 -0.2049
  467loPI   PO4 7460   9.763  11.944   9.988  0.0176  0.0984  0.1927
  467loPI   GL1 7461   9.621  11.837   9.609  0.1029 -0.0921  0.2053
  467loPI   GL2 7462   9.718  12.101   9.466 -0.1304 -0.3734  0.0342
  467loPI   C1A 7463   9.835  11.703   9.216  0.2105 -0.1160  0.0358
  467loPI   C2A 7464   9.765  11.543   8.793 -0.2295  0.0975  0.0766
  467loPI   C3A 7465   9.589  11.446   8.389  0.0722 -0.1125 -0.0952
  467loPI   C4A 7466   9.745  11.612   7.946 -0.0461  0.2315  0.3221
  467loPI   C5A 7467  10.049  11.589   7.726 -0.1715 -0.2256  0.2622
  467loPI   C6A 7468  10.254  11.593   7.433 -0.0393 -0.1863  0.0846
  467loPI   C1B 7469   9.603  12.150   9.071  0.3692  0.0902  0.2190
  467loPI   C2B 7470   9.600  12.189   8.659  0.2042 -0.2504 -0.1497
  467loPI   C3B 7471   9.485  12.047   8.296 -0.1733  0.1205  0.1218
  467loPI   C4B 7472   9.265  11.756   7.865 -0.0546  0.0350  0.0411
  468loPI    C1 7473   9.547  18.386  10.319  0.0298  0.0206 -0.2145
  468loPI    C2 7474   9.312  18.656  10.498  0.0510 -0.2174  0.1852
  468loPI    C3 7475   9.709  18.676  10.541  0.0816 -0.0698 -0.1337
  468loPI   PO4 7476   9.537  18.334  10.044  0.1573 -0.1501  0.0393
  468loPI   GL1 7477   9.577  18.274   9.647  0.0663  0.0473  0.1290
  468loPI   GL2 7478   9.512  18.510   9.613 -0.0310 -0.3577 -0.0277
  468loPI   C1A 7479   9.417  18.018   9.270 -0.0047 -0.3139 -0.1088
  468loPI   C2A 7480   9.419  18.003   8.767  0.2859  0.2135 -0.3822
  468loPI   C3A 7481   9.385  17.970   8.294  0.1698 -0.1437 -0.1367
  468loPI   C4A 7482   9.317  18.147   7.925  0.3818 -0.0041  0.0793
  468loPI   C5A 7483   9.377  18.120   7.485  0.0345 -0.1650  0.4493
  468loPI   C6A 7484   9.166  18.300   7.200  0.0129 -0.2428 -0.0569
  468loPI   C1B 7485   9.625  18.540   9.194 -0.0535  0.3026 -0.0608
  468loPI   C2B 7486   9.553  18.722   8.733 -0.0242 -0.0433 -0.0878
  468loPI   C3B 7487   9.458  18.753   8.300 -0.1201  0.2637 -0.2369
  468loPI   C4B 7488   9.692  18.612   7.975  0.0584  0.1607  0.2677
  469loPI    C1 7489   1.752   5.039  10.942  0.0471 -0.0055  0.2198
  469loPI    C2 7490   1.834   5.417  11.045  0.0023  0.0798 -0.0504
  469loPI    C3 7491   2.051   5.117  11.196  0.1072  0.2210  0.0824
  469loPI   PO4 7492   1.699   5.036  10.583 -0.0090 -0.2311 -0.0254
  469loPI   GL1 7493   1.630   5.330  10.201 -0.1652 -0.3050  0.0152
  469loPI   GL2 7494   1.923   5.206  10.109  0.1897  0.2315 -0.0220
  469loPI   C1A 7495   1.689   5.605   9.885  0.1159 -0.2174 -0.0568
  469loPI   C2A 7496   1.814   5.588   9.415  0.0744 -0.2158  0.1305
  469loPI   C3A 7497   1.776   5.676   8.897 -0.2492  0.3665  0.0725
  469loPI   C4A 7498   1.660   5.801   8.560  0.2196  0.0854 -0.0434
  469loPI   C5A 7499   1.610   5.900   8.064 -0.0470 -0.0263  0.2483
  469loPI   C6A 7500   1.633   5.966   7.600  0.0948  0.0096  0.1070
  469loPI   C1B 7501   1.906   5.114   9.667 -0.0125 -0.0859 -0.1344
  469loPI   C2B 7502   1.950   5.229   9.146  0.0783 -0.0940 -0.2155
  469loPI   C3B 7503   2.113   5.227   8.837 -0.2214  0.0416 -0.0360
  469loPI   C4B 7504   1.978   5.360   8.495  0.0369 -0.2756  0.2583
  470loPI    C1 7505   0.363  13.135   9.985 -0.2994 -0.2635  0.0782
  470loPI    C2 7506   0.469  13.231  10.359  0.0541  0.1252 -0.1134
  470loPI    C3 7507   0.200  13.455  10.164 -0.2626 -0.1795 -0.0375
  470loPI   PO4 7508   0.544  13.189   9.824  0.1696  0.1092 -0.0687
  470loPI   GL1 7509   0.548  13.345   9.396 -0.1179 -0.0360 -0.0037
  470loPI   GL2 7510   0.250  13.270   9.378 -0.4299 -0.0824 -0.0634
  470loPI   C1A 7511   0.534  13.402   8.951 -0.2476  0.1543 -0.1443
  470loPI   C2A 7512   0.677  13.514   8.583  0.0040 -0.0133 -0.0838
  470loPI   C3A 7513   0.315  13.504   8.245 -0.2143  0.1393  0.0973
  470loPI   C4A 7514   0.102  13.571   7.908  0.0217  0.2567 -0.0056
  470loPI   C5A 7515   0.244  13.640   7.471  0.0420  0.1667  0.0701
  470loPI   C6A 7516   0.100  13.840   7.098 -0.2947 -0.1006 -0.0202
  470loPI   C1B 7517   0.057  13.301   8.921 -0.0293  0.0702 -0.1446
  470loPI   C2B 7518  -0.031  13.274   8.501 -0.2360  0.0250  0.0041
  470loPI   C3B 7519  -0.262  13.185   8.193 -0.1449 -0.0773  0.1531
  470loPI   C4B 7520  -0.347  12.835   8.144  0.0023 -0.0003  0.2963
  471loPI    C1 7521   3.988   4.513  10.532 -0.0715 -0.0847 -0.1218
  471loPI    C2 7522   3.801   4.206  10.707  0.0114 -0.0475  0.0336
  471loPI    C3 7523   3.904   4.526  10.923  0.0670  0.0219 -0.0948
  471loPI   PO4 7524   4.145   4.325  10.329 -0.0596 -0.0702  0.1188
  471loPI   GL1 7525   3.819   4.329   9.972 -0.0847  0.1039  0.0864
  471loPI   GL2 7526   4.002   4.562   9.914  0.1124  0.0933 -0.1630
  471loPI   C1A 7527   3.657   4.240   9.575 -0.4330  0.1806 -0.1221
  471loPI   C2A 7528   3.598   4.195   9.194  0.1521 -0.0482 -0.1392
  471loPI   C3A 7529   3.516   4.321   8.728 -0.0974 -0.0919 -0.4580
  471loPI   C4A 7530   3.511   4.389   8.315 -0.0987  0.1245  0.1866
  471loPI   C5A 7531   3.692   4.463   7.887  0.2535  0.0186 -0.0202
  471loPI   C6A 7532   4.095   4.664   7.729  0.0894 -0.1067  0.0799
  471loPI   C1B 7533   3.905   4.719   9.489 -0.1517  0.0148  0.0273
  471loPI   C2B 7534   3.858   4.822   9.018 -0.1109 -0.1113  0.0258
  471loPI   C3B 7535   3.805   4.744   8.637  0.0754 -0.1246 -0.2799
  471loPI   C4B 7536   3.770   4.809   8.229  0.0038 -0.0966  0.4411
  472loPI    C1 7537   6.044  11.663  10.304 -0.0551  0.3213 -0.1558
  472loPI    C2 7538   6.240  11.885  10.573  0.3603 -0.0218 -0.1637
  472loPI    C3 7539   5.914  11.680  10.682  0.4381 -0.0386  0.0414
  472loPI   PO4 7540   6.206  11.488  10.176  0.1762  0.0501 -0.0223
  472loPI   GL1 7541   6.257  11.329   9.797  0.0264  0.2693  0.0496
  472loPI   GL2 7542   5.976  11.152   9.857  0.1930  0.1713 -0.0195
  472loPI   C1A 7543   6.263  11.013   9.491 -0.1144 -0.2001 -0.0613
  472loPI   C2A 7544   6.282  10.970   9.096 -0.0218 -0.0155 -0.0836
  472loPI   C3A 7545   6.210  10.976   8.625  0.0368 -0.0992  0.0691
  472loPI   C4A 7546   6.259  10.881   8.243  0.2571 -0.0418  0.0214
  472loPI   C5A 7547   6.115  10.830   7.804  0.0354  0.0537  0.2037
  472loPI   C6A 7548   6.329  10.641   7.396  0.1292 -0.1041  0.1293
  472loPI   C1B 7549   5.769  11.006   9.490 -0.1594 -0.0107 -0.2278
  472loPI   C2B 7550   5.765  11.045   9.075  0.2751 -0.0220 -0.1084
  472loPI   C3B 7551   5.721  10.888   8.689  0.2262 -0.1501 -0.0189
  472loPI   C4B 7552   5.733  10.861   8.194 -0.0943 -0.0955 -0.1090
  473loPI    C1 7553  14.339  13.852   9.985  0.3500 -0.1790 -0.1954
  473loPI    C2 7554  14.229  13.469  10.020  0.2786 -0.1542 -0.1463
  473loPI    C3 7555  14.390  13.660  10.333  0.1283 -0.0863 -0.1097
  473loPI   PO4 7556  14.189  13.891   9.651 -0.1135 -0.0390 -0.1577
  473loPI   GL1 7557  14.135  13.768   9.255  0.1517  0.1719 -0.0359
  473loPI   GL2 7558  14.161  13.442   9.123 -0.0543  0.1329  0.3014
  473loPI   C1A 7559  13.951  13.771   8.818 -0.2536 -0.3579  0.0462
  473loPI   C2A 7560  13.878  13.674   8.470  0.4562  0.0677 -0.3535
  473loPI   C3A 7561  13.992  13.546   7.962 -0.0639 -0.4636 -0.1402
  473loPI   C4A 7562  13.632  13.575   7.675 -0.0393  0.1066 -0.0527
  473loPI   C5A 7563  13.277  13.792   7.610  0.0059  0.1388  0.0544
  473loPI   C6A 7564  12.801  13.618   7.592  0.1824 -0.0232  0.1473
  473loPI   C1B 7565  14.334  13.289   8.765  0.0811 -0.0710 -0.0594
  473loPI   C2B 7566  14.274  13.233   8.302  0.3078  0.0019 -0.0915
  473loPI   C3B 7567  14.039  13.073   7.886  0.1747 -0.4503  0.1607
  473loPI   C4B 7568  13.894  12.779   7.531 -0.1651  0.1748 -0.0994
  474POPI    C1 7569   4.789   9.381  10.505 -0.1390 -0.0229 -0.0766
  474POPI    C2 7570   4.585   9.684  10.668  0.1014  0.1075 -0.0133
  474POPI    C3 7571   4.690   9.371  10.893  0.0358  0.0743 -0.0285
  474POPI   PO4 7572   4.917   9.474  10.298 -0.1660  0.4084  0.0421
  474POPI   GL1 7573   5.050   9.507   9.817  0.1180  0.0411 -0.0630
  474POPI   GL2 7574   4.984   9.722   9.865  0.0904 -0.1877 -0.0332
  474POPI   C1A 7575   5.151   9.370   9.348 -0.1642  0.0265 -0.1686
  474POPI   D2A 7576   5.204   9.290   8.993 -0.2991  0.1328  0.0079
  474POPI   C3A 7577   5.107   9.182   8.511 -0.0203  0.2791 -0.0390
  474POPI   C4A 7578   4.784   9.288   8.211 -0.2637  0.0364 -0.1992
  474POPI   C1B 7579   4.937   9.899   9.518  0.2195  0.0028  0.1933
  474POPI   C2B 7580   4.877   9.710   9.066 -0.0773 -0.3518  0.1128
  474POPI   C3B 7581   4.880   9.604   8.669  0.0208  0.0813 -0.1144
  474POPI   C4B 7582   4.637   9.717   8.360  0.1147  0.1381  0.4575
  475POPI    C1 7583   5.713  10.787  10.900 -0.2499  0.0520  0.0264
  475POPI    C2 7584   5.649  11.180  10.864 -0.1387  0.0736  0.0648
  475POPI    C3 7585   5.439  10.967  11.130 -0.1535  0.1189  0.0894
  475POPI   PO4 7586   5.742  10.772  10.581  0.0059  0.0459 -0.0726
  475POPI   GL1 7587   5.607  10.741  10.170  0.0010  0.1383  0.1062
  475POPI   GL2 7588   5.360  10.808  10.192  0.1866 -0.1450  0.1522
  475POPI   C1A 7589   5.541  10.578   9.775  0.0760 -0.2187  0.0640
  475POPI   D2A 7590   5.553  10.618   9.308  0.0503  0.0893 -0.0523
  475POPI   C3A 7591   5.403  10.512   8.916 -0.0516 -0.1378 -0.0713
  475POPI   C4A 7592   5.449  10.437   8.453 -0.1956  0.3196  0.0253
  475POPI   C1B 7593   5.347  11.040   9.821  0.0838 -0.0151 -0.5161
  475POPI   C2B 7594   5.220  11.051   9.378  0.0257  0.2822 -0.0884
  475POPI   C3B 7595   5.252  10.984   8.989 -0.2611 -0.0168  0.1671
  475POPI   C4B 7596   5.194  11.105   8.559  0.0076  0.1688 -0.2311
  476POPI    C1 7597  16.761   0.602   9.986  0.0502  0.0940 -0.0042
  476POPI    C2 7598  17.029   0.537  10.276  0.0948 -0.0448 -0.0757
  476POPI    C3 7599  16.642   0.581  10.367  0.1211  0.0050  0.0132
  476POPI   PO4 7600  16.985   0.741   9.798  0.0214  0.0541 -0.0132
  476POPI   GL1 7601  17.246   0.773   9.400  0.0543  0.0789 -0.0691
  476POPI   GL2 7602  17.488   1.040   9.256  0.2217  0.2202  0.0531
  476POPI   C1A 7603  17.000   0.851   9.109 -0.0188 -0.0018  0.1168
  476POPI   D2A 7604  16.867   0.886   8.739 -0.2172 -0.0592 -0.0865
  476POPI   C3A 7605  16.890   0.943   8.327  0.1117  0.2250 -0.2161
  476POPI   C4A 7606  16.915   0.588   7.890 -0.0138 -0.0460 -0.1259
  476POPI   C1B 7607  17.515   1.050   8.809 -0.2960  0.1237 -0.0329
  476POPI   C2B 7608  17.711   1.011   8.454 -0.0194  0.4409 -0.1239
  476POPI   C3B 7609  17.737   1.118   8.053 -0.1771  0.1454  0.2869
  476POPI   C4B 7610  17.769   0.916   7.646 -0.0285  0.1211 -0.1849
  477POPI    C1 7611   5.920   5.691  10.660 -0.0323  0.0015  0.0250
  477POPI    C2 7612   5.875   5.294  10.640 -0.1350  0.0107  0.0704
  477POPI    C3 7613   5.590   5.520  10.807 -0.2088  0.1316 -0.2113
  477POPI   PO4 7614   6.146   5.740  10.429 -0.0735  0.1059 -0.3137
  477POPI   GL1 7615   6.339   5.682  10.048  0.0696 -0.1530 -0.4519
  477POPI   GL2 7616   6.680   5.652  10.049 -0.0587 -0.0667  0.1716
  477POPI   C1A 7617   6.303   5.938   9.553  0.0369  0.2174  0.0374
  477POPI   D2A 7618   6.268   6.031   9.158  0.0173  0.3143 -0.1680
  477POPI   C3A 7619   6.401   5.928   8.708 -0.2569 -0.0818 -0.0672
  477POPI   C4A 7620   6.347   6.081   8.278  0.1085 -0.0747  0.0948
  477POPI   C1B 7621   6.881   5.775   9.735 -0.1093 -0.0932  0.0154
  477POPI   C2B 7622   6.785   5.934   9.308  0.1862 -0.1092  0.2941
  477POPI   C3B 7623   6.857   5.981   8.894 -0.1125  0.5097  0.2168
  477POPI   C4B 7624   6.842   5.795   8.480  0.3827 -0.5275  0.0731
  478POPI    C1 7625  12.233  12.308  10.035 -0.0312  0.1533 -0.0827
  478POPI    C2 7626  12.290  12.563  10.337 -0.1400 -0.0901  0.1474
  478POPI    C3 7627  12.355  12.172  10.390 -0.1887 -0.1389 -0.1372
  478POPI   PO4 7628  12.008  12.390   9.906  0.0974  0.0972  0.4442
  478POPI   GL1 7629  11.910  12.415   9.473  0.0488  0.0397 -0.1185
  478POPI   GL2 7630  11.870  12.698   9.385 -0.0989 -0.0210  0.1391
  478POPI   C1A 7631  12.191  12.474   9.052  0.1280  0.2468 -0.1968
  478POPI   D2A 7632  12.501  12.607   8.827  0.2420  0.0165  0.2115
  478POPI   C3A 7633  12.763  12.446   8.571  0.2123 -0.2302  0.0977
  478POPI   C4A 7634  12.907  12.426   8.198  0.0593  0.2357  0.3850
  478POPI   C1B 7635  11.613  12.443   9.081  0.0053  0.1355 -0.0206
  478POPI   C2B 7636  11.372  12.171   8.823  0.0508 -0.0810  0.0887
  478POPI   C3B 7637  11.303  12.019   8.385  0.0917  0.1391  0.1226
  478POPI   C4B 7638  11.498  12.133   8.002 -0.0328 -0.4647  0.2111
  479POPI    C1 7639   3.120  17.153   9.651  0.1026  0.0255  0.0239
  479POPI    C2 7640   3.018  17.418   9.932 -0.2558  0.0189 -0.0947
  479POPI    C3 7641   2.844  17.058   9.925  0.0067 -0.1092 -0.1175
  479POPI   PO4 7642   3.363  17.250   9.603  0.0853  0.0467 -0.1925
  479POPI   GL1 7643   3.522  17.117   9.181 -0.1246  0.1471 -0.1862
  479POPI   GL2 7644   3.746  17.385   9.157  0.4840 -0.1071 -0.2424
  479POPI   C1A 7645   3.227  17.351   8.878 -0.2895  0.0898  0.4758
  479POPI   D2A 7646   3.267  17.598   8.437 -0.0585  0.1297 -0.0515
  479POPI   C3A 7647   3.262  17.722   7.952 -0.3293  0.1708  0.0375
  479POPI   C4A 7648   2.919  17.924   7.854 -0.0623 -0.1681  0.3066
  479POPI   C1B 7649   3.701  17.526   8.723  0.0807 -0.0284 -0.2365
  479POPI   C2B 7650   3.710  17.742   8.353  0.0369 -0.2531  0.0954
  479POPI   C3B 7651   3.753  17.999   7.988  0.1425  0.0706  0.5452
  479POPI   C4B 7652   3.430  18.337   7.663 -0.1614  0.1021 -0.1181
  480POPI    C1 7653   7.822   1.014  10.026  0.1042 -0.0227 -0.0443
  480POPI    C2 7654   7.580   0.696  10.022  0.0841 -0.0065 -0.2123
  480POPI    C3 7655   7.777   0.793  10.356 -0.1367 -0.0225 -0.0753
  480POPI   PO4 7656   7.882   1.052   9.712 -0.3349  0.0985  0.1308
  480POPI   GL1 7657   8.068   1.235   9.455 -0.1584  0.1241  0.0147
  480POPI   GL2 7658   8.214   1.429   9.575 -0.4294  0.3175 -0.0315
  480POPI   C1A 7659   7.982   1.321   9.077  0.0013 -0.0228  0.1881
  480POPI   D2A 7660   7.852   1.314   8.721 -0.3064  0.0168 -0.3934
  480POPI   C3A 7661   7.928   1.357   8.395  0.3214  0.1657  0.0861
  480POPI   C4A 7662   7.774   1.558   7.998 -0.0477 -0.0671 -0.1566
  480POPI   C1B 7663   8.388   1.596   9.189  0.0164 -0.0311 -0.1550
  480POPI   C2B 7664   8.318   1.534   8.764 -0.1725 -0.1508  0.0865
  480POPI   C3B 7665   8.358   1.611   8.291 -0.0427 -0.0647  0.0871
  480POPI   C4B 7666   8.596   1.429   7.959 -0.1247 -0.0539 -0.0785
  481POPI    C1 7667   9.513  12.921  10.248 -0.2012 -0.1331 -0.2564
  481POPI    C2 7668   9.566  12.530  10.316  0.1584 -0.1010 -0.3322
  481POPI    C3 7669   9.547  12.787  10.623  0.1702 -0.1482 -0.2921
  481POPI   PO4 7670   9.671  12.922   9.969  0.1237 -0.2208 -0.0562
  481POPI   GL1 7671   9.410  12.846   9.496  0.0009 -0.2436  0.0676
  481POPI   GL2 7672   9.268  12.634   9.651 -0.2846 -0.1883 -0.0001
  481POPI   C1A 7673   9.379  12.826   9.123  0.0361  0.0173  0.2084
  481POPI   D2A 7674   9.544  12.760   8.811  0.0358  0.0295  0.1041
  481POPI   C3A 7675   9.493  12.735   8.412  0.0124  0.0136 -0.3272
  481POPI   C4A 7676   9.386  12.851   7.907  0.1065 -0.1263 -0.1494
  481POPI   C1B 7677   9.297  12.381   9.333 -0.0642  0.0100  0.0801
  481POPI   C2B 7678   9.213  12.386   8.933  0.1197  0.0513  0.3657
  481POPI   C3B 7679   9.166  12.335   8.524 -0.1153  0.3247 -0.2331
  481POPI   C4B 7680   9.104  12.451   8.124  0.3185  0.2206 -0.0261
  482POPI    C1 7681   1.269   0.374  10.151  0.0444 -0.3121 -0.3684
  482POPI    C2 7682   1.339   0.059  10.388 -0.2411  0.0466  0.2151
  482POPI    C3 7683   0.964   0.186  10.328 -0.1425  0.1805 -0.1494
  482POPI   PO4 7684   1.509   0.359  10.025 -0.0317  0.0648 -0.1639
  482POPI   GL1 7685   1.760   0.251   9.722 -0.0430 -0.1545 -0.0079
  482POPI   GL2 7686   1.795   0.648   9.729 -0.1435  0.5587 -0.2086
  482POPI   C1A 7687   1.511   0.274   9.289 -0.1571 -0.3304 -0.1688
  482POPI   D2A 7688   1.021   0.148   9.278  0.0988  0.1466  0.0612
  482POPI   C3A 7689   0.856  -0.116   8.975  0.1870  0.2141  0.1212
  482POPI   C4A 7690   0.479  -0.350   8.942  0.3027 -0.0541 -0.2704
  482POPI   C1B 7691   1.977   0.547   9.261 -0.0698  0.0494  0.1627
  482POPI   C2B 7692   2.041   0.301   8.873  0.0022 -0.0828  0.0306
  482POPI   C3B 7693   2.152   0.068   8.506 -0.0391 -0.5691 -0.1171
  482POPI   C4B 7694   2.209   0.303   8.115  0.0371  0.3160 -0.1217
  483POPI    C1 7695  10.644   1.560  10.311 -0.1220  0.0128 -0.0612
  483POPI    C2 7696  10.678   1.704  10.682 -0.2694 -0.0752 -0.0130
  483POPI    C3 7697  10.506   1.926  10.397 -0.0005  0.0614 -0.0713
  483POPI   PO4 7698  10.877   1.612  10.188 -0.0657  0.0023 -0.3762
  483POPI   GL1 7699  10.964   1.724   9.730 -0.1936  0.1932  0.0690
  483POPI   GL2 7700  10.812   1.485   9.613 -0.1949 -0.0461 -0.2637
  483POPI   C1A 7701  10.709   1.855   9.308 -0.1095  0.3129  0.1343
  483POPI   D2A 7702  10.642   1.984   8.923  0.0434  0.0385 -0.1715
  483POPI   C3A 7703  10.825   1.895   8.520 -0.3592 -0.2255  0.1143
  483POPI   C4A 7704  11.053   2.020   8.247 -0.3101  0.0226 -0.2450
  483POPI   C1B 7705  11.099   1.489   9.301  0.1533 -0.0548 -0.0483
  483POPI   C2B 7706  10.983   1.520   8.900 -0.0405 -0.0094  0.1937
  483POPI   C3B 7707  11.180   1.447   8.455 -0.2064 -0.0726  0.0933
  483POPI   C4B 7708  11.159   1.592   8.072  0.0396  0.2530  0.1927
  484POPI    C1 7709  14.129   1.178   9.729  0.1420  0.4791 -0.0012
  484POPI    C2 7710  14.008   1.029  10.080 -0.0046  0.1584 -0.1829
  484POPI    C3 7711  14.359   1.219  10.053  0.0976  0.0149  0.0963
  484POPI   PO4 7712  13.934   1.102   9.572  0.1011  0.1118 -0.1322
  484POPI   GL1 7713  13.845   1.077   9.268  0.3938 -0.0662 -0.0423
  484POPI   GL2 7714  13.561   0.879   9.216 -0.0069 -0.2771 -0.0082
  484POPI   C1A 7715  14.010   0.902   8.797  0.1937  0.0868 -0.1141
  484POPI   D2A 7716  14.005   1.023   8.324 -0.1722  0.3632  0.0584
  484POPI   C3A 7717  14.057   0.837   7.955  0.3278 -0.1441 -0.0480
  484POPI   C4A 7718  14.093   0.905   7.518  0.4577  0.1164  0.0203
  484POPI   C1B 7719  13.536   0.929   8.769 -0.4326  0.0479 -0.1734
  484POPI   C2B 7720  13.519   1.061   8.395 -0.3539 -0.0172  0.0745
  484POPI   C3B 7721  13.625   1.075   7.995 -0.0400  0.0178  0.3699
  484POPI   C4B 7722  13.642   1.059   7.624  0.0781  0.1036  0.1783
  485POPI    C1 7723  18.463  18.242   9.830  0.1357 -0.1196  0.1978
  485POPI    C2 7724  18.280  18.005   9.564  0.1961  0.0366  0.0139
  485POPI    C3 7725  18.422  17.852   9.906 -0.2825 -0.0866  0.1654
  485POPI   PO4 7726  18.430  18.445   9.822  0.1270 -0.1288 -0.2195
  485POPI   GL1 7727  18.359  18.702   9.447 -0.0543  0.0399  0.0660
  485POPI   GL2 7728  18.109  18.530   9.387 -0.4945 -0.3285  0.3238
  485POPI   C1A 7729  18.625  18.672   9.190  0.0396  0.1660  0.0503
  485POPI   D2A 7730  18.794  18.713   8.726  0.1417 -0.2218 -0.1926
  485POPI   C3A 7731  19.052  18.540   8.472 -0.2043  0.0968 -0.2451
  485POPI   C4A 7732  19.451  18.660   8.509 -0.2867  0.1805  0.2301
  485POPI   C1B 7733  18.063  18.240   8.982 -0.2306 -0.0715  0.0905
  485POPI   C2B 7734  18.053  18.373   8.474 -0.0313  0.1262 -0.1016
  485POPI   C3B 7735  18.039  18.688   8.064  0.2421 -0.2636 -0.3529
  485POPI   C4B 7736  18.159  19.092   7.974 -0.1767 -0.1992  0.0252
  486POPI    C1 7737   2.573  11.924  10.462  0.0859  0.0911 -0.0652
  486POPI    C2 7738   2.885  11.934  10.712  0.2447  0.3007 -0.2670
  486POPI    C3 7739   2.577  12.182  10.767  0.0568  0.0151 -0.0005
  486POPI   PO4 7740   2.756  11.865  10.233  0.0206  0.1765 -0.0302
  486POPI   GL1 7741   3.064  11.603  10.171  0.0151 -0.1127  0.0496
  486POPI   GL2 7742   2.916  11.293  10.280  0.5416 -0.1140 -0.3105
  486POPI   C1A 7743   3.231  11.696   9.770 -0.2217  0.3062  0.0682
  486POPI   D2A 7744   3.227  11.576   9.442 -0.1638 -0.0859 -0.1995
  486POPI   C3A 7745   3.454  11.571   9.119  0.2457 -0.2195  0.2070
  486POPI   C4A 7746   3.418  11.387   8.770 -0.2704 -0.1770  0.0336
  486POPI   C1B 7747   2.987  11.293   9.844 -0.1349 -0.0017  0.0138
  486POPI   C2B 7748   3.029  11.163   9.386  0.0056  0.2306 -0.1885
  486POPI   C3B 7749   3.179  11.036   9.039 -0.2159 -0.0166 -0.1146
  486POPI   C4B 7750   3.012  10.972   8.659 -0.1187 -0.2660 -0.1780
  487POPI    C1 7751  17.201  13.228  10.355 -0.0210  0.0129 -0.0475
  487POPI    C2 7752  16.844  13.062  10.427  0.1307 -0.1877  0.2617
  487POPI    C3 7753  16.936  13.417  10.587 -0.1881  0.2066 -0.3880
  487POPI   PO4 7754  17.181  13.113  10.018  0.1250  0.3953  0.1511
  487POPI   GL1 7755  17.036  13.251   9.678  0.0227 -0.1282 -0.2222
  487POPI   GL2 7756  17.005  12.880   9.571 -0.2772 -0.1110  0.1169
  487POPI   C1A 7757  16.996  13.315   9.268  0.4292 -0.0197 -0.2374
  487POPI   D2A 7758  17.085  13.367   8.787  0.1262 -0.0133 -0.4404
  487POPI   C3A 7759  16.964  13.521   8.412 -0.0282 -0.0252 -0.2569
  487POPI   C4A 7760  16.863  13.552   8.108  0.1288  0.0962  0.3273
  487POPI   C1B 7761  16.828  12.827   9.118  0.2244 -0.0370  0.1552
  487POPI   C2B 7762  16.743  12.884   8.746 -0.2231  0.0345 -0.2225
  487POPI   C3B 7763  16.910  12.860   8.300 -0.0370 -0.0143 -0.2497
  487POPI   C4B 7764  16.960  13.135   7.908  0.2241  0.0990  0.2271
  488POPI    C1 7765  10.467   5.786  10.261  0.3136 -0.1080 -0.0411
  488POPI    C2 7766  10.471   6.122  10.479 -0.0237 -0.0451 -0.1264
  488POPI    C3 7767  10.575   5.774  10.646  0.2104  0.0812 -0.0048
  488POPI   PO4 7768  10.591   5.866   9.947 -0.0038  0.2266  0.2102
  488POPI   GL1 7769  10.698   5.756   9.612  0.0321  0.0713  0.0164
  488POPI   GL2 7770  10.603   5.951   9.394 -0.2108  0.2622  0.0263
  488POPI   C1A 7771  11.043   5.601   9.275 -0.2150 -0.1674 -0.3528
  488POPI   D2A 7772  11.017   5.595   8.859 -0.0812 -0.0774  0.1604
  488POPI   C3A 7773  10.698   5.485   8.616  0.2774 -0.1018  0.1738
  488POPI   C4A 7774  10.500   5.626   8.217  0.1817  0.1880 -0.0780
  488POPI   C1B 7775  10.724   5.974   8.928  0.1660  0.1311 -0.3577
  488POPI   C2B 7776  10.868   6.002   8.560  0.0110  0.3042 -0.3865
  488POPI   C3B 7777  11.042   5.734   8.402  0.2099 -0.0785 -0.2320
  488POPI   C4B 7778  11.069   5.552   7.928  0.1103  0.0818  0.1522
  489POPI    C1 7779   2.583   1.337  10.177 -0.1271  0.1471  0.0710
  489POPI    C2 7780   2.708   0.961  10.229 -0.1980  0.1227  0.0644
  489POPI    C3 7781   2.871   1.257  10.443 -0.0260  0.1106 -0.0485
  489POPI   PO4 7782   2.594   1.364   9.937  0.1303 -0.1310 -0.0211
  489POPI   GL1 7783   2.785   1.024   9.714  0.0598  0.0184  0.1322
  489POPI   GL2 7784   3.065   0.920   9.557  0.1431  0.0581  0.4201
  489POPI   C1A 7785   2.618   0.691   9.430  0.1419 -0.1580  0.0411
  489POPI   D2A 7786   2.417   0.627   9.034  0.1224  0.2957 -0.0089
  489POPI   C3A 7787   2.631   0.497   8.622  0.1219 -0.0267  0.0907
  489POPI   C4A 7788   2.607   0.605   8.230  0.0554  0.1583  0.4033
  489POPI   C1B 7789   2.983   0.920   9.187 -0.1322 -0.3766 -0.4762
  489POPI   C2B 7790   2.975   0.856   8.767  0.0611 -0.1375  0.0017
  489POPI   C3B 7791   3.167   0.747   8.334 -0.2016 -0.2404 -0.2611
  489POPI   C4B 7792   3.432   0.557   7.958  0.0487 -0.2292  0.0933
  490POPI    C1 7793   9.937   1.385  10.099 -0.4469  0.0603 -0.1463
  490POPI    C2 7794  10.090   1.743  10.187  0.1733 -0.1402 -0.3552
  490POPI    C3 7795   9.790   1.595  10.406  0.2930  0.2555  0.0940
  490POPI   PO4 7796   9.944   1.404   9.827  0.0153 -0.0846 -0.1150
  490POPI   GL1 7797   9.773   1.615   9.471 -0.0532  0.3136 -0.0004
  490POPI   GL2 7798   9.909   1.902   9.659 -0.1345  0.2844 -0.0420
  490POPI   C1A 7799   9.805   1.633   9.080  0.1567  0.0128 -0.0962
  490POPI   D2A 7800   9.883   1.630   8.576 -0.1456  0.1879  0.2316
  490POPI   C3A 7801  10.062   1.391   8.272 -0.2117 -0.0810 -0.0910
  490POPI   C4A 7802   9.949   1.285   7.903  0.1255  0.1191  0.1889
  490POPI   C1B 7803  10.098   2.107   9.356  0.1701 -0.0691 -0.1275
  490POPI   C2B 7804  10.079   2.102   8.915 -0.0986  0.0397 -0.4022
  490POPI   C3B 7805  10.164   2.089   8.491  0.3299 -0.0619  0.1007
  490POPI   C4B 7806  10.444   2.183   8.227  0.3095 -0.0202 -0.1254
  491POPI    C1 7807   0.029  14.764  10.187  0.2138 -0.4422  0.1789
  491POPI    C2 7808   0.134  15.107  10.364 -0.1577 -0.1119 -0.2155
  491POPI    C3 7809  -0.003  14.802  10.584 -0.1583  0.1162  0.1079
  491POPI   PO4 7810   0.198  14.748  10.020 -0.3434 -0.0104  0.1926
  491POPI   GL1 7811   0.394  14.718   9.656  0.0613 -0.0344 -0.0960
  491POPI   GL2 7812   0.146  14.617   9.449  0.2774  0.0186 -0.0471
  491POPI   C1A 7813   0.657  14.471   9.591  0.3416  0.0604  0.0468
  491POPI   D2A 7814   0.734  14.222   9.261 -0.3315 -0.1472  0.0509
  491POPI   C3A 7815   0.771  14.358   8.893 -0.1551  0.0783  0.2912
  491POPI   C4A 7816   0.819  14.539   8.447  0.0726  0.0927  0.0843
  491POPI   C1B 7817   0.357  14.567   9.133 -0.1085  0.0118  0.0876
  491POPI   C2B 7818   0.272  14.598   8.635 -0.1392  0.0412  0.0638
  491POPI   C3B 7819  -0.118  14.597   8.317 -0.4788 -0.0167 -0.0262
  491POPI   C4B 7820  -0.003  14.431   7.938  0.0265  0.0638  0.0039
  492POPI    C1 7821   1.713   8.339  10.965 -0.0982 -0.2725  0.0760
  492POPI    C2 7822   1.354   8.481  11.069 -0.1149 -0.2083 -0.0660
  492POPI    C3 7823   1.569   8.267  11.330 -0.0624  0.1293  0.1742
  492POPI   PO4 7824   1.783   8.452  10.664 -0.0169  0.0336 -0.2188
  492POPI   GL1 7825   1.867   8.286  10.253  0.2507  0.0890 -0.5097
  492POPI   GL2 7826   2.130   8.488  10.251  0.2165 -0.0756  0.1381
  492POPI   C1A 7827   1.566   8.308   9.932 -0.0234 -0.2600  0.0658
  492POPI   D2A 7828   1.306   8.450   9.735 -0.3332  0.1009  0.0346
  492POPI   C3A 7829   1.297   8.458   9.291  0.0927  0.2554  0.1409
  492POPI   C4A 7830   1.329   8.431   8.871  0.1510  0.1269  0.0140
  492POPI   C1B 7831   2.204   8.407   9.834 -0.2570 -0.2001  0.0942
  492POPI   C2B 7832   2.290   8.337   9.368 -0.0413  0.0670 -0.2189
  492POPI   C3B 7833   2.433   8.394   8.961  0.3968  0.1349  0.0862
  492POPI   C4B 7834   2.485   8.486   8.567  0.0773 -0.0718 -0.0930
  493POPI    C1 7835  13.075   7.314   9.913  0.0451 -0.0820 -0.1736
  493POPI    C2 7836  13.224   6.968   9.779 -0.1263 -0.1856 -0.1010
  493POPI    C3 7837  13.470   7.255   9.911  0.0078 -0.3556  0.0227
  493POPI   PO4 7838  12.854   7.310   9.738 -0.1044 -0.1209 -0.0096
  493POPI   GL1 7839  12.904   7.068   9.357  0.2614  0.0451 -0.1230
  493POPI   GL2 7840  12.957   6.715   9.382  0.0012 -0.2946  0.0619
  493POPI   C1A 7841  12.873   7.226   8.948 -0.2733 -0.2183 -0.0428
  493POPI   D2A 7842  12.692   7.416   8.564  0.0402 -0.1392 -0.1067
  493POPI   C3A 7843  12.845   7.635   8.379  0.1628 -0.1571  0.1741
  493POPI   C4A 7844  13.026   7.402   8.060 -0.0136 -0.3326  0.1351
  493POPI   C1B 7845  13.036   6.748   8.932 -0.0120  0.1445 -0.1853
  493POPI   C2B 7846  12.958   6.849   8.460 -0.0485 -0.0769  0.0749
  493POPI   C3B 7847  12.785   7.046   8.187  0.3965 -0.2718 -0.1587
  493POPI   C4B 7848  12.669   7.309   7.780 -0.2509 -0.1069  0.0995
  494POPI    C1 7849  15.021  14.535   9.626 -0.0011 -0.0723  0.0346
  494POPI    C2 7850  14.841  14.194   9.517  0.1452 -0.1767  0.1165
  494POPI    C3 7851  15.001  14.229   9.882 -0.0812  0.0663  0.1957
  494POPI   PO4 7852  15.203  14.586   9.413 -0.0176 -0.0679  0.1106
  494POPI   GL1 7853  15.011  14.951   9.069  0.0493 -0.0103  0.0855
  494POPI   GL2 7854  14.795  15.272   8.903  0.2301 -0.1471  0.1769
  494POPI   C1A 7855  15.038  14.724   8.763  0.0687 -0.0872  0.1240
  494POPI   D2A 7856  15.248  14.474   8.427  0.0735  0.2188 -0.1656
  494POPI   C3A 7857  15.172  14.633   8.034 -0.1616 -0.0588 -0.0701
  494POPI   C4A 7858  14.995  14.856   7.711  0.1266  0.0954  0.3761
  494POPI   C1B 7859  14.922  15.113   8.533 -0.0006  0.0193  0.0192
  494POPI   C2B 7860  14.940  15.020   8.212  0.4489  0.2319 -0.2516
  494POPI   C3B 7861  15.322  15.161   7.941  0.0013  0.3688  0.2472
  494POPI   C4B 7862  15.643  14.921   7.680  0.0252  0.2916  0.1414
  495POPI    C1 7863   0.940   0.197   9.836  0.0608  0.0435  0.0579
  495POPI    C2 7864   0.768   0.487   9.620  0.0625 -0.0907 -0.1269
  495POPI    C3 7865   1.165   0.486   9.674  0.0659 -0.0755 -0.1515
  495POPI   PO4 7866   0.877  -0.078   9.697 -0.0681  0.4015 -0.0196
  495POPI   GL1 7867   0.560  -0.086   9.523 -0.1750  0.0074  0.0138
  495POPI   GL2 7868   0.336  -0.321   9.480  0.0978  0.0722 -0.2946
  495POPI   C1A 7869   0.489   0.081   9.206 -0.0197 -0.1112 -0.1360
  495POPI   D2A 7870   0.628   0.422   8.920 -0.1321  0.0809 -0.3385
  495POPI   C3A 7871   0.900   0.486   8.544 -0.0597 -0.3956 -0.0377
  495POPI   C4A 7872   1.313   0.657   8.269  0.0867 -0.3515  0.1402
  495POPI   C1B 7873  -0.070  -0.488   9.205 -0.1166 -0.5635 -0.0944
  495POPI   C2B 7874  -0.007  -0.470   8.724 -0.3258  0.0643 -0.0869
  495POPI   C3B 7875  -0.037  -0.307   8.227 -0.1454 -0.3372 -0.5003
  495POPI   C4B 7876   0.359  -0.239   7.991  0.2542 -0.1168  0.1537
  496POPI    C1 7877  12.178  14.967   9.565 -0.2923 -0.0148  0.2670
  496POPI    C2 7878  12.270  15.353   9.515 -0.1546 -0.0750  0.0389
  496POPI    C3 7879  12.256  15.197   9.883 -0.2034  0.1446  0.1317
  496POPI   PO4 7880  12.433  14.862   9.484 -0.1616  0.0861  0.2300
  496POPI   GL1 7881  12.581  14.973   9.135 -0.1442  0.0874 -0.0110
  496POPI   GL2 7882  12.288  15.119   9.083 -0.0653  0.0209 -0.0192
  496POPI   C1A 7883  12.762  15.067   8.698  0.0422  0.2006  0.0739
  496POPI   D2A 7884  12.881  14.871   8.351 -0.0403 -0.1698 -0.2498
  496POPI   C3A 7885  13.092  14.902   7.925  0.0486  0.0945 -0.0149
  496POPI   C4A 7886  12.954  14.981   7.581  0.2895 -0.1187  0.3213
  496POPI   C1B 7887  12.050  15.235   8.638  0.0332  0.1645  0.1440
  496POPI   C2B 7888  11.938  15.237   8.071 -0.0760  0.1095  0.0614
  496POPI   C3B 7889  11.935  15.254   7.558  0.1895  0.3083 -0.3101
  496POPI   C4B 7890  12.247  15.534   7.295 -0.0888  0.3196 -0.0014
  497POPI    C1 7891   6.283  15.451  10.255 -0.0249 -0.1822  0.2488
  497POPI    C2 7892   6.123  15.561  10.604  0.0955 -0.2358  0.3215
  497POPI    C3 7893   6.502  15.435  10.589  0.2226  0.1561  0.1082
  497POPI   PO4 7894   6.247  15.584  10.049 -0.1229  0.0320 -0.2412
  497POPI   GL1 7895   6.492  15.721   9.677  0.0056 -0.2232 -0.1024
  497POPI   GL2 7896   6.891  15.694   9.517  0.1038 -0.0847  0.0872
  497POPI   C1A 7897   6.468  15.432   9.289  0.2029  0.2058 -0.0937
  497POPI   D2A 7898   6.385  15.040   9.125 -0.2400  0.2134  0.4935
  497POPI   C3A 7899   6.362  14.828   8.796 -0.1957  0.2234  0.2507
  497POPI   C4A 7900   6.152  14.622   8.457 -0.0578  0.3831 -0.1863
  497POPI   C1B 7901   6.908  15.707   9.107 -0.2635  0.0159 -0.2504
  497POPI   C2B 7902   6.947  15.665   8.744  0.0661  0.2076 -0.1734
  497POPI   C3B 7903   6.741  15.567   8.285  0.0488 -0.1727  0.2576
  497POPI   C4B 7904   6.581  15.635   7.848 -0.0934 -0.3084  0.0424
  498POPI    C1 7905   7.612  13.306  10.304 -0.0774 -0.0598 -0.2649
  498POPI    C2 7906   7.661  13.438   9.929  0.0800 -0.0207 -0.2309
  498POPI    C3 7907   7.943  13.507  10.205  0.0274 -0.1690 -0.1388
  498POPI   PO4 7908   7.356  13.125  10.141 -0.2243 -0.0651  0.1310
  498POPI   GL1 7909   7.286  13.196   9.629 -0.1303  0.1415  0.2248
  498POPI   GL2 7910   7.142  13.478   9.686 -0.0545  0.1998  0.2638
  498POPI   C1A 7911   7.470  13.041   9.229  0.1798 -0.1522 -0.2738
  498POPI   D2A 7912   7.410  12.874   8.881  0.2145  0.2359  0.0810
  498POPI   C3A 7913   7.520  12.755   8.516 -0.1179  0.1794  0.1723
  498POPI   C4A 7914   7.448  12.580   8.087 -0.1530  0.0282 -0.2912
  498POPI   C1B 7915   7.134  13.404   9.158  0.0488 -0.2305  0.0908
  498POPI   C2B 7916   7.050  13.275   8.751 -0.1113  0.3025  0.1408
  498POPI   C3B 7917   7.107  13.116   8.348 -0.1478  0.0846 -0.1416
  498POPI   C4B 7918   7.070  13.180   7.934 -0.5394  0.0592  0.0258
  499POPI    C1 7919  18.321  17.098   9.757  0.1480 -0.0604 -0.1696
  499POPI    C2 7920  18.395  17.464   9.614  0.0644  0.0005 -0.0590
  499POPI    C3 7921  18.022  17.358   9.710  0.0819 -0.1289 -0.1307
  499POPI   PO4 7922  18.480  16.947   9.645  0.1132 -0.0400  0.3102
  499POPI   GL1 7923  18.713  16.714   9.241  0.0032  0.2735  0.1410
  499POPI   GL2 7924  19.025  16.938   9.188  0.0145  0.2134  0.1525
  499POPI   C1A 7925  18.754  16.855   8.758  0.1150  0.1787  0.0626
  499POPI   D2A 7926  18.601  17.063   8.390  0.0176  0.2389  0.0708
  499POPI   C3A 7927  18.526  16.990   7.974 -0.1927 -0.2153  0.2155
  499POPI   C4A 7928  18.344  16.845   7.525  0.0475 -0.3693 -0.3484
  499POPI   C1B 7929  19.157  17.190   8.785 -0.1016 -0.0671  0.1287
  499POPI   C2B 7930  19.126  17.545   8.417 -0.3524 -0.0320  0.0436
  499POPI   C3B 7931  18.878  17.362   8.000  0.1281 -0.1590 -0.1339
  499POPI   C4B 7932  18.706  17.312   7.548  0.2485  0.1149  0.1031
  500POPI    C1 7933   9.748   9.255  10.416 -0.0553  0.1049  0.3421
  500POPI    C2 7934   9.367   9.338  10.326 -0.0177  0.0796  0.1545
  500POPI    C3 7935   9.459   9.177  10.681 -0.2053 -0.1073  0.1202
  500POPI   PO4 7936   9.860   9.133  10.195  0.0786  0.1105  0.3128
  500POPI   GL1 7937   9.893   9.037   9.685 -0.3531  0.0638  0.0978
  500POPI   GL2 7938   9.974   9.222   9.573 -0.0569  0.1429 -0.1671
  500POPI   C1A 7939   9.608   8.786   9.443  0.0495 -0.0085  0.2239
  500POPI   D2A 7940   9.618   8.417   9.248  0.1669 -0.1024  0.1504
  500POPI   C3A 7941   9.601   8.514   8.739 -0.0566 -0.0984  0.1750
  500POPI   C4A 7942   9.631   8.567   8.292 -0.1278 -0.0296 -0.3318
  500POPI   C1B 7943   9.837   9.141   9.220 -0.0947 -0.2306  0.0495
  500POPI   C2B 7944   9.628   9.024   8.915  0.0621  0.0105  0.0195
  500POPI   C3B 7945   9.486   9.008   8.514 -0.1185  0.0815  0.1460
  500POPI   C4B 7946   9.160   9.087   8.209  0.0320 -0.0485  0.0403
  501POPI    C1 7947  14.069   1.732  10.295 -0.1357 -0.1224  0.1892
  501POPI    C2 7948  14.024   1.392  10.500 -0.0568 -0.0811  0.2757
  501POPI    C3 7949  14.149   1.723  10.687 -0.2664  0.0308  0.2207
  501POPI   PO4 7950  14.254   1.699  10.033 -0.2137 -0.1371  0.1759
  501POPI   GL1 7951  14.074   1.822   9.667  0.1293  0.0604  0.0754
  501POPI   GL2 7952  13.925   1.644   9.460 -0.0043 -0.0725 -0.0530
  501POPI   C1A 7953  13.663   2.086   9.553 -0.0833 -0.3204  0.0912
  501POPI   D2A 7954  13.428   2.448   9.394 -0.2242 -0.0768  0.3187
  501POPI   C3A 7955  13.353   2.317   9.061  0.2132 -0.0363 -0.0404
  501POPI   C4A 7956  13.158   2.354   8.722  0.3379  0.0027  0.0356
  501POPI   C1B 7957  13.987   1.542   9.016  0.1504  0.2148 -0.3883
  501POPI   C2B 7958  13.785   1.371   8.731  0.0879  0.2384 -0.0757
  501POPI   C3B 7959  13.846   1.464   8.261 -0.1897  0.1179 -0.0960
  501POPI   C4B 7960  13.713   1.514   7.819 -0.0891  0.1703  0.0930
  502POPI    C1 7961   1.024   2.172  10.309  0.0766 -0.1623 -0.1659
  502POPI    C2 7962   0.640   2.132  10.205  0.0105  0.2360 -0.0906
  502POPI    C3 7963   0.744   2.133  10.592  0.1411 -0.2801 -0.1175
  502POPI   PO4 7964   1.130   2.374  10.106 -0.0322 -0.0340  0.3642
  502POPI   GL1 7965   0.991   2.244   9.699  0.0626  0.3367 -0.3399
  502POPI   GL2 7966   0.750   2.312   9.470  0.0325 -0.1269  0.1975
  502POPI   C1A 7967   1.193   2.168   9.242  0.3231  0.2019 -0.3194
  502POPI   D2A 7968   1.551   2.171   9.022  0.1012  0.0678 -0.1847
  502POPI   C3A 7969   1.529   2.119   8.516  0.1030  0.3607  0.0556
  502POPI   C4A 7970   1.395   1.786   8.290  0.0225 -0.0764  0.0937
  502POPI   C1B 7971   0.886   2.526   9.026  0.1332  0.0902  0.1738
  502POPI   C2B 7972   0.761   2.664   8.665 -0.2097  0.1251  0.2455
  502POPI   C3B 7973   0.881   2.678   8.250 -0.1209 -0.0964 -0.1586
  502POPI   C4B 7974   0.639   2.294   8.059  0.1457 -0.2976 -0.3099
  503POPI    C1 7975   2.404   6.057  10.792 -0.0852  0.0389 -0.1277
  503POPI    C2 7976   2.109   6.240  10.989 -0.1211  0.1379 -0.2715
  503POPI    C3 7977   2.464   6.420  10.949 -0.1150  0.1196 -0.2996
  503POPI   PO4 7978   2.307   5.890  10.580 -0.1413 -0.2681  0.0839
  503POPI   GL1 7979   2.030   5.824  10.221 -0.2136 -0.2782 -0.1651
  503POPI   GL2 7980   2.065   6.084  10.090 -0.0507 -0.3038 -0.0124
  503POPI   C1A 7981   2.219   5.658   9.857 -0.1700 -0.0165  0.4148
  503POPI   D2A 7982   2.300   5.524   9.401 -0.1143 -0.1692 -0.0654
  503POPI   C3A 7983   2.246   5.634   9.027  0.1450 -0.2027  0.0744
  503POPI   C4A 7984   2.210   5.764   8.634 -0.2903  0.1952  0.0797
  503POPI   C1B 7985   1.866   6.100   9.713 -0.1170 -0.2358  0.0260
  503POPI   C2B 7986   1.829   6.125   9.303 -0.0665 -0.4374  0.3692
  503POPI   C3B 7987   1.951   6.187   8.826  0.0252  0.0367  0.1677
  503POPI   C4B 7988   1.956   6.224   8.450  0.0769 -0.2728 -0.0308
  504POPI    C1 7989  14.183  17.668   9.771 -0.0601 -0.0394  0.2230
  504POPI    C2 7990  13.924  17.364   9.785  0.1021 -0.1912 -0.0059
  504POPI    C3 7991  14.240  17.368  10.029 -0.0384 -0.0748  0.1770
  504POPI   PO4 7992  14.199  17.756   9.518  0.1099  0.1299  0.0276
  504POPI   GL1 7993  14.058  17.493   9.234  0.1950  0.2200  0.1208
  504POPI   GL2 7994  14.351  17.428   9.055 -0.1020  0.0627 -0.1837
  504POPI   C1A 7995  13.990  17.516   8.718  0.2370  0.0382 -0.4841
  504POPI   D2A 7996  13.744  17.494   8.325 -0.1659 -0.1048 -0.1716
  504POPI   C3A 7997  13.969  17.717   8.046  0.0830  0.0583  0.1694
  504POPI   C4A 7998  14.036  17.578   7.663 -0.0777 -0.0380 -0.3557
  504POPI   C1B 7999  14.722  17.401   8.808  0.2472 -0.2074  0.0973
  504POPI   C2B 8000  14.641  17.354   8.429 -0.3858  0.0188  0.0731
  504POPI   C3B 8001  14.793  17.250   7.998  0.1969 -0.2562 -0.0804
  504POPI   C4B 8002  15.030  17.471   7.629 -0.0681  0.5811 -0.1437
  505POPI    C1 8003  16.049  13.194  10.204  0.1200 -0.0042 -0.2614
  505POPI    C2 8004  16.348  13.220  10.468  0.0645  0.0573 -0.2042
  505POPI    C3 8005  16.020  13.443  10.515 -0.1402 -0.2636 -0.0721
  505POPI   PO4 8006  16.164  13.240   9.958 -0.1612  0.2423  0.1068
  505POPI   GL1 8007  16.140  13.578   9.676 -0.1847  0.2002 -0.1288
  505POPI   GL2 8008  16.269  13.689   9.386 -0.3717  0.2461 -0.3096
  505POPI   C1A 8009  16.131  13.260   9.283  0.1082 -0.1141 -0.3770
  505POPI   D2A 8010  16.465  13.198   8.964  0.0124 -0.1575 -0.0943
  505POPI   C3A 8011  16.560  13.317   8.543 -0.1158  0.2134 -0.2806
  505POPI   C4A 8012  16.473  13.150   8.097  0.1299  0.2038 -0.2434
  505POPI   C1B 8013  16.638  13.718   9.136 -0.1492 -0.1536 -0.1340
  505POPI   C2B 8014  16.691  13.756   8.818  0.0094  0.2703  0.0042
  505POPI   C3B 8015  16.692  13.958   8.399 -0.2671  0.1633 -0.1219
  505POPI   C4B 8016  16.800  14.039   7.960  0.1461  0.1381 -0.1939
  506POPI    C1 8017   3.593  15.458  10.428  0.2110 -0.0406 -0.2439
  506POPI    C2 8018   3.923  15.244  10.506  0.1894  0.0596  0.1430
  506POPI    C3 8019   3.731  15.432  10.803  0.1403  0.5227 -0.1703
  506POPI   PO4 8020   3.643  15.416  10.132  0.1020  0.0248  0.1462
  506POPI   GL1 8021   3.519  15.320   9.697 -0.0474  0.3067  0.0572
  506POPI   GL2 8022   3.790  15.195   9.619  0.1995 -0.0854 -0.1561
  506POPI   C1A 8023   3.281  15.090   9.389 -0.2089  0.2007  0.1430
  506POPI   D2A 8024   3.028  14.813   9.059  0.2240 -0.1322 -0.0739
  506POPI   C3A 8025   3.066  14.700   8.774 -0.2085  0.3714  0.2368
  506POPI   C4A 8026   3.127  14.556   8.446 -0.1863 -0.3690 -0.0662
  506POPI   C1B 8027   3.707  15.060   9.157 -0.3372  0.2663 -0.2261
  506POPI   C2B 8028   3.538  15.056   8.869 -0.0252 -0.0811  0.0452
  506POPI   C3B 8029   3.563  14.925   8.474 -0.2959 -0.0994  0.0965
  506POPI   C4B 8030   3.701  14.764   8.013  0.0416  0.0048  0.2864
  507POPI    C1 8031  10.350   6.450  10.158  0.0057 -0.3091  0.0469
  507POPI    C2 8032  10.033   6.205  10.154 -0.2504  0.0121  0.1946
  507POPI    C3 8033   9.982   6.597  10.214  0.1532  0.1073 -0.0442
  507POPI   PO4 8034  10.450   6.379   9.920  0.1265  0.2175 -0.0166
  507POPI   GL1 8035  10.308   6.362   9.537  0.1025  0.3109 -0.2128
  507POPI   GL2 8036  10.145   6.061   9.670  0.2583 -0.0489 -0.1277
  507POPI   C1A 8037  10.364   6.313   9.146  0.1253 -0.0774  0.0546
  507POPI   D2A 8038  10.442   6.405   8.709 -0.0018  0.2344  0.2117
  507POPI   C3A 8039  10.485   6.161   8.201 -0.0539  0.4697 -0.1607
  507POPI   C4A 8040  10.774   5.994   7.966 -0.1801  0.0147 -0.0208
  507POPI   C1B 8041  10.111   5.828   9.285 -0.0258 -0.2664  0.2046
  507POPI   C2B 8042   9.888   5.627   8.968 -0.0221  0.2900 -0.2124
  507POPI   C3B 8043   9.716   5.326   8.744  0.0912 -0.0120 -0.4012
  507POPI   C4B 8044   9.733   5.301   8.366 -0.1151  0.2958  0.1303
  508POPI    C1 8045   2.098   3.987  10.524  0.1429  0.0601  0.0085
  508POPI    C2 8046   2.005   3.852  10.889  0.1271 -0.1607 -0.0758
  508POPI    C3 8047   2.290   4.129  10.845  0.0620 -0.0622  0.1122
  508POPI   PO4 8048   1.982   4.178  10.422 -0.1496 -0.0919  0.0217
  508POPI   GL1 8049   1.747   4.360  10.043 -0.1536  0.0949 -0.0907
  508POPI   GL2 8050   1.409   4.401   9.916 -0.3794  0.1083 -0.5285
  508POPI   C1A 8051   1.769   4.602   9.666 -0.0139  0.1811 -0.0128
  508POPI   D2A 8052   1.727   4.705   9.226 -0.0953  0.0998 -0.1269
  508POPI   C3A 8053   1.646   4.789   8.769  0.2269 -0.2369 -0.2252
  508POPI   C4A 8054   1.797   4.928   8.390  0.1642 -0.1228 -0.1092
  508POPI   C1B 8055   1.081   4.258   9.736 -0.0292  0.0517  0.1401
  508POPI   C2B 8056   0.966   4.342   9.373 -0.3408 -0.0165 -0.2953
  508POPI   C3B 8057   0.888   4.292   8.904  0.2784 -0.0673 -0.0094
  508POPI   C4B 8058   0.908   4.389   8.498  0.2219 -0.0093 -0.0598
  509POPI    C1 8059  16.515  12.675  10.438 -0.0784 -0.1060 -0.0766
  509POPI    C2 8060  16.146  12.736  10.581 -0.0755 -0.0286 -0.1017
  509POPI    C3 8061  16.464  12.787  10.818 -0.0679  0.1486 -0.1488
  509POPI   PO4 8062  16.449  12.856  10.141  0.0017  0.2051 -0.1333
  509POPI   GL1 8063  16.519  12.793   9.801  0.0670  0.1632  0.1315
  509POPI   GL2 8064  16.621  12.591   9.644  0.0314  0.1551  0.0821
  509POPI   C1A 8065  16.344  12.784   9.342  0.1456  0.1617  0.0624
  509POPI   D2A 8066  16.160  12.763   9.038 -0.4174 -0.0155  0.0524
  509POPI   C3A 8067  16.245  12.815   8.671  0.2741  0.3755 -0.2599
  509POPI   C4A 8068  16.424  12.661   8.401  0.0269  0.1017 -0.0430
  509POPI   C1B 8069  16.594  12.353   9.199 -0.1185 -0.1840 -0.0191
  509POPI   C2B 8070  16.595  12.404   8.782 -0.1748 -0.1805  0.1672
  509POPI   C3B 8071  16.761  12.260   8.410 -0.2547  0.2407 -0.0272
  509POPI   C4B 8072  16.794  11.959   8.065  0.1529  0.0355 -0.1962
  510POPI    C1 8073  16.593  14.525   9.852  0.0001  0.1229  0.1727
  510POPI    C2 8074  16.411  14.720  10.150 -0.0086 -0.0303  0.2684
  510POPI    C3 8075  16.540  14.345  10.205 -0.1136 -0.1010  0.0439
  510POPI   PO4 8076  16.430  14.619   9.666 -0.0933 -0.3619  0.2537
  510POPI   GL1 8077  16.671  14.755   9.363 -0.0181  0.2383  0.1706
  510POPI   GL2 8078  16.473  14.951   9.114 -0.0102  0.0129  0.0450
  510POPI   C1A 8079  16.986  14.460   9.149 -0.1147  0.2290 -0.2135
  510POPI   D2A 8080  16.917  14.203   8.770 -0.2679 -0.0956 -0.3643
  510POPI   C3A 8081  17.148  14.283   8.432  0.1659 -0.2269 -0.4463
  510POPI   C4A 8082  17.186  14.331   7.971  0.0266 -0.0003  0.1753
  510POPI   C1B 8083  16.610  14.640   8.875  0.1388 -0.3390 -0.0550
  510POPI   C2B 8084  16.711  14.517   8.478 -0.1002 -0.1303 -0.0199
  510POPI   C3B 8085  16.705  14.526   8.069 -0.0977 -0.1033 -0.4141
  510POPI   C4B 8086  16.944  14.790   7.914 -0.1200  0.0575  0.2828
  511POPI    C1 8087  18.519   3.059  10.312 -0.1753  0.0532  0.1706
  511POPI    C2 8088  18.469   2.663  10.345 -0.1866  0.0501  0.1164
  511POPI    C3 8089  18.391   2.901  10.657  0.2333 -0.0302  0.2894
  511POPI   PO4 8090  18.457   3.129  10.006 -0.0367 -0.1267  0.1024
  511POPI   GL1 8091  18.517   3.130   9.606 -0.0131 -0.0503 -0.3360
  511POPI   GL2 8092  18.268   3.054   9.379  0.0434 -0.3258 -0.1709
  511POPI   C1A 8093  18.843   3.205   9.176  0.0780 -0.0277 -0.3185
  511POPI   D2A 8094  18.951   3.455   8.886 -0.0446 -0.0778  0.0659
  511POPI   C3A 8095  18.905   3.391   8.453 -0.2897 -0.2772  0.1295
  511POPI   C4A 8096  18.967   3.565   7.993  0.0164 -0.1011  0.0919
  511POPI   C1B 8097  18.389   3.349   9.130 -0.0077 -0.1211  0.1540
  511POPI   C2B 8098  18.484   3.535   8.742 -0.3015 -0.0491 -0.0496
  511POPI   C3B 8099  18.532   3.639   8.216  0.1640  0.2606 -0.2495
  511POPI   C4B 8100  18.706   3.986   8.020  0.4060  0.2346 -0.3446
  512POPI    C1 8101  15.917   5.929  10.241 -0.0399 -0.1239 -0.0002
  512POPI    C2 8102  15.683   6.238  10.341  0.0979  0.0249 -0.1323
  512POPI    C3 8103  15.820   5.991  10.624  0.0099  0.1010 -0.0225
  512POPI   PO4 8104  15.763   5.785   9.989  0.2176 -0.0650 -0.1389
  512POPI   GL1 8105  15.911   5.768   9.574 -0.1980 -0.0446 -0.2421
  512POPI   GL2 8106  15.814   5.431   9.704 -0.1245  0.1502 -0.0503
  512POPI   C1A 8107  16.055   5.828   9.154 -0.1328 -0.3769  0.0224
  512POPI   D2A 8108  16.130   5.829   8.775  0.0152 -0.0498 -0.0881
  512POPI   C3A 8109  16.112   5.855   8.483 -0.1533 -0.1575  0.0195
  512POPI   C4A 8110  16.151   5.697   8.149  0.0145 -0.1487 -0.0148
  512POPI   C1B 8111  15.605   5.440   9.359 -0.0360 -0.1191  0.1840
  512POPI   C2B 8112  15.765   5.455   9.013  0.0704 -0.0050 -0.4286
  512POPI   C3B 8113  15.893   5.357   8.593 -0.0373 -0.2408 -0.3575
  512POPI   C4B 8114  15.697   5.498   8.107  0.0157  0.3525 -0.0439
  513POPI    C1 8115   8.003  14.827   9.698  0.0291 -0.0508  0.0679
  513POPI    C2 8116   7.872  14.812  10.076 -0.2346 -0.0944 -0.0232
  513POPI    C3 8117   7.718  15.078   9.821 -0.3774 -0.3594 -0.2190
  513POPI   PO4 8118   8.048  14.647   9.572 -0.1785  0.1479  0.0727
  513POPI   GL1 8119   7.811  14.660   9.219 -0.0922  0.0047 -0.0857
  513POPI   GL2 8120   7.786  15.032   9.337 -0.3357  0.0384  0.2256
  513POPI   C1A 8121   7.650  14.636   8.879 -0.0289  0.3250  0.1474
  513POPI   D2A 8122   7.767  14.526   8.430  0.2469  0.1614 -0.1016
  513POPI   C3A 8123   7.596  14.335   8.105  0.0555  0.0849 -0.0634
  513POPI   C4A 8124   7.580  14.109   7.893  0.3530  0.0194  0.2886
  513POPI   C1B 8125   7.736  15.131   8.892  0.1181  0.0441  0.1509
  513POPI   C2B 8126   7.674  15.046   8.479 -0.1323  0.0809  0.3520
  513POPI   C3B 8127   7.457  14.828   8.147 -0.0370 -0.2026  0.3087
  513POPI   C4B 8128   7.578  14.681   7.709  0.0898 -0.3191 -0.1434
  514POPI    C1 8129   8.837  17.470  10.035 -0.0108  0.1706  0.0924
  514POPI    C2 8130   8.958  17.113  10.170 -0.0509  0.1127 -0.0233
  514POPI    C3 8131   8.600  17.257  10.277  0.0337  0.1931  0.1563
  514POPI   PO4 8132   8.945  17.512   9.721 -0.0157  0.0639 -0.0102
  514POPI   GL1 8133   9.282  17.585   9.389  0.0789  0.0421 -0.0544
  514POPI   GL2 8134   9.718  17.580   9.363  0.3450  0.1643  0.2217
  514POPI   C1A 8135   9.178  17.575   8.883  0.2755 -0.0975 -0.0466
  514POPI   D2A 8136   9.259  17.484   8.440  0.2504 -0.0466  0.0431
  514POPI   C3A 8137   9.325  17.607   7.971 -0.1312 -0.0005 -0.1570
  514POPI   C4A 8138   9.547  17.707   7.619  0.3347 -0.0507  0.2077
  514POPI   C1B 8139   9.675  17.647   8.990  0.2135  0.3063 -0.0489
  514POPI   C2B 8140   9.739  17.675   8.544  0.1741 -0.0553 -0.1984
  514POPI   C3B 8141   9.764  17.719   8.148 -0.0501 -0.0046  0.2181
  514POPI   C4B 8142   9.772  17.388   7.926 -0.0472 -0.1018  0.0926
  515POPI    C1 8143  17.410  11.086  10.187  0.0754 -0.1739 -0.2367
  515POPI    C2 8144  17.603  10.791  10.377 -0.0205  0.0351  0.1983
  515POPI    C3 8145  17.292  10.972  10.552 -0.2240  0.1199 -0.2376
  515POPI   PO4 8146  17.555  11.242  10.080 -0.0402  0.4773 -0.1030
  515POPI   GL1 8147  17.506  11.336   9.649  0.3067  0.1200  0.1036
  515POPI   GL2 8148  17.329  11.209   9.690  0.0713  0.0085 -0.1007
  515POPI   C1A 8149  17.818  11.421   9.424  0.1094  0.0261 -0.0124
  515POPI   D2A 8150  18.025  11.220   9.194 -0.0964 -0.2671  0.1049
  515POPI   C3A 8151  17.968  11.372   8.850  0.0118  0.3209 -0.1387
  515POPI   C4A 8152  18.081  11.323   8.399 -0.3501 -0.4737 -0.2762
  515POPI   C1B 8153  17.392  11.230   9.191  0.0066  0.0489 -0.0395
  515POPI   C2B 8154  17.475  11.198   8.809  0.1841  0.0932 -0.2477
  515POPI   C3B 8155  17.579  11.232   8.449  0.1656 -0.1153  0.2297
  515POPI   C4B 8156  17.587  11.151   8.016  0.2217 -0.1611 -0.1631
  516POPI    C1 8157  17.867   1.080   9.660  0.1681 -0.0972 -0.0904
  516POPI    C2 8158  17.788   1.451   9.531  0.1804 -0.1196 -0.1625
  516POPI    C3 8159  17.837   1.381   9.922  0.2789 -0.0267 -0.1582
  516POPI   PO4 8160  18.029   1.012   9.539 -0.0236  0.0371 -0.2162
  516POPI   GL1 8161  18.114   1.084   9.168  0.1104  0.2065  0.0944
  516POPI   GL2 8162  17.887   1.313   9.008 -0.2258 -0.2462 -0.0515
  516POPI   C1A 8163  18.247   0.986   8.753 -0.1503 -0.1994 -0.1654
  516POPI   D2A 8164  18.537   0.627   8.506 -0.2818 -0.1302 -0.1133
  516POPI   C3A 8165  18.581   0.601   8.058 -0.0955  0.2020  0.0342
  516POPI   C4A 8166  18.578   0.741   7.593 -0.0982  0.1699  0.1776
  516POPI   C1B 8167  18.049   1.415   8.603  0.0732  0.1006 -0.2525
  516POPI   C2B 8168  18.162   1.485   8.210  0.2941  0.0042  0.2339
  516POPI   C3B 8169  18.333   1.635   7.901  0.0058 -0.0824  0.4318
  516POPI   C4B 8170  18.602   1.406   7.558  0.1407 -0.0145 -0.0551
  517POPI    C1 8171   8.465  15.193   9.768 -0.0029 -0.1277 -0.0185
  517POPI    C2 8172   8.203  15.377  10.008  0.4515  0.3097  0.1586
  517POPI    C3 8173   8.318  15.003  10.088 -0.2090  0.0600  0.0013
  517POPI   PO4 8174   8.346  15.203   9.541  0.0709  0.0461 -0.0684
  517POPI   GL1 8175   8.285  15.414   9.086  0.2168  0.2596  0.1557
  517POPI   GL2 8176   8.291  15.682   9.124 -0.1601  0.2277 -0.0581
  517POPI   C1A 8177   8.234  15.322   8.606 -0.0785  0.1156 -0.1525
  517POPI   D2A 8178   8.064  15.304   8.286 -0.2365  0.0020 -0.0719
  517POPI   C3A 8179   7.951  14.941   8.015 -0.0762 -0.1853  0.0489
  517POPI   C4A 8180   8.080  14.669   7.703  0.0383  0.0526 -0.0677
  517POPI   C1B 8181   8.453  15.719   8.689 -0.0408  0.0124 -0.0626
  517POPI   C2B 8182   8.482  15.659   8.244 -0.1529 -0.4379 -0.0337
  517POPI   C3B 8183   8.824  15.567   7.974  0.3020 -0.1383  0.3626
  517POPI   C4B 8184   8.670  15.413   7.612  0.0140 -0.1801 -0.0510
  518POPI    C1 8185  18.662  10.176  10.488  0.0915 -0.1926  0.0430
  518POPI    C2 8186  18.369  10.290  10.736  0.0166 -0.1817 -0.0500
  518POPI    C3 8187  18.701  10.121  10.882 -0.0394 -0.2012  0.0551
  518POPI   PO4 8188  18.567  10.017  10.219  0.3089  0.1960 -0.1515
  518POPI   GL1 8189  18.834   9.916   9.876  0.0190  0.0910 -0.1340
  518POPI   GL2 8190  19.146   9.783   9.865 -0.0716  0.0109  0.0379
  518POPI   C1A 8191  18.826   9.803   9.503 -0.0621 -0.1356 -0.1273
  518POPI   D2A 8192  18.893   9.771   9.062 -0.0512 -0.0630 -0.1001
  518POPI   C3A 8193  18.738   9.828   8.693 -0.0470  0.3167 -0.0299
  518POPI   C4A 8194  18.617   9.859   8.244  0.0035  0.1639 -0.1996
  518POPI   C1B 8195  19.377   9.910   9.471 -0.1848 -0.2096  0.3892
  518POPI   C2B 8196  19.358   9.821   9.038 -0.0505  0.2364 -0.0453
  518POPI   C3B 8197  19.209   9.697   8.625 -0.3110  0.6284  0.0310
  518POPI   C4B 8198  19.331   9.804   8.247  0.2534  0.2067  0.1585
  519POPI    C1 8199  16.602  15.594   9.985  0.0988 -0.0075  0.1554
  519POPI    C2 8200  16.242  15.423  10.023 -0.0308  0.1880 -0.1549
  519POPI    C3 8201  16.515  15.382  10.313 -0.3859  0.2369  0.1937
  519POPI   PO4 8202  16.652  15.549   9.746  0.4151 -0.1165  0.1693
  519POPI   GL1 8203  16.844  15.339   9.378  0.1420  0.0856  0.0007
  519POPI   GL2 8204  17.025  15.652   9.455  0.1806 -0.1918  0.0661
  519POPI   C1A 8205  16.951  14.945   8.998  0.0881  0.1773  0.0111
  519POPI   D2A 8206  17.064  14.861   8.644  0.0552 -0.1107  0.0712
  519POPI   C3A 8207  17.379  14.685   8.432  0.1259 -0.3248 -0.2225
  519POPI   C4A 8208  17.528  14.643   8.098  0.2785  0.0639  0.1403
  519POPI   C1B 8209  17.194  15.516   9.070 -0.0963  0.0080 -0.0191
  519POPI   C2B 8210  17.209  15.402   8.687  0.2328 -0.1750  0.1759
  519POPI   C3B 8211  17.321  15.207   8.340  0.0359 -0.0940  0.0459
  519POPI   C4B 8212  17.206  15.245   7.943  0.0183  0.0102  0.0580
  520POPI    C1 8213  10.123  16.771   9.938 -0.1645  0.1430  0.1752
  520POPI    C2 8214  10.440  16.705  10.173  0.1009 -0.0138 -0.2159
  520POPI    C3 8215  10.099  16.508  10.238  0.1045  0.0958  0.1586
  520POPI   PO4 8216  10.183  16.993   9.864 -0.2139 -0.0210 -0.1558
  520POPI   GL1 8217  10.204  17.026   9.415 -0.1419 -0.2373  0.0840
  520POPI   GL2 8218   9.857  16.987   9.521 -0.1241 -0.1808 -0.1683
  520POPI   C1A 8219  10.380  17.092   8.915 -0.0157 -0.0751  0.0264
  520POPI   D2A 8220  10.538  17.259   8.570  0.3979 -0.2428 -0.4862
  520POPI   C3A 8221  10.694  17.186   8.194  0.2013 -0.1388 -0.2246
  520POPI   C4A 8222  10.677  17.264   7.762 -0.0020  0.1032  0.2780
  520POPI   C1B 8223   9.865  17.198   9.096  0.0619 -0.1387 -0.1010
  520POPI   C2B 8224  10.038  17.307   8.685 -0.1458 -0.1491  0.1162
  520POPI   C3B 8225  10.199  17.417   8.232 -0.0883  0.0947  0.0266
  520POPI   C4B 8226  10.416  17.624   7.979 -0.2224 -0.2095  0.3501
  521POPI    C1 8227   3.686  17.841  10.146 -0.0771  0.0595  0.0809
  521POPI    C2 8228   3.520  17.477  10.137 -0.2188  0.1206  0.1899
  521POPI    C3 8229   3.289  17.802  10.163 -0.0937  0.2203  0.0758
  521POPI   PO4 8230   3.816  17.864   9.956  0.1640 -0.2218 -0.1080
  521POPI   GL1 8231   3.946  17.949   9.508  0.1854 -0.0280 -0.4969
  521POPI   GL2 8232   4.195  17.738   9.538 -0.0476 -0.0529  0.0789
  521POPI   C1A 8233   3.895  17.921   9.084  0.0815 -0.0221 -0.0980
  521POPI   D2A 8234   4.069  17.938   8.727  0.1028  0.0305 -0.0094
  521POPI   C3A 8235   4.035  18.169   8.387  0.2529  0.0333 -0.0679
  521POPI   C4A 8236   3.766  18.466   8.239  0.1599  0.0370 -0.0385
  521POPI   C1B 8237   4.285  17.534   9.106 -0.1467  0.1023  0.2151
  521POPI   C2B 8238   4.170  17.443   8.632  0.0183  0.0077 -0.0551
  521POPI   C3B 8239   3.922  17.292   8.307 -0.1243 -0.0079  0.0495
  521POPI   C4B 8240   3.668  17.311   7.917  0.1441 -0.0920  0.2596
  522POPI    C1 8241   3.017   0.018  10.431  0.2519  0.3752 -0.3794
  522POPI    C2 8242   3.195   0.313  10.634  0.0098  0.1024  0.2573
  522POPI    C3 8243   2.796   0.299  10.611  0.0296  0.0285 -0.0959
  522POPI   PO4 8244   3.083   0.028  10.165  0.2650 -0.3241 -0.3060
  522POPI   GL1 8245   2.931   0.316   9.848 -0.0340  0.1892  0.3679
  522POPI   GL2 8246   2.828  -0.046   9.767  0.5564  0.2205  0.2423
  522POPI   C1A 8247   2.965   0.335   9.476 -0.1597  0.1641 -0.1505
  522POPI   D2A 8248   2.922   0.397   9.089  0.1655  0.0686 -0.2157
  522POPI   C3A 8249   3.164   0.341   8.745 -0.0944 -0.2113  0.0780
  522POPI   C4A 8250   3.434   0.268   8.354 -0.2971 -0.1292  0.1380
  522POPI   C1B 8251   2.668  -0.035   9.297  0.0372 -0.1663 -0.1457
  522POPI   C2B 8252   2.546   0.145   8.934  0.3928 -0.0674 -0.1082
  522POPI   C3B 8253   2.689  -0.108   8.650 -0.1726 -0.0785  0.0357
  522POPI   C4B 8254   2.519  -0.183   8.297 -0.3652 -0.1436 -0.1080
  523POPI    C1 8255  17.755   0.597   9.917 -0.0023  0.1215  0.3771
  523POPI    C2 8256  18.140   0.627   9.811 -0.0261 -0.0653  0.2340
  523POPI    C3 8257  18.039   0.433  10.146 -0.0099 -0.2069  0.1580
  523POPI   PO4 8258  17.635   0.617   9.727  0.3055  0.2828 -0.2462
  523POPI   GL1 8259  17.797   0.639   9.217 -0.1119  0.2571 -0.2014
  523POPI   GL2 8260  18.047   0.493   9.321  0.1694 -0.0325  0.1166
  523POPI   C1A 8261  17.882   0.681   8.808 -0.2343  0.2377 -0.2897
  523POPI   D2A 8262  18.003   0.649   8.461 -0.1061  0.0273  0.1304
  523POPI   C3A 8263  18.206   0.898   8.095  0.0002 -0.0671 -0.0374
  523POPI   C4A 8264  18.237   1.153   7.838 -0.0511 -0.1452  0.0773
  523POPI   C1B 8265  18.296   0.461   8.985 -0.2511  0.0653  0.2868
  523POPI   C2B 8266  18.238   0.092   8.757  0.2833  0.2743 -0.2713
  523POPI   C3B 8267  18.396   0.143   8.372  0.1073  0.0112 -0.3546
  523POPI   C4B 8268  18.606   0.083   7.966  0.0110  0.0555  0.2616
  524DPPI    C1 8269   4.064   6.947  10.589  0.0787 -0.2049 -0.0029
  524DPPI    C2 8270   3.795   7.090  10.848  0.1612  0.1215 -0.0916
  524DPPI    C3 8271   4.125   6.909  10.983  0.0286 -0.0394  0.0219
  524DPPI   PO4 8272   3.791   6.882  10.357 -0.0897 -0.2258 -0.1035
  524DPPI   GL1 8273   3.762   7.059  10.032  0.2720  0.1674 -0.2197
  524DPPI   GL2 8274   3.870   7.294   9.857 -0.1246  0.0691 -0.0555
  524DPPI   C1A 8275   3.715   6.998   9.515 -0.0940 -0.1405 -0.2407
  524DPPI   C2A 8276   3.648   6.967   9.024  0.6261  0.1027  0.0925
  524DPPI   C3A 8277   3.640   6.984   8.568 -0.2233  0.0133 -0.0640
  524DPPI   C4A 8278   3.583   6.972   8.098 -0.5840 -0.0746 -0.3410
  524DPPI   C1B 8279   3.995   7.436   9.574 -0.2786 -0.0817  0.1292
  524DPPI   C2B 8280   3.894   7.371   9.171  0.1133  0.1316 -0.2430
  524DPPI   C3B 8281   3.941   7.469   8.720 -0.2035 -0.1358 -0.2192
  524DPPI   C4B 8282   3.851   7.353   8.294  0.1242  0.0484  0.4251
  525DPPI    C1 8283  12.198  15.846  10.038  0.0442  0.0861  0.1965
  525DPPI    C2 8284  11.957  16.162  10.080  0.0910  0.1402  0.0625
  525DPPI    C3 8285  12.140  16.007  10.400  0.1323  0.2994  0.1170
  525DPPI   PO4 8286  12.133  15.741   9.805  0.1177 -0.3187 -0.2007
  525DPPI   GL1 8287  12.013  15.816   9.353 -0.3801 -0.1154 -0.0063
  525DPPI   GL2 8288  12.329  15.825   9.294  0.0778 -0.3384 -0.3165
  525DPPI   C1A 8289  11.940  15.668   8.918  0.1337  0.4436  0.1290
  525DPPI   C2A 8290  12.193  15.767   8.554 -0.3378 -0.0255 -0.1848
  525DPPI   C3A 8291  12.005  15.714   8.176  0.1127 -0.0964  0.0354
  525DPPI   C4A 8292  11.739  15.725   7.811 -0.0568  0.1914 -0.0473
  525DPPI   C1B 8293  12.452  16.030   8.996 -0.0170  0.2261 -0.1530
  525DPPI   C2B 8294  12.551  16.071   8.591  0.4853 -0.2087  0.0824
  525DPPI   C3B 8295  12.576  15.889   8.212  0.0767 -0.1269  0.0590
  525DPPI   C4B 8296  12.381  15.631   7.823 -0.0050  0.1472  0.3969
  526DPPI    C1 8297   7.366   9.305  10.700  0.1724 -0.0148  0.1126
  526DPPI    C2 8298   7.625   9.577  10.836  0.0778  0.1055  0.0544
  526DPPI    C3 8299   7.379   9.391  11.090  0.0978  0.1213  0.0855
  526DPPI   PO4 8300   7.195   9.448  10.535  0.0759 -0.1901  0.1516
  526DPPI   GL1 8301   7.211   9.407  10.096 -0.2237  0.2450 -0.1995
  526DPPI   GL2 8302   6.857   9.382  10.069 -0.2104  0.0199 -0.1021
  526DPPI   C1A 8303   7.525   9.513   9.779 -0.1091 -0.0078  0.0475
  526DPPI   C2A 8304   7.458   9.566   9.377  0.0645 -0.2309  0.1134
  526DPPI   C3A 8305   7.373   9.577   8.983  0.0343  0.0295  0.0945
  526DPPI   C4A 8306   7.395   9.618   8.496 -0.1023  0.0256 -0.1430
  526DPPI   C1B 8307   6.961   9.492   9.626 -0.2597 -0.1275  0.2278
  526DPPI   C2B 8308   6.889   9.520   9.191 -0.0166  0.2577  0.3990
  526DPPI   C3B 8309   6.923   9.637   8.710  0.1066 -0.1060  0.3275
  526DPPI   C4B 8310   6.938   9.574   8.178  0.2749  0.1423  0.0194
  527DPPI    C1 8311   1.116  18.141   9.901 -0.0629 -0.0825  0.0118
  527DPPI    C2 8312   1.007  18.394  10.192  0.0640 -0.1765  0.1423
  527DPPI    C3 8313   1.366  18.218  10.203  0.0405 -0.2381 -0.0332
  527DPPI   PO4 8314   0.986  17.898   9.895 -0.1086 -0.2344  0.2557
  527DPPI   GL1 8315   0.931  17.653   9.540 -0.0109  0.0769  0.0391
  527DPPI   GL2 8316   1.173  17.734   9.484 -0.0930 -0.0022  0.0164
  527DPPI   C1A 8317   0.822  17.397   9.167  0.3295  0.1364  0.0075
  527DPPI   C2A 8318   0.945  17.314   8.695 -0.0774 -0.0812 -0.1740
  527DPPI   C3A 8319   0.923  17.234   8.237 -0.3104  0.3438 -0.1727
  527DPPI   C4A 8320   0.729  17.395   7.929  0.0354 -0.0111  0.1723
  527DPPI   C1B 8321   1.319  17.630   9.133 -0.1203  0.2030  0.1215
  527DPPI   C2B 8322   1.418  17.511   8.757 -0.0603  0.2099  0.0982
  527DPPI   C3B 8323   1.418  17.402   8.361  0.1828  0.1098 -0.0614
  527DPPI   C4B 8324   1.474  17.478   7.936  0.0349  0.3181 -0.1041
  528DPPI    C1 8325   4.109  16.370  10.063  0.0550  0.1632  0.0537
  528DPPI    C2 8326   4.413  16.186  10.246 -0.0197 -0.0132  0.0028
  528DPPI    C3 8327   4.223  16.487  10.428 -0.0657 -0.1591  0.1987
  528DPPI   PO4 8328   3.981  16.134   9.900  0.1436 -0.2233 -0.0311
  528DPPI   GL1 8329   3.958  16.240   9.466  0.0769  0.0344  0.1395
  528DPPI   GL2 8330   4.231  15.955   9.495  0.2235 -0.0094 -0.0485
  528DPPI   C1A 8331   3.838  15.987   9.202 -0.1159 -0.0991  0.1142
  528DPPI   C2A 8332   4.040  15.804   8.880 -0.0266  0.2894 -0.0895
  528DPPI   C3A 8333   3.851  15.792   8.436 -0.1016 -0.1706  0.0667
  528DPPI   C4A 8334   3.817  15.691   8.052 -0.0008 -0.0681  0.3986
  528DPPI   C1B 8335   4.453  16.139   9.278  0.1325 -0.3375 -0.1214
  528DPPI   C2B 8336   4.580  16.090   8.920 -0.2223  0.4771  0.0470
  528DPPI   C3B 8337   4.664  16.028   8.406 -0.4205  0.2459 -0.4767
  528DPPI   C4B 8338   4.791  16.152   8.015  0.2088 -0.1721  0.1884
  529DPPI    C1 8339  15.828  13.982   9.780  0.0987  0.1620 -0.1235
  529DPPI    C2 8340  15.891  13.727  10.082 -0.0325 -0.1460 -0.3514
  529DPPI    C3 8341  15.694  14.069  10.147  0.1757 -0.0818 -0.0358
  529DPPI   PO4 8342  15.760  13.872   9.525  0.1662  0.1558  0.0992
  529DPPI   GL1 8343  15.750  14.050   9.112 -0.1329 -0.0371 -0.2288
  529DPPI   GL2 8344  15.559  13.892   8.946  0.1342  0.1934  0.2400
  529DPPI   C1A 8345  16.164  13.842   8.929  0.0004  0.1706  0.0744
  529DPPI   C2A 8346  16.215  13.737   8.597  0.2165 -0.1416  0.0349
  529DPPI   C3A 8347  16.286  13.685   8.141  0.2676  0.1534  0.2162
  529DPPI   C4A 8348  16.394  13.540   7.771 -0.0146  0.0134  0.3267
  529DPPI   C1B 8349  15.709  13.829   8.510  0.1171 -0.0774 -0.0584
  529DPPI   C2B 8350  15.856  13.916   8.059 -0.3230 -0.3229 -0.0397
  529DPPI   C3B 8351  15.916  14.013   7.629  0.1266  0.1449 -0.0310
  529DPPI   C4B 8352  15.780  13.938   7.218  0.4744  0.0778  0.1988
  530DPPI    C1 8353  11.682   3.667  10.194  0.1865 -0.2975  0.1332
  530DPPI    C2 8354  11.809   3.846  10.529  0.3147 -0.0978 -0.0196
  530DPPI    C3 8355  11.417   3.831  10.447  0.2986  0.0611  0.0245
  530DPPI   PO4 8356  11.851   3.772   9.967  0.3061 -0.0412  0.0139
  530DPPI   GL1 8357  11.874   3.556   9.540  0.0586 -0.0519 -0.1950
  530DPPI   GL2 8358  11.721   3.270   9.494 -0.2825 -0.0938 -0.0963
  530DPPI   C1A 8359  11.830   3.711   9.197 -0.0142 -0.0836 -0.1989
  530DPPI   C2A 8360  11.866   3.851   8.841 -0.0785  0.2942 -0.1030
  530DPPI   C3A 8361  11.960   3.629   8.471 -0.3466 -0.0055 -0.0727
  530DPPI   C4A 8362  11.749   3.609   8.081  0.2614 -0.0453  0.1653
  530DPPI   C1B 8363  11.759   2.962   9.114 -0.3862 -0.0964  0.0082
  530DPPI   C2B 8364  11.577   2.856   8.681  0.3667  0.2950 -0.1431
  530DPPI   C3B 8365  11.366   2.886   8.244  0.0471 -0.1586 -0.1359
  530DPPI   C4B 8366  11.443   3.239   8.004 -0.1549  0.1047  0.1859
  531DPPI    C1 8367  16.786   5.575  10.352 -0.0810 -0.0504 -0.0247
  531DPPI    C2 8368  16.427   5.621  10.521  0.0388  0.0825  0.1980
  531DPPI    C3 8369  16.703   5.392  10.698  0.0883  0.0376  0.0638
  531DPPI   PO4 8370  16.729   5.544  10.032  0.0618 -0.0782 -0.0479
  531DPPI   GL1 8371  16.653   5.582   9.651 -0.2342  0.1067  0.3257
  531DPPI   GL2 8372  16.703   5.973   9.672 -0.1285  0.0180 -0.0344
  531DPPI   C1A 8373  16.701   5.498   9.169 -0.4120 -0.0377  0.0051
  531DPPI   C2A 8374  16.875   5.413   8.699  0.0270  0.0389  0.0374
  531DPPI   C3A 8375  17.014   5.260   8.364 -0.0038 -0.1882 -0.5109
  531DPPI   C4A 8376  17.053   5.345   7.953 -0.5154 -0.1281 -0.1246
  531DPPI   C1B 8377  16.595   5.970   9.227 -0.0075 -0.0398 -0.0081
  531DPPI   C2B 8378  16.580   5.972   8.757 -0.3714 -0.1171 -0.5318
  531DPPI   C3B 8379  16.691   5.782   8.464  0.0940  0.2957  0.0157
  531DPPI   C4B 8380  16.673   5.615   8.146  0.0533  0.2526 -0.0440
  532DPPI    C1 8381  15.265   6.028  10.177  0.1742 -0.0705  0.2928
  532DPPI    C2 8382  15.190   6.351  10.401 -0.2154  0.0252  0.0356
  532DPPI    C3 8383  14.982   6.015  10.460 -0.4054  0.0883 -0.2574
  532DPPI   PO4 8384  15.298   6.112   9.936  0.0141  0.0345 -0.0607
  532DPPI   GL1 8385  15.486   6.052   9.555 -0.0048  0.0382 -0.1632
  532DPPI   GL2 8386  15.309   6.310   9.490  0.1515 -0.1447 -0.1670
  532DPPI   C1A 8387  15.438   5.919   9.063 -0.0141 -0.1741 -0.0258
  532DPPI   C2A 8388  15.469   5.848   8.628  0.0383  0.1074 -0.0992
  532DPPI   C3A 8389  15.326   5.921   8.146  0.2792 -0.2258  0.1349
  532DPPI   C4A 8390  15.305   5.787   7.746  0.2778 -0.1194 -0.3328
  532DPPI   C1B 8391  15.668   6.332   9.248  0.1969  0.0878  0.0903
  532DPPI   C2B 8392  15.696   6.273   8.793 -0.0024  0.4276 -0.1099
  532DPPI   C3B 8393  15.745   6.220   8.326  0.1063 -0.1079 -0.0914
  532DPPI   C4B 8394  15.780   5.959   7.929  0.1313 -0.3187 -0.1088
  533DPPI    C1 8395  11.959   9.091  10.082  0.1531  0.1035 -0.0229
  533DPPI    C2 8396  11.990   8.998  10.470  0.2290 -0.1592 -0.0897
  533DPPI    C3 8397  11.652   9.158  10.329  0.2750  0.1336  0.1220
  533DPPI   PO4 8398  12.082   8.852   9.919  0.0578  0.0784 -0.1420
  533DPPI   GL1 8399  12.203   8.688   9.614  0.3858 -0.1022 -0.0152
  533DPPI   GL2 8400  12.458   8.590   9.604 -0.0165  0.1674 -0.0497
  533DPPI   C1A 8401  11.978   8.463   9.166 -0.1649  0.2706 -0.0466
  533DPPI   C2A 8402  11.860   8.469   8.754  0.2083  0.0817  0.1591
  533DPPI   C3A 8403  11.610   8.351   8.384 -0.1912 -0.1573  0.1718
  533DPPI   C4A 8404  11.480   8.387   7.954  0.3456 -0.0294 -0.0295
  533DPPI   C1B 8405  12.434   8.667   9.129  0.1219 -0.1604  0.0278
  533DPPI   C2B 8406  12.378   8.691   8.714  0.1595  0.1196 -0.0947
  533DPPI   C3B 8407  12.105   8.829   8.380 -0.0059 -0.2739 -0.1682
  533DPPI   C4B 8408  11.880   8.662   8.107 -0.0031  0.1558 -0.1969
  534DPPI    C1 8409   9.393   6.882  10.468 -0.0570  0.1835 -0.0211
  534DPPI    C2 8410   9.754   7.054  10.482 -0.0259  0.1176 -0.0119
  534DPPI    C3 8411   9.438   7.240  10.641  0.0119  0.1561  0.0183
  534DPPI   PO4 8412   9.408   6.778  10.173  0.3301 -0.0004 -0.0387
  534DPPI   GL1 8413   9.673   6.872   9.880  0.3199 -0.1814 -0.1178
  534DPPI   GL2 8414   9.964   6.741   9.715 -0.0262  0.1993 -0.0228
  534DPPI   C1A 8415   9.556   6.873   9.466 -0.1819  0.0492  0.1902
  534DPPI   C2A 8416   9.557   6.680   9.079  0.3469 -0.0507 -0.1752
  534DPPI   C3A 8417   9.623   6.679   8.649  0.0639 -0.0352 -0.1255
  534DPPI   C4A 8418   9.637   6.627   8.272 -0.3190  0.0669  0.1619
  534DPPI   C1B 8419  10.128   6.775   9.249 -0.0138  0.1137  0.0834
  534DPPI   C2B 8420  10.083   6.922   8.873 -0.1814  0.2275 -0.0945
  534DPPI   C3B 8421  10.045   6.852   8.445 -0.2193  0.3707 -0.2967
  534DPPI   C4B 8422  10.204   6.562   8.310  0.0460  0.3284  0.1817
  535DPPI    C1 8423  18.358   5.336  10.542  0.0668 -0.0728  0.0718
  535DPPI    C2 8424  18.107   5.570  10.747 -0.0941  0.0723 -0.2834
  535DPPI    C3 8425  18.075   5.172  10.772  0.1673  0.0789  0.3069
  535DPPI   PO4 8426  18.363   5.346  10.276  0.2626 -0.2107 -0.0575
  535DPPI   GL1 8427  18.604   5.355   9.962 -0.5054 -0.2585  0.1741
  535DPPI   GL2 8428  18.398   5.098   9.781  0.0407 -0.1775 -0.0794
  535DPPI   C1A 8429  18.599   5.591   9.598 -0.0180 -0.1986 -0.0344
  535DPPI   C2A 8430  18.753   5.721   9.199  0.0846  0.1769 -0.2608
  535DPPI   C3A 8431  18.808   5.661   8.821  0.1698 -0.4359 -0.3522
  535DPPI   C4A 8432  18.848   5.787   8.384  0.1476  0.1522  0.0710
  535DPPI   C1B 8433  18.462   5.140   9.293  0.2536  0.1992 -0.0849
  535DPPI   C2B 8434  18.536   5.204   8.869  0.1405 -0.0246  0.0359
  535DPPI   C3B 8435  18.555   5.383   8.459  0.0571  0.2717  0.1005
  535DPPI   C4B 8436  18.552   5.467   8.056  0.1279 -0.0681  0.0191
  536DPPI    C1 8437  13.481   1.687  10.315  0.1847 -0.2895  0.0039
  536DPPI    C2 8438  13.214   1.779  10.599  0.2557 -0.1484  0.0258
  536DPPI    C3 8439  13.499   1.508  10.673  0.1702 -0.2376  0.0308
  536DPPI   PO4 8440  13.334   1.703  10.092  0.2144  0.2781 -0.3280
  536DPPI   GL1 8441  13.449   1.664   9.658 -0.2222  0.1422  0.2198
  536DPPI   GL2 8442  13.398   1.338   9.466 -0.0781 -0.4618  0.2897
  536DPPI   C1A 8443  13.360   1.842   9.237 -0.1182  0.1891  0.1286
  536DPPI   C2A 8444  13.046   1.823   8.898 -0.0222 -0.1948 -0.2422
  536DPPI   C3A 8445  13.046   1.976   8.480 -0.0148 -0.1829 -0.2041
  536DPPI   C4A 8446  12.998   1.839   8.075  0.0346  0.1620  0.1950
  536DPPI   C1B 8447  13.398   1.340   8.992  0.0128  0.0933  0.3541
  536DPPI   C2B 8448  13.230   1.450   8.582  0.1126 -0.1620 -0.1488
  536DPPI   C3B 8449  13.254   1.359   8.126  0.3372  0.0079 -0.3638
  536DPPI   C4B 8450  13.263   1.384   7.691 -0.0572  0.0089  0.1518
  537DPPI    C1 8451  10.422  16.251   9.899  0.1567  0.0300 -0.2429
  537DPPI    C2 8452  10.761  16.054   9.974  0.0944  0.0730  0.1746
  537DPPI    C3 8453  10.416  15.854   9.947  0.1346  0.0415 -0.1498
  537DPPI   PO4 8454  10.367  16.359   9.697 -0.1968  0.3287  0.1751
  537DPPI   GL1 8455  10.244  16.184   9.309  0.0066 -0.0791  0.1327
  537DPPI   GL2 8456  10.403  15.879   9.301  0.1481  0.2713 -0.2163
  537DPPI   C1A 8457  10.106  16.093   8.916  0.1241  0.3793 -0.2535
  537DPPI   C2A 8458  10.023  15.991   8.494  0.0052 -0.2111 -0.0270
  537DPPI   C3A 8459  10.047  16.187   8.043  0.0615 -0.0370 -0.0058
  537DPPI   C4A 8460   9.971  16.114   7.614  0.2342 -0.1628 -0.0485
  537DPPI   C1B 8461  10.409  15.694   8.835  0.1293 -0.3047 -0.1419
  537DPPI   C2B 8462  10.391  15.567   8.435  0.1278 -0.0193  0.2465
  537DPPI   C3B 8463  10.661  15.473   8.015  0.1473 -0.0210  0.3223
  537DPPI   C4B 8464  11.074  15.575   7.788 -0.1247 -0.0504 -0.2005
  538DPPI    C1 8465  17.577  10.297  10.325 -0.1168 -0.2279 -0.0223
  538DPPI    C2 8466  17.362  10.105  10.602  0.0473 -0.1081  0.1911
  538DPPI    C3 8467  17.750  10.178  10.665  0.1244 -0.2156 -0.1384
  538DPPI   PO4 8468  17.498  10.117  10.074  0.2319  0.3586  0.1809
  538DPPI   GL1 8469  17.767   9.925   9.767  0.0827 -0.3124  0.2084
  538DPPI   GL2 8470  17.809   9.615   9.859  0.2220 -0.1647 -0.1582
  538DPPI   C1A 8471  17.697   9.885   9.361  0.1404  0.1773 -0.1263
  538DPPI   C2A 8472  17.728   9.931   8.928  0.1554  0.1175 -0.0661
  538DPPI   C3A 8473  17.499   9.754   8.498 -0.1905  0.2205 -0.0183
  538DPPI   C4A 8474  17.485   9.516   8.159 -0.0014  0.3264  0.1045
  538DPPI   C1B 8475  18.018   9.483   9.544  0.0304  0.0851 -0.1924
  538DPPI   C2B 8476  17.910   9.484   9.121  0.1556  0.2412 -0.1481
  538DPPI   C3B 8477  17.886   9.452   8.627 -0.2364 -0.2782 -0.2897
  538DPPI   C4B 8478  18.024   9.329   8.241 -0.0211 -0.4290 -0.1125
  539DPPI    C1 8479   5.598  11.811  10.268 -0.0537  0.0124 -0.1152
  539DPPI    C2 8480   5.366  12.137  10.248  0.0260  0.0745 -0.0333
  539DPPI    C3 8481   5.500  12.007  10.602  0.0571 -0.0034 -0.0733
  539DPPI   PO4 8482   5.479  11.590  10.099  0.1592  0.1621 -0.2907
  539DPPI   GL1 8483   5.383  11.533   9.711 -0.1580 -0.1825  0.2700
  539DPPI   GL2 8484   5.714  11.590   9.638  0.1275 -0.1715 -0.0775
  539DPPI   C1A 8485   5.457  11.489   9.194 -0.1345 -0.0711  0.0974
  539DPPI   C2A 8486   5.589  11.441   8.788  0.2877 -0.1207 -0.1915
  539DPPI   C3A 8487   5.555  11.428   8.386  0.1018 -0.3824  0.0580
  539DPPI   C4A 8488   5.384  11.281   8.089 -0.2910 -0.0993 -0.2637
  539DPPI   C1B 8489   6.008  11.508   9.296 -0.1149  0.0267  0.1714
  539DPPI   C2B 8490   6.060  11.374   8.870  0.3011  0.1535  0.3391
  539DPPI   C3B 8491   6.012  11.414   8.402 -0.1923 -0.1363 -0.2437
  539DPPI   C4B 8492   5.903  11.336   7.966 -0.2488  0.1604 -0.5289
  540DPPI    C1 8493  13.553   8.270  10.179  0.1024  0.0039  0.0574
  540DPPI    C2 8494  13.158   8.211  10.184  0.0944  0.0548  0.0337
  540DPPI    C3 8495  13.341   8.364  10.505  0.1127 -0.0811  0.0887
  540DPPI   PO4 8496  13.619   8.330   9.993 -0.0489  0.0569 -0.0733
  540DPPI   GL1 8497  13.724   8.215   9.590 -0.0180  0.0572 -0.3249
  540DPPI   GL2 8498  13.952   8.461   9.628 -0.2073 -0.1584 -0.1328
  540DPPI   C1A 8499  13.733   8.241   9.208 -0.1912  0.1411 -0.0440
  540DPPI   C2A 8500  13.815   8.314   8.763 -0.1436 -0.2060 -0.0448
  540DPPI   C3A 8501  13.791   8.590   8.351  0.2025 -0.0607  0.1458
  540DPPI   C4A 8502  14.014   8.912   8.144  0.1350  0.1302 -0.0952
  540DPPI   C1B 8503  13.973   8.629   9.163  0.3346 -0.2855 -0.3758
  540DPPI   C2B 8504  13.572   8.799   8.814  0.0553 -0.3204  0.2365
  540DPPI   C3B 8505  13.603   9.021   8.500  0.0913 -0.1493 -0.2769
  540DPPI   C4B 8506  13.663   9.547   8.417 -0.0968  0.0936 -0.0628
  541DPPI    C1 8507  16.924   1.448   9.936 -0.1471  0.0588  0.0111
  541DPPI    C2 8508  16.636   1.669   9.767 -0.0401  0.2210  0.0386
  541DPPI    C3 8509  16.734   1.727  10.150 -0.0929  0.0429  0.0803
  541DPPI   PO4 8510  16.809   1.208   9.737  0.4391 -0.3590  0.2136
  541DPPI   GL1 8511  16.700   1.042   9.402  0.1382 -0.1820  0.5454
  541DPPI   GL2 8512  16.639   0.742   9.463 -0.1295 -0.0691  0.0076
  541DPPI   C1A 8513  16.946   1.321   9.036 -0.0881  0.0428  0.0506
  541DPPI   C2A 8514  17.105   1.308   8.654  0.0017  0.0860  0.1195
  541DPPI   C3A 8515  17.296   1.310   8.188 -0.0270 -0.1295 -0.2386
  541DPPI   C4A 8516  17.408   1.339   7.761 -0.1658  0.3931 -0.3716
  541DPPI   C1B 8517  16.510   0.593   9.150 -0.0033 -0.2295  0.2318
  541DPPI   C2B 8518  16.660   0.438   8.760  0.0776 -0.2049 -0.1240
  541DPPI   C3B 8519  16.930   0.462   8.384  0.0723  0.0953 -0.0602
  541DPPI   C4B 8520  17.238   0.054   8.405  0.1065 -0.1502 -0.1910
  542DPPI    C1 8521   4.178  14.292  10.144 -0.0602 -0.1662  0.1671
  542DPPI    C2 8522   4.515  14.451  10.289 -0.0892 -0.1172  0.1805
  542DPPI    C3 8523   4.297  14.205  10.516  0.0528 -0.3242  0.0950
  542DPPI   PO4 8524   4.279  14.213   9.891  0.0182  0.0084  0.0629
  542DPPI   GL1 8525   4.046  14.283   9.472 -0.0907 -0.3312  0.3686
  542DPPI   GL2 8526   4.050  14.635   9.300  0.0042 -0.1764 -0.2270
  542DPPI   C1A 8527   3.941  14.259   8.965  0.2642 -0.1935 -0.3021
  542DPPI   C2A 8528   4.053  14.299   8.545  0.1197 -0.0636  0.0400
  542DPPI   C3A 8529   3.913  14.199   8.118 -0.2362 -0.0314  0.1031
  542DPPI   C4A 8530   3.552  14.326   7.834 -0.0914  0.1803 -0.0794
  542DPPI   C1B 8531   3.934  14.714   8.850  0.1556  0.1127 -0.4107
  542DPPI   C2B 8532   4.075  14.793   8.374  0.1661 -0.1626  0.1430
  542DPPI   C3B 8533   4.171  14.618   7.950 -0.0511 -0.0561  0.0712
  542DPPI   C4B 8534   4.257  14.741   7.552 -0.0475 -0.0890  0.0142
  543DPPI    C1 8535  11.302  15.264   9.775  0.0996  0.3222 -0.0603
  543DPPI    C2 8536  11.043  15.307  10.076  0.1061  0.0768 -0.0173
  543DPPI    C3 8537  11.436  15.335  10.145  0.1034  0.1332 -0.0241
  543DPPI   PO4 8538  11.044  15.208   9.572  0.0756  0.2031  0.2031
  543DPPI   GL1 8539  10.679  15.117   9.415  0.1310  0.0111  0.0188
  543DPPI   GL2 8540  10.542  14.863   9.214 -0.0809  0.0710 -0.2611
  543DPPI   C1A 8541  10.604  15.299   9.040 -0.0763 -0.2810 -0.0219
  543DPPI   C2A 8542  10.578  15.147   8.586  0.2067  0.2430 -0.1879
  543DPPI   C3A 8543  10.565  15.000   8.259 -0.0556  0.2411 -0.1088
  543DPPI   C4A 8544  10.300  15.045   7.914 -0.1939 -0.1230  0.0019
  543DPPI   C1B 8545  10.744  14.623   8.888  0.1117  0.0086 -0.0444
  543DPPI   C2B 8546  10.816  14.708   8.613 -0.2122  0.2018 -0.0290
  543DPPI   C3B 8547  11.057  14.628   8.249  0.2838 -0.0605 -0.0574
  543DPPI   C4B 8548  11.249  14.543   7.840 -0.0141  0.1660  0.0365
  544DPPI    C1 8549  15.492  11.739  10.306  0.0307  0.1731  0.1569
  544DPPI    C2 8550  15.856  11.809  10.456  0.2114 -0.2682 -0.0581
  544DPPI    C3 8551  15.610  11.553  10.639  0.0700 -0.0953 -0.0039
  544DPPI   PO4 8552  15.513  11.612  10.059 -0.1344 -0.4258 -0.0535
  544DPPI   GL1 8553  15.575  11.345   9.816 -0.3905  0.2206 -0.2110
  544DPPI   GL2 8554  15.201  11.172   9.823 -0.1546  0.1938 -0.3569
  544DPPI   C1A 8555  15.667  11.033   9.536  0.0734 -0.2712  0.0382
  544DPPI   C2A 8556  15.612  10.909   9.173 -0.0227  0.1455 -0.4103
  544DPPI   C3A 8557  15.477  11.020   8.689  0.0850 -0.1064  0.0300
  544DPPI   C4A 8558  15.647  10.898   8.337 -0.1614 -0.0158 -0.1499
  544DPPI   C1B 8559  15.197  11.366   9.358 -0.2463 -0.0179 -0.0289
  544DPPI   C2B 8560  15.071  11.499   8.925  0.1688  0.0260  0.0923
  544DPPI   C3B 8561  14.972  11.487   8.521  0.1567 -0.1256 -0.0336
  544DPPI   C4B 8562  14.817  11.629   8.106 -0.1343  0.2830  0.0110
  545DPPI    C1 8563   5.393  16.925   9.923  0.1948  0.0639  0.0489
  545DPPI    C2 8564   5.536  16.836  10.286 -0.0206  0.0745  0.1378
  545DPPI    C3 8565   5.415  17.209  10.204  0.0175  0.0696  0.0578
  545DPPI   PO4 8566   5.332  16.636   9.858  0.2382  0.0817  0.0462
  545DPPI   GL1 8567   5.218  16.503   9.472 -0.1684 -0.2064  0.1472
  545DPPI   GL2 8568   4.869  16.452   9.360  0.2710  0.2666  0.0247
  545DPPI   C1A 8569   5.275  16.592   8.991  0.4235  0.1263 -0.0785
  545DPPI   C2A 8570   5.513  16.457   8.704 -0.2018  0.1864 -0.2300
  545DPPI   C3A 8571   5.553  16.534   8.264  0.1688 -0.1392 -0.1858
  545DPPI   C4A 8572   5.675  16.635   7.797 -0.1198  0.1493  0.4309
  545DPPI   C1B 8573   4.786  16.566   8.901  0.0231 -0.3224 -0.0747
  545DPPI   C2B 8574   4.527  16.684   8.573 -0.0828 -0.1352 -0.3467
  545DPPI   C3B 8575   4.533  16.614   8.107 -0.1943  0.1281  0.3584
  545DPPI   C4B 8576   4.628  16.585   7.637 -0.3395  0.2674 -0.0741
  546DPPI    C1 8577  13.341  13.832   9.666 -0.3210  0.0657  0.1762
  546DPPI    C2 8578  13.148  13.752   9.326 -0.0999 -0.0032  0.0650
  546DPPI    C3 8579  12.943  13.797   9.666 -0.3375  0.2242 -0.1038
  546DPPI   PO4 8580  13.555  14.052   9.559 -0.0905  0.0154 -0.5369
  546DPPI   GL1 8581  13.663  14.035   9.161 -0.1279 -0.1182 -0.0494
  546DPPI   GL2 8582  13.724  14.374   9.062  0.2392 -0.2343 -0.1299
  546DPPI   C1A 8583  13.478  13.787   8.797  0.2548 -0.0490  0.2993
  546DPPI   C2A 8584  13.085  13.570   8.585  0.3203  0.1606  0.0294
  546DPPI   C3A 8585  13.176  13.181   8.467 -0.0972  0.6150  0.4563
  546DPPI   C4A 8586  13.150  12.889   8.087  0.1470 -0.1278  0.4502
  546DPPI   C1B 8587  13.781  14.209   8.619  0.1288 -0.2249 -0.0519
  546DPPI   C2B 8588  13.706  14.061   8.246 -0.0099 -0.1741 -0.1395
  546DPPI   C3B 8589  13.633  14.063   7.849 -0.1309  0.0699 -0.2270
  546DPPI   C4B 8590  13.699  14.030   7.430  0.1349 -0.3118  0.0199
  547DPPI    C1 8591   0.619   6.283  11.035  0.0793  0.0383 -0.0071
  547DPPI    C2 8592   0.712   5.943  10.846  0.1630  0.0952 -0.0687
  547DPPI    C3 8593   0.488   5.932  11.177 -0.2335  0.0178 -0.3322
  547DPPI   PO4 8594   0.517   6.479  10.899  0.1545 -0.2753 -0.0898
  547DPPI   GL1 8595   0.671   6.572  10.505 -0.0880  0.0976 -0.2206
  547DPPI   GL2 8596   0.663   6.209  10.423 -0.1097  0.3769 -0.0494
  547DPPI   C1A 8597   0.553   6.647  10.116  0.3888  0.3259 -0.2108
  547DPPI   C2A 8598   0.585   6.651   9.702 -0.0848 -0.0634 -0.1077
  547DPPI   C3A 8599   0.632   6.504   9.270 -0.0718  0.0828 -0.2793
  547DPPI   C4A 8600   0.647   6.633   8.839 -0.2303 -0.0568  0.0508
  547DPPI   C1B 8601   0.601   6.170  10.035 -0.0109  0.2217 -0.0220
  547DPPI   C2B 8602   0.847   6.209   9.609 -0.3499 -0.0770  0.1320
  547DPPI   C3B 8603   0.937   6.136   9.121 -0.0841 -0.1501 -0.2122
  547DPPI   C4B 8604   0.941   6.146   8.640  0.0964 -0.3517  0.2470
  548DPPI    C1 8605   7.091   7.156  10.914 -0.1052  0.1447  0.1025
  548DPPI    C2 8606   6.973   6.780  10.979  0.2875  0.0018  0.0172
  548DPPI    C3 8607   7.086   7.010  11.286 -0.0479  0.0879  0.0810
  548DPPI   PO4 8608   6.943   7.305  10.690 -0.0976  0.3011  0.1401
  548DPPI   GL1 8609   6.637   7.136  10.371 -0.0690  0.1069 -0.0827
  548DPPI   GL2 8610   6.386   7.123  10.339  0.1476  0.0982 -0.1192
  548DPPI   C1A 8611   6.864   6.934  10.110  0.0068 -0.1557  0.2854
  548DPPI   C2A 8612   6.859   6.797   9.699 -0.1077  0.2336  0.0951
  548DPPI   C3A 8613   6.891   6.804   9.185 -0.1447 -0.0875 -0.0214
  548DPPI   C4A 8614   6.786   6.774   8.753 -0.0364  0.1842 -0.0340
  548DPPI   C1B 8615   6.076   7.220   9.905 -0.1709  0.1264  0.1574
  548DPPI   C2B 8616   6.052   7.290   9.438  0.0613 -0.0571 -0.1638
  548DPPI   C3B 8617   6.153   7.354   9.036  0.4151  0.0161 -0.2031
  548DPPI   C4B 8618   5.991   7.368   8.643  0.1279 -0.1934  0.2000
  549DPPI    C1 8619   8.774  14.309   9.976  0.2102  0.0568 -0.2241
  549DPPI    C2 8620   8.773  13.930  10.102 -0.0990  0.1610  0.1020
  549DPPI    C3 8621   9.002  14.202  10.286 -0.1365  0.2014  0.0892
  549DPPI   PO4 8622   8.760  14.253   9.675  0.1203 -0.1459 -0.0875
  549DPPI   GL1 8623   8.656  14.292   9.255 -0.1492  0.0530  0.3322
  549DPPI   GL2 8624   8.283  14.327   9.137  0.0746 -0.1260  0.4535
  549DPPI   C1A 8625   8.832  14.606   8.908  0.1409 -0.0996  0.0418
  549DPPI   C2A 8626   8.855  14.738   8.437 -0.0162 -0.0343  0.2520
  549DPPI   C3A 8627   9.052  14.580   8.071  0.1097 -0.0802 -0.0190
  549DPPI   C4A 8628   8.936  14.348   7.592 -0.1746  0.1056 -0.0176
  549DPPI   C1B 8629   8.129  14.294   8.789  0.2443  0.1345 -0.0831
  549DPPI   C2B 8630   8.093  14.156   8.409  0.0818  0.0239  0.0507
  549DPPI   C3B 8631   8.050  14.306   8.013 -0.0571 -0.1686  0.3368
  549DPPI   C4B 8632   7.962  14.212   7.580  0.1805  0.0156 -0.1162
  550DPPI    C1 8633  17.632   0.156  10.124  0.1935  0.0197  0.0266
  550DPPI    C2 8634  17.346   0.106  10.399  0.2114 -0.1097  0.0223
  550DPPI    C3 8635  17.518   0.464  10.353 -0.0216 -0.0044 -0.0458
  550DPPI   PO4 8636  17.528  -0.022   9.911  0.0930 -0.0176 -0.5581
  550DPPI   GL1 8637  17.540  -0.139   9.517  0.1024 -0.3983  0.0845
  550DPPI   GL2 8638  17.604   0.172   9.365  0.1102 -0.0225 -0.0330
  550DPPI   C1A 8639  17.568  -0.344   9.176  0.0155 -0.0470 -0.0444
  550DPPI   C2A 8640  17.593  -0.209   8.743 -0.3208  0.0193 -0.2288
  550DPPI   C3A 8641  17.604  -0.232   8.256 -0.0934 -0.3077 -0.0452
  550DPPI   C4A 8642  17.591  -0.333   7.816 -0.3159 -0.0954  0.0711
  550DPPI   C1B 8643  17.806   0.155   8.991  0.3586 -0.0373  0.1560
  550DPPI   C2B 8644  17.774   0.228   8.463  0.2274 -0.0002  0.0051
  550DPPI   C3B 8645  17.617   0.288   8.060 -0.0785  0.3725  0.1082
  550DPPI   C4B 8646  17.394   0.541   7.658  0.2035 -0.1105 -0.1510
  551DPPI    C1 8647   2.437  13.677  10.501  0.0883  0.3653  0.0021
  551DPPI    C2 8648   2.038  13.656  10.526  0.1172 -0.2420  0.1069
  551DPPI    C3 8649   2.233  13.959  10.699 -0.2801 -0.0581  0.2448
  551DPPI   PO4 8650   2.472  13.547  10.204 -0.3722 -0.1728  0.2030
  551DPPI   GL1 8651   2.553  13.490   9.846 -0.0529  0.0697 -0.1194
  551DPPI   GL2 8652   2.361  13.183   9.777  0.2251  0.0828 -0.0602
  551DPPI   C1A 8653   2.803  13.367   9.531 -0.1473 -0.2136  0.2528
  551DPPI   C2A 8654   2.775  13.300   9.140 -0.2050  0.4146 -0.0637
  551DPPI   C3A 8655   2.830  13.441   8.690 -0.3193 -0.1670  0.3543
  551DPPI   C4A 8656   2.857  13.263   8.298  0.1169  0.1949  0.2674
  551DPPI   C1B 8657   2.336  12.962   9.396  0.1193  0.1534  0.2690
  551DPPI   C2B 8658   2.428  13.065   8.929  0.2165 -0.0660 -0.3305
  551DPPI   C3B 8659   2.631  12.933   8.630  0.0521 -0.3264 -0.2278
  551DPPI   C4B 8660   2.665  12.807   8.132 -0.1199 -0.1753  0.3117
  552DPPI    C1 8661   7.768   7.831  10.717  0.0244 -0.0997 -0.0715
  552DPPI    C2 8662   7.998   8.138  10.829  0.0609 -0.1752  0.0636
  552DPPI    C3 8663   8.115   7.898  10.531 -0.0694  0.0680 -0.1881
  552DPPI   PO4 8664   7.582   7.899  10.657  0.0826  0.2535 -0.2877
  552DPPI   GL1 8665   7.357   8.043  10.196  0.1772  0.1796  0.0095
  552DPPI   GL2 8666   7.485   8.192   9.971 -0.1408 -0.3941  0.1804
  552DPPI   C1A 8667   7.015   7.923   9.919  0.1108 -0.0258  0.0355
  552DPPI   C2A 8668   6.919   7.797   9.473  0.0063  0.0924  0.0547
  552DPPI   C3A 8669   6.919   7.703   8.952 -0.2372  0.0158 -0.1649
  552DPPI   C4A 8670   6.847   7.766   8.555  0.2126 -0.0138 -0.1430
  552DPPI   C1B 8671   7.235   8.225   9.521  0.0827  0.0259  0.1836
  552DPPI   C2B 8672   7.252   8.120   9.132 -0.1568  0.4426 -0.0008
  552DPPI   C3B 8673   7.152   8.220   8.757  0.3174 -0.0263 -0.0857
  552DPPI   C4B 8674   6.926   8.215   8.272 -0.0700  0.0969  0.0077
  553DPPI    C1 8675   1.245  12.620  10.309 -0.0898  0.0797  0.1873
  553DPPI    C2 8676   1.599  12.434  10.290 -0.0490  0.1822 -0.0961
  553DPPI    C3 8677   1.581  12.834  10.280 -0.1697  0.1791 -0.0252
  553DPPI   PO4 8678   1.054  12.393  10.083  0.1167  0.1529  0.1158
  553DPPI   GL1 8679   0.917  12.477   9.639  0.3926  0.1274  0.0096
  553DPPI   GL2 8680   1.067  12.170   9.636 -0.1397 -0.1515  0.1087
  553DPPI   C1A 8681   0.753  12.394   9.148  0.0607  0.1668 -0.2889
  553DPPI   C2A 8682   0.905  12.247   8.796 -0.2136  0.0334 -0.2582
  553DPPI   C3A 8683   0.898  12.019   8.472  0.0899  0.0811 -0.0220
  553DPPI   C4A 8684   0.595  11.962   8.109  0.1273  0.1304  0.3456
  553DPPI   C1B 8685   1.166  12.017   9.219  0.0234 -0.1519 -0.3746
  553DPPI   C2B 8686   1.375  12.063   8.866 -0.1016 -0.1625 -0.1577
  553DPPI   C3B 8687   1.412  11.980   8.504 -0.0509 -0.0229 -0.3516
  553DPPI   C4B 8688   1.712  11.923   8.339 -0.0847  0.3082  0.0939
  554PYPI    C1 8689  11.357   7.803  10.253  0.0576  0.0897  0.0167
  554PYPI    C2 8690  11.071   7.958  10.486  0.0907 -0.1847  0.2446
  554PYPI    C3 8691  11.390   7.781  10.651  0.2394 -0.1589 -0.0098
  554PYPI   PO4 8692  11.199   7.775  10.014 -0.2551  0.1404  0.2582
  554PYPI   GL1 8693  11.045   8.048   9.766  0.1702  0.1072  0.1786
  554PYPI   GL2 8694  11.101   8.355   9.735 -0.0927  0.3786  0.0885
  554PYPI   C1A 8695  10.969   8.138   9.253  0.1992 -0.0906  0.0776
  554PYPI   C2A 8696  10.847   8.151   8.814 -0.3685  0.2884  0.0611
  554PYPI   D3A 8697  10.590   8.239   8.386 -0.1584  0.3677 -0.1987
  554PYPI   C4A 8698  10.556   8.408   7.990  0.0382 -0.0265  0.1949
  554PYPI   C1B 8699  10.982   8.601   9.387  0.6413  0.2582 -0.1628
  554PYPI   C2B 8700  10.912   8.659   9.013  0.1687 -0.0988  0.0505
  554PYPI   C3B 8701  10.908   8.610   8.557 -0.0069 -0.1247  0.0551
  554PYPI   C4B 8702  10.983   8.551   8.153 -0.0117 -0.0464 -0.2244
  555PYPI    C1 8703   7.553  14.413  10.325 -0.0136  0.0770  0.1411
  555PYPI    C2 8704   7.944  14.332  10.334  0.0109  0.1487 -0.1613
  555PYPI    C3 8705   7.794  14.622  10.565  0.1521  0.1882 -0.1186
  555PYPI   PO4 8706   7.485  14.474  10.067  0.1050  0.3834 -0.3734
  555PYPI   GL1 8707   7.539  14.555   9.691  0.2107 -0.0335  0.2416
  555PYPI   GL2 8708   7.320  14.843   9.487 -0.0351 -0.1389  0.2098
  555PYPI   C1A 8709   7.400  14.387   9.270 -0.0699  0.0070 -0.1345
  555PYPI   C2A 8710   7.234  14.385   8.843 -0.1386 -0.1354  0.0879
  555PYPI   D3A 8711   7.268  14.333   8.505  0.1274 -0.2157 -0.2837
  555PYPI   C4A 8712   7.052  14.560   8.133  0.1470  0.2198 -0.1458
  555PYPI   C1B 8713   7.302  14.872   9.078 -0.0992 -0.2941  0.0069
  555PYPI   C2B 8714   7.186  14.821   8.564 -0.0953  0.3127 -0.0979
  555PYPI   C3B 8715   7.002  15.091   8.242 -0.0207  0.1347  0.0288
  555PYPI   C4B 8716   6.944  15.188   7.855 -0.1762  0.0221  0.1726
  556PYPI    C1 8717  17.863   8.203  10.447  0.0445  0.0206  0.0463
  556PYPI    C2 8718  17.807   7.877  10.671  0.0197  0.1047  0.1631
  556PYPI    C3 8719  17.593   8.208  10.742 -0.0413  0.1083 -0.0328
  556PYPI   PO4 8720  18.062   8.157  10.285 -0.1406  0.0553 -0.4108
  556PYPI   GL1 8721  18.324   8.016  10.089 -0.0150  0.0941  0.0591
  556PYPI   GL2 8722  18.315   8.253   9.808 -0.2304  0.0351  0.2560
  556PYPI   C1A 8723  18.255   7.694   9.821 -0.1406 -0.0391  0.0018
  556PYPI   C2A 8724  18.074   7.547   9.421  0.2119 -0.0954 -0.0915
  556PYPI   D3A 8725  18.326   7.606   9.004 -0.0844  0.1085 -0.3413
  556PYPI   C4A 8726  18.229   7.510   8.590  0.2412  0.1217  0.0735
  556PYPI   C1B 8727  18.070   8.151   9.534  0.1572  0.0906  0.0267
  556PYPI   C2B 8728  17.997   7.967   9.171 -0.0379  0.2938  0.3341
  556PYPI   C3B 8729  17.996   8.090   8.762 -0.0371 -0.2182 -0.0213
  556PYPI   C4B 8730  18.113   8.016   8.451 -0.0578 -0.0806  0.1214
  557PYPI    C1 8731   3.760  12.841  10.358  0.2699 -0.0087 -0.0068
  557PYPI    C2 8732   4.028  12.748  10.640  0.2431  0.0664  0.0437
  557PYPI    C3 8733   3.663  12.585  10.650  0.1003  0.3883  0.2953
  557PYPI   PO4 8734   3.950  12.867  10.131  0.0803 -0.2069 -0.2217
  557PYPI   GL1 8735   4.151  13.194   9.882  0.5119 -0.2453 -0.0065
  557PYPI   GL2 8736   3.850  13.399   9.901  0.0222  0.0430 -0.1726
  557PYPI   C1A 8737   4.207  13.349   9.404  0.1757  0.2835 -0.0949
  557PYPI   C2A 8738   4.313  13.365   8.975 -0.0498 -0.1164 -0.0991
  557PYPI   D3A 8739   4.471  13.158   8.691 -0.2372  0.0798  0.0917
  557PYPI   C4A 8740   4.482  13.183   8.242  0.4117  0.1703  0.1312
  557PYPI   C1B 8741   3.756  13.121   9.545 -0.3829  0.1185  0.0740
  557PYPI   C2B 8742   3.719  13.058   9.153 -0.1230 -0.2241  0.0370
  557PYPI   C3B 8743   3.627  12.982   8.780 -0.0476  0.1450 -0.0404
  557PYPI   C4B 8744   3.816  12.931   8.335 -0.0244  0.2308 -0.1238
  558PYPI    C1 8745  12.848  12.951  10.368 -0.0575 -0.1368 -0.0673
  558PYPI    C2 8746  12.486  13.035  10.518 -0.0119 -0.0186 -0.0218
  558PYPI    C3 8747  12.769  13.318  10.508  0.0386 -0.0736 -0.1769
  558PYPI   PO4 8748  12.751  12.781  10.110 -0.2425 -0.0009 -0.2808
  558PYPI   GL1 8749  12.710  12.419   9.724  0.0864  0.4021  0.0972
  558PYPI   GL2 8750  12.386  12.291   9.538  0.2901  0.2079  0.5944
  558PYPI   C1A 8751  12.773  12.497   9.281 -0.2310 -0.0230 -0.2315
  558PYPI   C2A 8752  13.036  12.571   9.019 -0.1465  0.4711 -0.3063
  558PYPI   D3A 8753  13.351  12.643   8.698 -0.1445 -0.0970 -0.1257
  558PYPI   C4A 8754  13.381  12.528   8.257 -0.2131 -0.3140 -0.0786
  558PYPI   C1B 8755  12.577  12.005   9.216 -0.0692 -0.0117 -0.2732
  558PYPI   C2B 8756  12.490  12.095   8.824 -0.1283  0.0734  0.0483
  558PYPI   C3B 8757  12.459  12.029   8.368  0.0882  0.0136  0.0883
  558PYPI   C4B 8758  12.233  12.085   7.978  0.0715  0.1013  0.2147
  559PYPI    C1 8759  15.504   4.165   9.876  0.1949  0.0381  0.1148
  559PYPI    C2 8760  15.284   4.489   9.792  0.0795 -0.0361  0.1278
  559PYPI    C3 8761  15.674   4.528   9.875  0.0804  0.0923  0.0674
  559PYPI   PO4 8762  15.419   3.950   9.666 -0.4468  0.1935  0.0098
  559PYPI   GL1 8763  15.534   3.887   9.300  0.0923 -0.0314  0.1243
  559PYPI   GL2 8764  15.848   3.861   9.401  0.0714  0.0007 -0.1359
  559PYPI   C1A 8765  15.479   3.946   8.874 -0.2960  0.0549 -0.2546
  559PYPI   C2A 8766  15.564   3.918   8.481 -0.1775 -0.1569  0.0460
  559PYPI   D3A 8767  15.500   3.913   8.126  0.4173 -0.0062  0.0601
  559PYPI   C4A 8768  15.277   3.659   7.815  0.0237  0.1778 -0.1619
  559PYPI   C1B 8769  16.045   3.900   9.097  0.0316 -0.2057 -0.2856
  559PYPI   C2B 8770  16.086   3.954   8.527 -0.0149 -0.0305  0.1191
  559PYPI   C3B 8771  16.036   4.039   8.131  0.2387  0.1944  0.1434
  559PYPI   C4B 8772  15.995   3.925   7.707 -0.3044  0.0322  0.2158
  560PYPI    C1 8773   8.681  13.016  10.139  0.1477 -0.3434  0.0664
  560PYPI    C2 8774   8.376  13.198  10.324  0.2663  0.0486 -0.1114
  560PYPI    C3 8775   8.500  12.838  10.448 -0.0518  0.0321  0.1728
  560PYPI   PO4 8776   8.624  12.951   9.936 -0.0865  0.2061 -0.0501
  560PYPI   GL1 8777   8.767  13.142   9.606  0.0291  0.1382 -0.1125
  560PYPI   GL2 8778   8.549  13.246   9.383  0.0710  0.0164  0.0486
  560PYPI   C1A 8779   9.069  13.210   9.228 -0.0088  0.2098 -0.1373
  560PYPI   C2A 8780   9.069  13.359   8.814  0.0102  0.2118 -0.2068
  560PYPI   D3A 8781   8.930  13.684   8.657 -0.0081  0.0668  0.1529
  560PYPI   C4A 8782   8.760  13.691   8.228  0.1515  0.1162 -0.0974
  560PYPI   C1B 8783   8.511  13.302   9.040  0.1563  0.0958  0.2808
  560PYPI   C2B 8784   8.557  13.332   8.674 -0.0455  0.2758 -0.0825
  560PYPI   C3B 8785   8.607  13.213   8.355 -0.2043 -0.0898 -0.1217
  560PYPI   C4B 8786   8.823  12.853   7.986 -0.1116  0.1909  0.2127
  561PYPI    C1 8787  10.782  11.646  10.194  0.1134 -0.3967 -0.0041
  561PYPI    C2 8788  11.070  11.661  10.472  0.1519  0.2608 -0.0634
  561PYPI    C3 8789  10.685  11.681  10.580  0.1353 -0.1917 -0.0164
  561PYPI   PO4 8790  10.862  11.423   9.955 -0.0693 -0.1466 -0.0147
  561PYPI   GL1 8791  10.999  11.453   9.579 -0.0434 -0.0182  0.0148
  561PYPI   GL2 8792  10.809  11.708   9.541 -0.2287 -0.1135  0.0064
  561PYPI   C1A 8793  10.820  11.265   9.177 -0.1996  0.1422  0.4800
  561PYPI   C2A 8794  10.651  11.199   8.777 -0.0770  0.2922  0.0558
  561PYPI   D3A 8795  10.514  11.073   8.346 -0.1158  0.1778  0.2498
  561PYPI   C4A 8796  10.772  10.894   8.049  0.0314 -0.0509  0.0953
  561PYPI   C1B 8797  10.502  12.009   9.354  0.0775 -0.0838 -0.0367
  561PYPI   C2B 8798  10.175  12.170   9.139  0.0552  0.1659  0.2686
  561PYPI   C3B 8799  10.061  11.963   8.846  0.1156  0.0099 -0.0768
  561PYPI   C4B 8800  10.010  11.818   8.466  0.5011 -0.2453 -0.2849
  562PYPI    C1 8801  16.329   7.896  10.383 -0.2569  0.3437 -0.0327
  562PYPI    C2 8802  16.307   8.191  10.653 -0.2409  0.0755  0.2683
  562PYPI    C3 8803  16.155   7.831  10.737  0.0610 -0.1079  0.0494
  562PYPI   PO4 8804  16.154   8.037  10.193  0.2209  0.0006  0.0280
  562PYPI   GL1 8805  16.134   7.850   9.789  0.4891 -0.1299  0.3200
  562PYPI   GL2 8806  15.862   7.640   9.639 -0.0861  0.0249 -0.1212
  562PYPI   C1A 8807  16.377   7.731   9.485  0.5967 -0.1831  0.1448
  562PYPI   C2A 8808  16.543   7.511   9.081  0.0275  0.0688  0.2885
  562PYPI   D3A 8809  16.757   7.306   8.755 -0.0157  0.2311  0.0577
  562PYPI   C4A 8810  17.105   7.133   8.717  0.2448  0.0152  0.2874
  562PYPI   C1B 8811  15.637   7.610   9.315 -0.3117 -0.1362 -0.0154
  562PYPI   C2B 8812  15.699   7.730   8.808 -0.0822 -0.0902 -0.0987
  562PYPI   C3B 8813  15.937   7.695   8.461 -0.2892  0.3346  0.2297
  562PYPI   C4B 8814  15.905   7.757   8.017 -0.1446  0.1119 -0.1638
  563PYPI    C1 8815   1.933  17.280  10.052  0.1163 -0.0448  0.1218
  563PYPI    C2 8816   1.570  17.118  10.011  0.1432 -0.0418 -0.1457
  563PYPI    C3 8817   1.620  17.440  10.243 -0.0021 -0.1125 -0.0138
  563PYPI   PO4 8818   2.003  17.330   9.798  0.0485 -0.2551  0.1246
  563PYPI   GL1 8819   2.109  17.448   9.436 -0.3656  0.1875  0.0819
  563PYPI   GL2 8820   2.375  17.470   9.237  0.2827 -0.2520 -0.2661
  563PYPI   C1A 8821   1.916  17.678   8.953 -0.0548 -0.4062 -0.0180
  563PYPI   C2A 8822   1.895  17.718   8.572 -0.0415 -0.0730  0.1542
  563PYPI   D3A 8823   1.960  17.528   8.112  0.0425  0.0157  0.0375
  563PYPI   C4A 8824   1.910  17.803   7.784  0.2020 -0.2003  0.0982
  563PYPI   C1B 8825   2.280  17.381   8.862 -0.1592  0.1301 -0.1035
  563PYPI   C2B 8826   2.293  17.406   8.477  0.1628  0.0471 -0.0355
  563PYPI   C3B 8827   2.568  17.188   8.209 -0.1062  0.0574 -0.1858
  563PYPI   C4B 8828   2.858  16.806   8.054  0.3079 -0.3577  0.0632
  564PYPI    C1 8829   2.265   0.705  10.475 -0.1771 -0.1894  0.1342
  564PYPI    C2 8830   2.422   1.015  10.673  0.1507 -0.1576 -0.1672
  564PYPI    C3 8831   2.111   1.071  10.428  0.1888 -0.0715 -0.1962
  564PYPI   PO4 8832   2.490   0.560  10.365  0.4559 -0.2407  0.2575
  564PYPI   GL1 8833   2.541   0.597   9.935 -0.2300 -0.2888  0.1168
  564PYPI   GL2 8834   2.301   0.805   9.932 -0.0995  0.0574 -0.0405
  564PYPI   C1A 8835   2.263   0.394   9.655  0.0968  0.3927  0.1267
  564PYPI   C2A 8836   2.063   0.078   9.370 -0.0638  0.2695  0.0399
  564PYPI   D3A 8837   1.836  -0.139   9.139 -0.0848  0.0026  0.0212
  564PYPI   C4A 8838   1.742  -0.158   8.651 -0.0600 -0.0048 -0.2029
  564PYPI   C1B 8839   2.172   0.928   9.551 -0.1459 -0.0598  0.0398
  564PYPI   C2B 8840   2.042   1.033   9.205 -0.3710  0.0341  0.0561
  564PYPI   C3B 8841   2.023   0.897   8.834  0.0335  0.0330  0.1038
  564PYPI   C4B 8842   2.190   0.627   8.534 -0.3450 -0.0390  0.1559
  565PYPI    C1 8843  15.191  12.099  10.034  0.1466  0.0530  0.0349
  565PYPI    C2 8844  15.126  12.358  10.332 -0.0157 -0.0657  0.1046
  565PYPI    C3 8845  15.091  11.965  10.398  0.0784 -0.0990 -0.0385
  565PYPI   PO4 8846  15.002  12.145   9.814  0.1680  0.0936 -0.1183
  565PYPI   GL1 8847  15.020  12.315   9.441 -0.0688  0.3649  0.2703
  565PYPI   GL2 8848  15.370  12.264   9.440 -0.0508 -0.1096 -0.1964
  565PYPI   C1A 8849  15.007  12.368   8.972  0.0513 -0.2698 -0.0100
  565PYPI   C2A 8850  15.007  12.535   8.521  0.4566  0.0744  0.0063
  565PYPI   D3A 8851  14.905  12.568   8.137 -0.1419  0.3527 -0.1515
  565PYPI   C4A 8852  15.130  12.816   7.908 -0.1379  0.1397  0.1036
  565PYPI   C1B 8853  15.286  11.983   9.146 -0.0324  0.0616  0.0643
  565PYPI   C2B 8854  15.304  11.902   8.692 -0.3227 -0.0891 -0.0368
  565PYPI   C3B 8855  15.397  11.639   8.347 -0.0643  0.2655  0.0985
  565PYPI   C4B 8856  15.346  11.257   8.281 -0.0010  0.0920  0.2415
  566PYPI    C1 8857   9.317  10.922   9.896 -0.1287  0.0635  0.3340
  566PYPI    C2 8858   9.049  10.676  10.063 -0.2985  0.0179  0.0012
  566PYPI    C3 8859   8.934  11.035   9.929 -0.1369  0.1080  0.1019
  566PYPI   PO4 8860   9.437  10.765   9.752 -0.0480  0.1191  0.1513
  566PYPI   GL1 8861   9.700  10.953   9.504 -0.0317  0.1907  0.0175
  566PYPI   GL2 8862   9.534  11.255   9.380 -0.2257 -0.0253  0.0471
  566PYPI   C1A 8863   9.869  10.578   9.133  0.3498 -0.1346  0.4852
  566PYPI   C2A 8864   9.769  10.411   8.705  0.1816 -0.0098 -0.0351
  566PYPI   D3A 8865   9.740  10.440   8.362 -0.0988 -0.1822 -0.2252
  566PYPI   C4A 8866  10.166  10.747   8.202  0.1523 -0.0463 -0.2396
  566PYPI   C1B 8867   9.348  11.182   8.994 -0.0857 -0.0421  0.1601
  566PYPI   C2B 8868   9.111  11.275   8.622 -0.2486 -0.2759  0.0714
  566PYPI   C3B 8869   9.228  11.259   8.137  0.0445  0.1193 -0.1174
  566PYPI   C4B 8870   8.966  11.368   7.767 -0.2139  0.3238  0.0910
  567PYPI    C1 8871   6.482   1.975  10.168 -0.0484  0.1467 -0.0208
  567PYPI    C2 8872   6.317   2.257  10.399  0.0154  0.3113 -0.1742
  567PYPI    C3 8873   6.636   2.054  10.529 -0.1387  0.1831  0.0103
  567PYPI   PO4 8874   6.320   2.070   9.929  0.0732  0.1518  0.0564
  567PYPI   GL1 8875   6.162   2.336   9.600 -0.2753 -0.0696 -0.0056
  567PYPI   GL2 8876   6.485   2.320   9.547  0.1303  0.0972 -0.0099
  567PYPI   C1A 8877   6.216   2.341   9.152  0.1940  0.3638 -0.0341
  567PYPI   C2A 8878   6.112   2.318   8.712  0.1209  0.3872 -0.1795
  567PYPI   D3A 8879   6.015   2.499   8.344  0.1604 -0.3557  0.2113
  567PYPI   C4A 8880   6.069   2.424   7.861  0.2279 -0.0037  0.0013
  567PYPI   C1B 8881   6.727   2.359   9.219 -0.2941 -0.0199  0.0980
  567PYPI   C2B 8882   6.661   2.310   8.860  0.0434  0.0478  0.0822
  567PYPI   C3B 8883   6.648   2.260   8.426 -0.1328 -0.3319 -0.2158
  567PYPI   C4B 8884   6.490   2.341   7.996  0.3233 -0.1284 -0.3177
  568PYPI    C1 8885   9.981   3.104  10.505 -0.0844  0.0743  0.0360
  568PYPI    C2 8886   9.766   3.417  10.632  0.2995  0.2838  0.1858
  568PYPI    C3 8887  10.032   3.244  10.876  0.0506 -0.2041  0.1248
  568PYPI   PO4 8888  10.073   3.237  10.261 -0.0699 -0.3063  0.0035
  568PYPI   GL1 8889  10.243   3.227   9.812 -0.0105 -0.4810 -0.0658
  568PYPI   GL2 8890   9.966   3.138   9.703 -0.0846  0.1487 -0.3986
  568PYPI   C1A 8891  10.267   3.382   9.387 -0.0811  0.4005  0.2262
  568PYPI   C2A 8892   9.951   3.388   9.042  0.0431 -0.3513  0.3120
  568PYPI   D3A 8893   9.856   3.348   8.623  0.0556 -0.2885  0.1232
  568PYPI   C4A 8894  10.116   3.295   8.298 -0.0712 -0.3050  0.0219
  568PYPI   C1B 8895   9.939   2.968   9.283  0.0450  0.0791  0.1430
  568PYPI   C2B 8896   9.668   2.960   8.861  0.3033  0.0215 -0.0817
  568PYPI   C3B 8897   9.638   2.926   8.420 -0.2578  0.1056  0.2936
  568PYPI   C4B 8898   9.682   3.246   8.042  0.0644 -0.0713  0.1043
  569PYPI    C1 8899   9.004   9.663  10.477  0.3015 -0.3630 -0.0943
  569PYPI    C2 8900   8.667   9.562  10.667 -0.1087  0.1303 -0.5327
  569PYPI    C3 8901   8.903   9.847  10.818  0.1975 -0.3102 -0.1534
  569PYPI   PO4 8902   8.888   9.629  10.188 -0.0046  0.0555 -0.0382
  569PYPI   GL1 8903   8.926   9.571   9.781 -0.0715 -0.3275 -0.1184
  569PYPI   GL2 8904   9.032   9.305   9.880  0.0193  0.2796  0.1027
  569PYPI   C1A 8905   8.880   9.584   9.290 -0.2701 -0.0672 -0.0060
  569PYPI   C2A 8906   8.708   9.523   8.926  0.0339  0.2306 -0.1677
  569PYPI   D3A 8907   8.428   9.477   8.642 -0.1220 -0.0250 -0.1809
  569PYPI   C4A 8908   8.297   9.512   8.265  0.2156 -0.1978 -0.0284
  569PYPI   C1B 8909   8.936   9.104   9.480  0.0798 -0.1483 -0.1509
  569PYPI   C2B 8910   8.792   9.079   9.080 -0.0584 -0.1141 -0.1395
  569PYPI   C3B 8911   8.721   9.041   8.662 -0.0882 -0.0422 -0.1018
  569PYPI   C4B 8912   8.658   9.096   8.412  0.0681  0.1844 -0.0841
  570PYPI    C1 8913  16.243   9.400  10.635 -0.1179 -0.0814 -0.0053
  570PYPI    C2 8914  16.496   9.525  10.919  0.0350  0.1713 -0.2474
  570PYPI    C3 8915  16.479   9.137  10.823  0.2127  0.1299 -0.1158
  570PYPI   PO4 8916  16.254   9.546  10.420  0.1059  0.0644 -0.1282
  570PYPI   GL1 8917  16.499   9.611  10.017  0.2516 -0.1593 -0.0218
  570PYPI   GL2 8918  16.484   9.842   9.811 -0.0435  0.0985  0.1599
  570PYPI   C1A 8919  16.472   9.214   9.708  0.0686 -0.2803 -0.2453
  570PYPI   C2A 8920  16.412   8.908   9.328 -0.0657  0.2784  0.0796
  570PYPI   D3A 8921  16.144   8.822   9.036 -0.2305  0.2501 -0.1137
  570PYPI   C4A 8922  16.150   8.614   8.618  0.1507  0.1862  0.1060
  570PYPI   C1B 8923  16.580   9.957   9.388 -0.2589 -0.0246  0.1376
  570PYPI   C2B 8924  16.474  10.127   9.021  0.2166  0.0423  0.1914
  570PYPI   C3B 8925  16.410  10.312   8.508  0.0511  0.1532  0.0915
  570PYPI   C4B 8926  16.115  10.324   8.095  0.2992  0.0089 -0.0310
  571PYPI    C1 8927   0.032  13.977  10.395  0.3044 -0.0344  0.2213
  571PYPI    C2 8928   0.116  14.366  10.433 -0.0097  0.0617 -0.0231
  571PYPI    C3 8929  -0.215  14.216  10.600  0.1209 -0.1072  0.0879
  571PYPI   PO4 8930   0.046  13.942  10.175 -0.1798 -0.2458  0.0120
  571PYPI   GL1 8931  -0.046  13.926   9.779 -0.0759  0.2101 -0.1259
  571PYPI   GL2 8932  -0.108  13.627   9.628 -0.1010  0.1436  0.0699
  571PYPI   C1A 8933   0.247  14.112   9.423  0.1515 -0.4691 -0.0737
  571PYPI   C2A 8934   0.375  13.985   9.009  0.4388 -0.1179 -0.0018
  571PYPI   D3A 8935   0.753  13.848   8.931  0.0970  0.0783 -0.1386
  571PYPI   C4A 8936   0.960  13.909   8.583  0.0193  0.2666  0.0917
  571PYPI   C1B 8937   0.051  13.683   9.218  0.4815 -0.2075 -0.0973
  571PYPI   C2B 8938   0.213  13.710   8.661  0.0043 -0.0712  0.0484
  571PYPI   C3B 8939   0.481  14.006   8.431  0.1071  0.0737 -0.2440
  571PYPI   C4B 8940   0.434  14.432   8.161 -0.1632  0.0943 -0.2577
  572PYPI    C1 8941   5.918  14.851  10.080 -0.1877  0.1115 -0.0886
  572PYPI    C2 8942   5.870  15.151  10.340 -0.1402  0.0648 -0.0256
  572PYPI    C3 8943   6.213  14.945  10.333 -0.1470  0.0560 -0.1152
  572PYPI   PO4 8944   5.779  14.874   9.817  0.0291 -0.1922 -0.0022
  572PYPI   GL1 8945   5.981  14.849   9.445  0.0822 -0.3410 -0.2232
  572PYPI   GL2 8946   6.237  14.652   9.606  0.3548  0.1442  0.3829
  572PYPI   C1A 8947   5.797  15.058   9.107  0.1520  0.1542 -0.1679
  572PYPI   C2A 8948   5.894  14.952   8.726 -0.0614  0.1009 -0.2580
  572PYPI   D3A 8949   5.908  15.056   8.388  0.0637 -0.4773  0.5740
  572PYPI   C4A 8950   6.022  15.015   7.944 -0.0492 -0.0016  0.1395
  572PYPI   C1B 8951   6.348  14.564   9.180 -0.1113  0.2452 -0.1210
  572PYPI   C2B 8952   6.287  14.305   8.859 -0.1190  0.2606  0.0707
  572PYPI   C3B 8953   6.412  14.182   8.445  0.0444 -0.0599  0.1102
  572PYPI   C4B 8954   6.479  14.035   7.969 -0.0624  0.1070  0.0666
  573PYPI    C1 8955   6.101   3.656  10.285  0.0831 -0.1433  0.1789
  573PYPI    C2 8956   6.103   3.536  10.666  0.1899 -0.0846  0.1971
  573PYPI    C3 8957   6.170   3.272  10.373 -0.1193 -0.1749  0.2046
  573PYPI   PO4 8958   6.309   3.970  10.131  0.0474 -0.0242 -0.0872
  573PYPI   GL1 8959   6.360   3.995   9.687 -0.2455 -0.3689 -0.0400
  573PYPI   GL2 8960   6.592   3.767   9.524  0.1391  0.0931 -0.2031
  573PYPI   C1A 8961   6.323   4.296   9.340  0.0511 -0.1367  0.0652
  573PYPI   C2A 8962   6.325   4.386   8.898 -0.4125 -0.0721  0.0794
  573PYPI   D3A 8963   6.193   4.204   8.575 -0.0453  0.0405 -0.1072
  573PYPI   C4A 8964   6.181   4.274   8.178  0.0798 -0.0042  0.2364
  573PYPI   C1B 8965   6.418   3.786   9.228 -0.0420  0.1019  0.2793
  573PYPI   C2B 8966   6.402   3.827   8.800 -0.0329  0.1547  0.1128
  573PYPI   C3B 8967   6.543   3.983   8.325 -0.0830 -0.1870 -0.2041
  573PYPI   C4B 8968   6.708   4.233   8.007  0.2828  0.1443  0.2373
  574ERGO   ROH 8969   6.789  12.284   6.080  0.1484 -0.0541  0.3361
  574ERGO    R1 8970   7.028  12.352   6.216  0.1648 -0.1575  0.3602
  574ERGO    R2 8971   7.082  12.609   6.303  0.3888 -0.1184  0.1216
  574ERGO    R3 8972   7.118  12.486   6.542  0.1672  0.0835  0.2621
  574ERGO    R4 8973   7.265  12.738   6.565  0.3041  0.0144  0.1159
  574ERGO    R5 8974   7.344  12.538   6.603  0.1609  0.0017  0.3525
  574ERGO    C1 8975   7.405  12.698   6.944  0.0468  0.2814  0.2445
  574ERGO    C2 8976   7.484  12.930   7.200 -0.1364 -0.6516  0.2589
  575ERGO   ROH 8977  10.202  18.080   6.042  0.0038  0.2750 -0.0295
  575ERGO    R1 8978   9.978  18.115   6.211  0.0560  0.1629  0.0648
  575ERGO    R2 8979   9.812  17.907   6.282  0.0993  0.1081  0.0063
  575ERGO    R3 8980   9.868  17.991   6.535  0.1744 -0.0245  0.0347
  575ERGO    R4 8981   9.592  17.893   6.548  0.0931  0.1932  0.0057
  575ERGO    R5 8982   9.663  18.089   6.611  0.2541  0.1152  0.0727
  575ERGO    C1 8983   9.516  17.964   6.940  0.1599  0.1182  0.0321
  575ERGO    C2 8984   9.201  17.761   7.143  0.1826 -0.3985 -0.3495
  576ERGO   ROH 8985   0.300   8.004   6.386 -0.2301  0.0010 -0.0541
  576ERGO    R1 8986   0.156   8.164   6.571 -0.0308  0.1185  0.0023
  576ERGO    R2 8987   0.028   8.057   6.790 -0.2518  0.1861 -0.0933
  576ERGO    R3 8988   0.176   8.240   6.926  0.0010 -0.1195  0.0536
  576ERGO    R4 8989  -0.035   8.160   7.114 -0.3380  0.2748 -0.1374
  576ERGO    R5 8990   0.016   8.364   7.054  0.1257  0.1914 -0.0780
  576ERGO    C1 8991   0.069   8.391   7.431 -0.1509  0.0397 -0.0253
  576ERGO    C2 8992  -0.017   8.471   7.720 -0.0670  0.0528  0.1073
  577ERGO   ROH 8993   9.419   9.378   9.567 -0.0907  0.0506 -0.1170
  577ERGO    R1 8994   9.438   9.374   9.285 -0.1371 -0.0136 -0.1208
  577ERGO    R2 8995   9.267   9.225   9.128 -0.2062 -0.0071 -0.0678
  577ERGO    R3 8996   9.224   9.464   9.005 -0.1627 -0.0170 -0.0991
  577ERGO    R4 8997   9.117   9.263   8.818 -0.2485  0.0006 -0.0453
  577ERGO    R5 8998   9.264   9.419   8.772 -0.2206 -0.0538 -0.0947
  577ERGO    C1 8999   8.990   9.510   8.522 -0.2324 -0.0043 -0.0615
  577ERGO    C2 9000   8.759   9.562   8.310 -0.0722 -0.1317  0.0254
  578ERGO   ROH 9001   5.274   4.947   9.682  0.3141  0.2465  0.0783
  578ERGO    R1 9002   5.279   5.080   9.432  0.3134  0.1101  0.0051
  578ERGO    R2 9003   5.485   5.047   9.250  0.2360 -0.1072 -0.0424
  578ERGO    R3 9004   5.282   4.984   9.081  0.1462 -0.0782  0.0529
  578ERGO    R4 9005   5.465   5.145   8.919  0.1689 -0.2188 -0.0721
  578ERGO    R5 9006   5.252   5.180   8.947  0.1911 -0.1104 -0.0088
  578ERGO    C1 9007   5.262   5.142   8.568  0.0455 -0.2566  0.0001
  578ERGO    C2 9008   5.180   5.171   8.267 -0.0504  0.0067 -0.0634
  579ERGO   ROH 9009  17.093   0.052   9.304  0.0140  0.3252  0.3541
  579ERGO    R1 9010  17.093   0.302   9.172  0.0933  0.2010  0.1148
  579ERGO    R2 9011  17.323   0.415   9.067  0.1261  0.0250 -0.0003
  579ERGO    R3 9012  17.175   0.425   8.839  0.1241 -0.1401 -0.0083
  579ERGO    R4 9013  17.440   0.524   8.761  0.0120  0.2138  0.0215
  579ERGO    R5 9014  17.249   0.625   8.729 -0.1225 -0.0258  0.0209
  579ERGO    C1 9015  17.370   0.598   8.368 -0.0564  0.1688  0.0266
  579ERGO    C2 9016  17.344   0.794   8.060  0.1676 -0.1567  0.2167
  580ERGO   ROH 9017  15.539   5.401   5.959 -0.1357  0.1412 -0.1317
  580ERGO    R1 9018  15.336   5.461   6.147 -0.1272  0.1390 -0.1219
  580ERGO    R2 9019  15.111   5.304   6.179 -0.0719  0.0767 -0.0358
  580ERGO    R3 9020  15.190   5.300   6.439 -0.0321  0.1897 -0.0457
  580ERGO    R4 9021  14.897   5.306   6.451 -0.0352  0.0303 -0.0065
  580ERGO    R5 9022  15.034   5.443   6.551 -0.0960  0.1334 -0.0620
  580ERGO    C1 9023  14.847   5.303   6.853  0.0235  0.1094  0.0013
  580ERGO    C2 9024  14.718   5.066   6.995  0.0750 -0.2147 -0.3165
  581ERGO   ROH 9025   3.986   3.282   9.634 -0.1072 -0.0339 -0.0366
  581ERGO    R1 9026   3.873   3.211   9.385 -0.1386  0.0356 -0.0423
  581ERGO    R2 9027   3.643   3.328   9.288 -0.1141  0.1091 -0.0106
  581ERGO    R3 9028   3.798   3.378   9.071 -0.1139  0.1057 -0.0113
  581ERGO    R4 9029   3.522   3.400   8.972 -0.1181 -0.2030 -0.0828
  581ERGO    R5 9030   3.681   3.275   8.889  0.0117 -0.1188  0.0309
  581ERGO    C1 9031   3.598   3.488   8.584 -0.1202 -0.3879 -0.1255
  581ERGO    C2 9032   3.609   3.495   8.291 -0.0930  0.0563 -0.2156
  582ERGO   ROH 9033  15.895  12.179   6.177 -0.0383 -0.0174  0.0944
  582ERGO    R1 9034  16.046  12.026   6.362 -0.1747 -0.1597  0.0898
  582ERGO    R2 9035  16.222  12.141   6.542  0.0875 -0.3372 -0.0494
  582ERGO    R3 9036  16.075  12.004   6.724 -0.0332 -0.0356  0.0876
  582ERGO    R4 9037  16.303  12.105   6.876  0.1204 -0.1793 -0.0393
  582ERGO    R5 9038  16.236  11.898   6.865 -0.1197 -0.1168  0.1291
  582ERGO    C1 9039  16.212  11.954   7.241  0.0261  0.1957  0.0954
  582ERGO    C2 9040  16.160  11.881   7.592 -0.3799 -0.0981 -0.0832
  583ERGO   ROH 9041  14.503  14.841   8.835 -0.2255  0.2051 -0.0469
  583ERGO    R1 9042  14.567  14.755   8.573  0.0281  0.3023 -0.0194
  583ERGO    R2 9043  14.386  14.623   8.411  0.3377 -0.0989 -0.0564
  583ERGO    R3 9044  14.448  14.822   8.236 -0.0230  0.0160 -0.0602
  583ERGO    R4 9045  14.402  14.587   8.067  0.3520 -0.0606 -0.0597
  583ERGO    R5 9046  14.578  14.714   8.067  0.1390  0.2419 -0.0817
  583ERGO    C1 9047  14.469  14.752   7.703  0.0217  0.0695 -0.0649
  583ERGO    C2 9048  14.422  14.798   7.381 -0.0672 -0.1882  0.0697
  584ERGO   ROH 9049  16.298   6.311   9.516  0.2915 -0.0819 -0.1272
  584ERGO    R1 9050  16.184   6.347   9.260  0.1384 -0.1436 -0.0677
  584ERGO    R2 9051  16.285   6.526   9.075 -0.0733 -0.0679 -0.1083
  584ERGO    R3 9052  16.292   6.307   8.914 -0.0106 -0.0540 -0.1263
  584ERGO    R4 9053  16.365   6.530   8.739 -0.1423 -0.0056 -0.1251
  584ERGO    R5 9054  16.207   6.384   8.704 -0.0878 -0.0732 -0.1040
  584ERGO    C1 9055  16.419   6.326   8.393 -0.1233  0.0437 -0.1518
  584ERGO    C2 9056  16.446   6.111   8.235  0.1474  0.0145  0.0402
  585ERGO   ROH 9057  15.145   8.194   6.202 -0.1481 -0.0557  0.0191
  585ERGO    R1 9058  15.157   8.373   6.421  0.1178 -0.1222  0.0613
  585ERGO    R2 9059  14.932   8.459   6.556  0.2408  0.1857  0.0784
  585ERGO    R3 9060  15.066   8.365   6.774  0.1021 -0.0682  0.0586
  585ERGO    R4 9061  14.844   8.522   6.884  0.3017  0.2004  0.0920
  585ERGO    R5 9062  15.056   8.545   6.931  0.3346 -0.1012  0.1160
  585ERGO    C1 9063  14.918   8.471   7.279  0.2070 -0.0294  0.0814
  585ERGO    C2 9064  14.659   8.375   7.475 -0.2155 -0.0283  0.0263
  586ERGO   ROH 9065   0.293   4.983   6.395 -0.2100  0.0498 -0.0171
  586ERGO    R1 9066   0.216   4.970   6.667  0.1309  0.1314  0.0880
  586ERGO    R2 9067   0.291   5.162   6.852 -0.1649  0.5496 -0.2081
  586ERGO    R3 9068   0.023   5.176   6.897 -0.1765 -0.1284  0.0714
  586ERGO    R4 9069   0.145   5.257   7.151 -0.0872  0.4218 -0.1282
  586ERGO    R5 9070  -0.004   5.101   7.122  0.2816 -0.0160  0.1761
  586ERGO    C1 9071  -0.191   5.326   7.367 -0.0528 -0.2890  0.1806
  586ERGO    C2 9072  -0.247   5.574   7.470 -0.1875  0.4505 -0.1672
  587ERGO   ROH 9073   4.653   9.276   6.234 -0.1414 -0.1641  0.2131
  587ERGO    R1 9074   4.871   9.326   6.407 -0.0938 -0.0047  0.1129
  587ERGO    R2 9075   4.870   9.532   6.592 -0.1969 -0.0431  0.1689
  587ERGO    R3 9076   4.927   9.331   6.767  0.0771 -0.0500  0.0882
  587ERGO    R4 9077   4.923   9.573   6.931 -0.1036 -0.1095  0.1616
  587ERGO    R5 9078   5.084   9.427   6.919  0.0424  0.0553  0.0549
  587ERGO    C1 9079   5.008   9.408   7.292  0.2078 -0.1547  0.0817
  587ERGO    C2 9080   5.223   9.414   7.620  0.2735 -0.1537  0.0169
  588ERGO   ROH 9081   4.810   3.953   9.812  0.1616 -0.1523  0.0285
  588ERGO    R1 9082   4.640   3.975   9.587  0.0643 -0.1387  0.1038
  588ERGO    R2 9083   4.625   4.204   9.434  0.0176 -0.1423  0.1130
  588ERGO    R3 9084   4.681   4.034   9.230 -0.0917 -0.1445  0.0827
  588ERGO    R4 9085   4.578   4.275   9.099  0.2766  0.0467  0.1132
  588ERGO    R5 9086   4.505   4.071   9.071  0.0293  0.1393  0.0040
  588ERGO    C1 9087   4.604   4.156   8.712  0.3249  0.1547  0.0849
  588ERGO    C2 9088   4.690   4.291   8.375  0.0927  0.0404 -0.3393
  589ERGO   ROH 9089   5.678  14.389   9.572 -0.0855  0.0753  0.0185
  589ERGO    R1 9090   5.642  14.367   9.292  0.0300  0.1180  0.0009
  589ERGO    R2 9091   5.798  14.505   9.111  0.1718  0.0620  0.0878
  589ERGO    R3 9092   5.841  14.258   9.008  0.1059  0.0539  0.0754
  589ERGO    R4 9093   5.849  14.437   8.776  0.2401  0.0875  0.0919
  589ERGO    R5 9094   5.725  14.259   8.798  0.1608  0.1271  0.0392
  589ERGO    C1 9095   5.920  14.164   8.484  0.2180  0.0948  0.0826
  589ERGO    C2 9096   6.026  14.156   8.128 -0.5711 -0.4153 -0.4250
  590ERGO   ROH 9097  16.272  18.650   5.729 -0.1665  0.0309 -0.2099
  590ERGO    R1 9098  16.218  18.817   5.951 -0.0768  0.0014 -0.1649
  590ERGO    R2 9099  15.965  18.911   6.009 -0.0279  0.1234 -0.1403
  590ERGO    R3 9100  16.014  18.799   6.252 -0.0877  0.0308 -0.1705
  590ERGO    R4 9101  15.804  18.997   6.303  0.1602  0.2801 -0.0817
  590ERGO    R5 9102  15.995  18.981   6.406  0.1760  0.0372 -0.1403
  590ERGO    C1 9103  15.757  18.942   6.702  0.2137  0.2843 -0.0759
  590ERGO    C2 9104  15.482  18.820   7.011 -0.0313 -0.1526 -0.3561
  591ERGO   ROH 9105  13.083  17.438   8.882  0.0653  0.2561  0.0542
  591ERGO    R1 9106  12.929  17.403   8.647  0.1151  0.0301  0.0520
  591ERGO    R2 9107  12.736  17.584   8.567 -0.0451 -0.1713 -0.0328
  591ERGO    R3 9108  12.878  17.586   8.336 -0.0229 -0.1279 -0.0186
  591ERGO    R4 9109  12.598  17.596   8.251 -0.0151 -0.2956 -0.0509
  591ERGO    R5 9110  12.748  17.453   8.185  0.0690 -0.2211 -0.0132
  591ERGO    C1 9111  12.651  17.604   7.849  0.0234 -0.3273 -0.0481
  591ERGO    C2 9112  12.775  17.522   7.543  0.0516  0.3517 -0.4442
  592ERGO   ROH 9113   5.370  10.468   6.273 -0.1313 -0.0231  0.0448
  592ERGO    R1 9114   5.253  10.593   6.498 -0.0976  0.2148 -0.0668
  592ERGO    R2 9115   5.309  10.516   6.757 -0.3906  0.1931 -0.0084
  592ERGO    R3 9116   5.370  10.779   6.788 -0.0114  0.1138 -0.0357
  592ERGO    R4 9117   5.399  10.664   7.056 -0.2958  0.1138  0.0027
  592ERGO    R5 9118   5.278  10.836   7.002 -0.0200  0.2892 -0.0834
  592ERGO    C1 9119   5.509  10.997   7.260  0.1154 -0.0070 -0.0164
  592ERGO    C2 9120   5.793  11.121   7.330 -0.0369 -0.1025 -0.1200
  593ERGO   ROH 9121   8.452   9.667   9.973 -0.0028  0.1374 -0.0794
  593ERGO    R1 9122   8.403   9.837   9.752  0.0933  0.0863 -0.1429
  593ERGO    R2 9123   8.577   9.857   9.538  0.1262 -0.0658 -0.1443
  593ERGO    R3 9124   8.355   9.797   9.394  0.1067 -0.0210 -0.1296
  593ERGO    R4 9125   8.516   9.959   9.213  0.1251 -0.1062 -0.1558
  593ERGO    R5 9126   8.309   9.994   9.268  0.1495 -0.0412 -0.1584
  593ERGO    C1 9127   8.272   9.962   8.889  0.1061 -0.0878 -0.1486
  593ERGO    C2 9128   8.169   9.925   8.533  0.1520  0.2090  0.0299
  594ERGO   ROH 9129  12.670   4.074   6.403 -0.1964 -0.1642 -0.0898
  594ERGO    R1 9130  12.759   3.882   6.592 -0.1199 -0.0883 -0.0481
  594ERGO    R2 9131  12.994   3.741   6.561 -0.0899 -0.0389 -0.0437
  594ERGO    R3 9132  13.048   3.839   6.809 -0.0752  0.0452 -0.0796
  594ERGO    R4 9133  13.298   3.713   6.722 -0.0951 -0.0298 -0.0321
  594ERGO    R5 9134  13.190   3.674   6.908 -0.1031  0.0575 -0.0172
  594ERGO    C1 9135  13.526   3.788   7.049 -0.0843  0.0544 -0.0590
  594ERGO    C2 9136  13.733   3.845   7.398 -0.0908  0.1408 -0.1526
  595ERGO   ROH 9137   0.419   5.067   9.930  0.0616 -0.2298  0.0231
  595ERGO    R1 9138   0.332   5.147   9.673 -0.0620 -0.2755  0.0504
  595ERGO    R2 9139   0.475   5.323   9.515 -0.3290  0.0038  0.1095
  595ERGO    R3 9140   0.456   5.122   9.332 -0.0191  0.0324  0.0407
  595ERGO    R4 9141   0.421   5.368   9.176 -0.1433  0.0443  0.0842
  595ERGO    R5 9142   0.287   5.196   9.180  0.0123 -0.0839 -0.0531
  595ERGO    C1 9143   0.372   5.207   8.808  0.2558  0.0948  0.0050
  595ERGO    C2 9144   0.353   5.277   8.536  0.0188  0.1799 -0.1842
  596ERGO   ROH 9145  17.095  12.329   9.773 -0.0986  0.0511 -0.0765
  596ERGO    R1 9146  17.002  12.284   9.510 -0.1074 -0.1939 -0.0342
  596ERGO    R2 9147  17.080  12.440   9.295 -0.4485 -0.1155 -0.1091
  596ERGO    R3 9148  17.150  12.200   9.188 -0.0592 -0.0333 -0.0541
  596ERGO    R4 9149  17.156  12.387   8.962 -0.2812 -0.0589 -0.0806
  596ERGO    R5 9150  17.047  12.199   8.972 -0.0031 -0.2252 -0.0805
  596ERGO    C1 9151  17.266  12.131   8.668  0.1816  0.0514 -0.0125
  596ERGO    C2 9152  17.262  12.081   8.294 -0.1481 -0.0962  0.1668
  597ERGO   ROH 9153   6.552   1.843   9.540  0.0710  0.2197 -0.0579
  597ERGO    R1 9154   6.493   1.899   9.269 -0.0880 -0.0083 -0.0721
  597ERGO    R2 9155   6.675   1.858   9.065 -0.0611  0.2078 -0.0860
  597ERGO    R3 9156   6.473   1.711   8.958  0.1624 -0.1927  0.0180
  597ERGO    R4 9157   6.625   1.810   8.727 -0.2445  0.2956 -0.0738
  597ERGO    R5 9158   6.411   1.832   8.760 -0.2848 -0.2040  0.1347
  597ERGO    C1 9159   6.407   1.644   8.428 -0.1414 -0.0293  0.0308
  597ERGO    C2 9160   6.329   1.714   8.121  0.4754  0.0266 -0.2438
  598ERGO   ROH 9161   8.446   0.973   9.364  0.0540  0.1549  0.0322
  598ERGO    R1 9162   8.366   1.066   9.109  0.2246  0.1261 -0.0330
  598ERGO    R2 9163   8.540   1.079   8.894  0.3080 -0.1288  0.0157
  598ERGO    R3 9164   8.347   0.931   8.771  0.2042  0.0023  0.0174
  598ERGO    R4 9165   8.488   1.066   8.552  0.1947  0.0244  0.0259
  598ERGO    R5 9166   8.273   1.068   8.590  0.2072  0.1046  0.0929
  598ERGO    C1 9167   8.277   0.920   8.239  0.0314  0.2368  0.0334
  598ERGO    C2 9168   8.265   1.083   8.004  0.1284 -0.1305 -0.2377
  599ERGO   ROH 9169  18.477  12.800   9.450  0.1737 -0.1330  0.0115
  599ERGO    R1 9170  18.482  12.691   9.189  0.2995 -0.1184  0.0081
  599ERGO    R2 9171  18.389  12.828   8.969  0.0208 -0.2634  0.0360
  599ERGO    R3 9172  18.636  12.774   8.870  0.0957  0.1506 -0.0256
  599ERGO    R4 9173  18.469  12.815   8.633 -0.0601 -0.1877  0.0124
  599ERGO    R5 9174  18.595  12.642   8.675  0.2634  0.0330  0.0124
  599ERGO    C1 9175  18.748  12.756   8.345 -0.0369  0.2451 -0.0589
  599ERGO    C2 9176  18.867  12.968   8.083 -0.0131  0.0398 -0.2833
  600ERGO   ROH 9177   2.948   8.006   6.287 -0.1019 -0.2026  0.0334
  600ERGO    R1 9178   3.028   7.908   6.540 -0.1288 -0.1969  0.0416
  600ERGO    R2 9179   3.102   8.075   6.749 -0.2209 -0.1946  0.0600
  600ERGO    R3 9180   2.911   7.937   6.884 -0.2060 -0.2568  0.0232
  600ERGO    R4 9181   3.057   8.082   7.091 -0.4254 -0.0196  0.0340
  600ERGO    R5 9182   3.018   7.868   7.086 -0.2675 -0.0611  0.1327
  600ERGO    C1 9183   2.852   7.956   7.417 -0.5304  0.0239 -0.0156
  600ERGO    C2 9184   2.643   7.842   7.638  0.3155 -0.3603  0.1711
  601ERGO   ROH 9185   0.869   8.791   6.162 -0.1866  0.0182 -0.0277
  601ERGO    R1 9186   0.772   8.956   6.370 -0.0466  0.0047  0.0491
  601ERGO    R2 9187   0.937   9.061   6.565  0.1055  0.0882 -0.1211
  601ERGO    R3 9188   0.827   9.296   6.485 -0.0620  0.0382 -0.0434
  601ERGO    R4 9189   0.884   9.335   6.769  0.0963  0.0553 -0.0788
  601ERGO    R5 9190   0.693   9.366   6.670  0.0187 -0.0348  0.0427
  601ERGO    C1 9191   0.750   9.716   6.812 -0.0663 -0.0109  0.0187
  601ERGO    C2 9192   0.873   9.999   6.990 -0.1211 -0.0723 -0.0855
  602ERGO   ROH 9193   2.583   9.826  10.176 -0.0074  0.0391  0.1828
  602ERGO    R1 9194   2.712   9.875   9.930 -0.1916  0.1548  0.1061
  602ERGO    R2 9195   2.802   9.671   9.766  0.1019  0.2275  0.1643
  602ERGO    R3 9196   2.651   9.799   9.579 -0.2079 -0.1195  0.1678
  602ERGO    R4 9197   2.804   9.601   9.427  0.2199  0.2090  0.1686
  602ERGO    R5 9198   2.793   9.814   9.387 -0.2619  0.1868  0.1528
  602ERGO    C1 9199   2.663   9.679   9.055 -0.0022 -0.1276  0.1745
  602ERGO    C2 9200   2.632   9.657   8.621  0.0314  0.1839  0.1008
  603ERGO   ROH 9201   0.818  18.138   9.507 -0.0672  0.1442  0.1121
  603ERGO    R1 9202   0.851  18.154   9.226  0.1738  0.1112  0.1360
  603ERGO    R2 9203   1.062  18.035   9.094  0.1025 -0.2024  0.2931
  603ERGO    R3 9204   0.864  17.921   8.947  0.0364  0.1021  0.1366
  603ERGO    R4 9205   1.093  17.932   8.765  0.2020 -0.2349  0.3126
  603ERGO    R5 9206   0.893  18.010   8.727  0.3425  0.0710  0.1601
  603ERGO    C1 9207   0.925  17.764   8.437  0.1978  0.0318  0.1770
  603ERGO    C2 9208   1.050  17.692   8.128 -0.0137  0.2420 -0.0373
  604ERGO   ROH 9209  12.685   2.861   6.092 -0.2732  0.0059 -0.0078
  604ERGO    R1 9210  12.733   2.748   6.347 -0.1272  0.0554 -0.0132
  604ERGO    R2 9211  12.974   2.779   6.480 -0.0988  0.1933 -0.1000
  604ERGO    R3 9212  12.814   2.872   6.680 -0.0775  0.1281 -0.0511
  604ERGO    R4 9213  13.022   2.719   6.817 -0.1788 -0.0994 -0.1375
  604ERGO    R5 9214  12.807   2.693   6.839 -0.1998  0.0029 -0.1906
  604ERGO    C1 9215  12.901   2.771   7.201 -0.2056 -0.3311 -0.1133
  604ERGO    C2 9216  12.988   2.783   7.472 -0.2966  0.2092 -0.0825
  605ERGO   ROH 9217  15.347  15.146   5.581 -0.1589  0.0367  0.0140
  605ERGO    R1 9218  15.251  14.973   5.784 -0.2808  0.2297  0.1241
  605ERGO    R2 9219  15.396  14.757   5.876 -0.5777 -0.0284  0.0030
  605ERGO    R3 9220  15.356  14.874   6.118 -0.1340  0.0789  0.0350
  605ERGO    R4 9221  15.401  14.592   6.180 -0.3997  0.0342  0.0360
  605ERGO    R5 9222  15.231  14.712   6.242 -0.1794  0.2567  0.2257
  605ERGO    C1 9223  15.365  14.606   6.583  0.1204  0.1715  0.0851
  605ERGO    C2 9224  15.157  14.476   6.856  0.0342 -0.0040  0.1571
  606ERGO   ROH 9225   5.951   2.830   9.471  0.1586 -0.0921  0.0337
  606ERGO    R1 9226   6.028   2.794   9.201  0.1764  0.0046  0.0246
  606ERGO    R2 9227   5.845   2.789   8.994  0.1580 -0.2014  0.0369
  606ERGO    R3 9228   6.004   2.985   8.892 -0.0761 -0.0100  0.0350
  606ERGO    R4 9229   5.847   2.891   8.664  0.0952 -0.2481  0.0226
  606ERGO    R5 9230   6.064   2.907   8.675  0.0710  0.0362  0.0627
  606ERGO    C1 9231   5.998   3.135   8.376 -0.1611 -0.0956  0.0127
  606ERGO    C2 9232   5.815   3.335   8.100 -0.0381 -0.0274 -0.1827
  607ERGO   ROH 9233  17.605   8.343   9.656  0.2570 -0.0016  0.0296
  607ERGO    R1 9234  17.616   8.470   9.403  0.2339  0.0133  0.0354
  607ERGO    R2 9235  17.855   8.524   9.275  0.2201 -0.0700 -0.0303
  607ERGO    R3 9236  17.739   8.386   9.071  0.1063 -0.0108 -0.0057
  607ERGO    R4 9237  17.902   8.591   8.939  0.1024 -0.0323 -0.0394
  607ERGO    R5 9238  17.690   8.554   8.907  0.0815  0.0242  0.0389
  607ERGO    C1 9239  17.821   8.501   8.553 -0.0729  0.0452 -0.0216
  607ERGO    C2 9240  17.883   8.653   8.225  0.4159  0.3848  0.0509
  608ERGO   ROH 9241   8.221   3.707   9.444 -0.0841  0.0105 -0.0180
  608ERGO    R1 9242   8.371   3.575   9.243 -0.0010  0.0088  0.0448
  608ERGO    R2 9243   8.252   3.442   9.032  0.0834 -0.1249  0.0812
  608ERGO    R3 9244   8.412   3.603   8.882  0.0214 -0.1028  0.0379
  608ERGO    R4 9245   8.235   3.473   8.688 -0.0324 -0.1077  0.0880
  608ERGO    R5 9246   8.453   3.478   8.682 -0.0335 -0.0892  0.0171
  608ERGO    C1 9247   8.375   3.643   8.347 -0.1580 -0.0771  0.0512
  608ERGO    C2 9248   8.342   3.601   7.946 -0.2841 -0.1686  0.3504
  609ERGO   ROH 9249   9.134  11.841   9.722  0.0394  0.1832  0.1180
  609ERGO    R1 9250   9.202  11.873   9.449  0.0075  0.1579  0.1075
  609ERGO    R2 9251   9.275  11.661   9.288  0.0407  0.1516  0.1333
  609ERGO    R3 9252   9.075  11.754   9.130  0.0063  0.0823  0.1354
  609ERGO    R4 9253   9.295  11.694   8.945 -0.0246  0.0183  0.1162
  609ERGO    R5 9254   9.187  11.883   8.962 -0.0290  0.0220  0.0635
  609ERGO    C1 9255   9.118  11.799   8.596 -0.0947 -0.1243  0.1081
  609ERGO    C2 9256   8.949  11.656   8.336  0.0546 -0.0529 -0.0403
  610ERGO   ROH 9257  13.447   1.440   5.764 -0.0257  0.0248 -0.0249
  610ERGO    R1 9258  13.416   1.478   6.042 -0.0905  0.1278 -0.0448
  610ERGO    R2 9259  13.168   1.484   6.165 -0.1201  0.0844 -0.0890
  610ERGO    R3 9260  13.276   1.290   6.321 -0.0701  0.1870  0.0034
  610ERGO    R4 9261  13.068   1.410   6.487 -0.1200  0.1752 -0.0685
  610ERGO    R5 9262  13.277   1.383   6.541 -0.1227  0.2704 -0.0366
  610ERGO    C1 9263  13.111   1.184   6.821 -0.0728  0.3245  0.0301
  610ERGO    C2 9264  13.185   1.094   7.205 -0.0061  0.0939  0.1295
  611ERGO   ROH 9265  17.594  14.637   9.621  0.2812  0.0831  0.1033
  611ERGO    R1 9266  17.485  14.505   9.396  0.2234  0.0001  0.1796
  611ERGO    R2 9267  17.492  14.613   9.141  0.0046 -0.0146  0.1665
  611ERGO    R3 9268  17.609  14.376   9.079  0.1091  0.0497  0.1135
  611ERGO    R4 9269  17.487  14.466   8.829  0.0636  0.0531  0.1334
  611ERGO    R5 9270  17.457  14.273   8.925  0.1500  0.0169  0.0931
  611ERGO    C1 9271  17.594  14.158   8.588  0.1963  0.1528  0.0642
  611ERGO    C2 9272  17.621  14.233   8.325 -0.1571 -0.0398 -0.1781
  612ERGO   ROH 9273   6.356  10.234   6.630 -0.2855 -0.1696  0.2147
  612ERGO    R1 9274   6.382  10.114   6.885  0.0686 -0.2054  0.1663
  612ERGO    R2 9275   6.627  10.045   6.992  0.2603  0.2211  0.0212
  612ERGO    R3 9276   6.542  10.197   7.201  0.0734 -0.0014  0.1123
  612ERGO    R4 9277   6.791  10.074   7.295  0.2191  0.2230  0.0435
  612ERGO    R5 9278   6.598  10.068   7.395  0.2162 -0.0619  0.0356
  612ERGO    C1 9279   6.807  10.235   7.667  0.0197  0.0152  0.1420
  612ERGO    C2 9280   7.100  10.264   7.857 -0.1604 -0.1315 -0.4220
  613ERGO   ROH 9281   4.567  14.460   9.379  0.1721  0.0800  0.0864
  613ERGO    R1 9282   4.608  14.264   9.178  0.2321  0.0708  0.1066
  613ERGO    R2 9283   4.464  14.261   8.942  0.0753 -0.1269  0.2009
  613ERGO    R3 9284   4.712  14.260   8.830  0.0040  0.0916  0.0358
  613ERGO    R4 9285   4.529  14.239   8.603 -0.1362 -0.4331  0.1779
  613ERGO    R5 9286   4.695  14.106   8.648  0.0867 -0.1521  0.2265
  613ERGO    C1 9287   4.798  14.225   8.301 -0.3263 -0.4064  0.0094
  613ERGO    C2 9288   4.917  14.112   8.052  0.1371  0.0804 -0.0028
  614ERGO   ROH 9289   7.292   5.889   9.987  0.3153  0.3142  0.2013
  614ERGO    R1 9290   7.367   5.960   9.724  0.2567  0.1939  0.1523
  614ERGO    R2 9291   7.527   5.798   9.566  0.0064 -0.0004  0.0957
  614ERGO    R3 9292   7.321   5.822   9.390 -0.0589  0.1894  0.1940
  614ERGO    R4 9293   7.562   5.846   9.226 -0.1093  0.0182  0.0853
  614ERGO    R5 9294   7.396   5.986   9.233  0.0031  0.1538  0.1830
  614ERGO    C1 9295   7.390   5.896   8.862 -0.2381  0.2072  0.1715
  614ERGO    C2 9296   7.331   5.898   8.557  0.4231 -0.1276 -0.0312
  615ERGO   ROH 9297  10.193   9.545   6.297  0.0156  0.1122  0.1234
  615ERGO    R1 9298  10.244   9.619   6.565  0.0868  0.0653  0.1234
  615ERGO    R2 9299  10.345   9.441   6.752  0.0069 -0.0067  0.1027
  615ERGO    R3 9300  10.535   9.633   6.785  0.1202 -0.1160  0.0915
  615ERGO    R4 9301  10.535   9.486   7.038 -0.0974  0.0180  0.1680
  615ERGO    R5 9302  10.512   9.701   7.013  0.0579  0.0192  0.0445
  615ERGO    C1 9303  10.823   9.692   7.234 -0.0519 -0.0702  0.1956
  615ERGO    C2 9304  10.848   9.838   7.442  0.1688  0.4104 -0.2284
  616ERGO   ROH 9305  11.252  11.055   9.231  0.2692 -0.2339 -0.0026
  616ERGO    R1 9306  11.275  10.918   8.984  0.0279 -0.1073 -0.0989
  616ERGO    R2 9307  11.091  10.947   8.780  0.0185  0.2800 -0.0437
  616ERGO    R3 9308  11.311  11.010   8.634  0.0764  0.0749 -0.0476
  616ERGO    R4 9309  11.107  10.944   8.435  0.0380  0.1710 -0.0421
  616ERGO    R5 9310  11.306  10.857   8.450 -0.0259  0.0256 -0.0050
  616ERGO    C1 9311  11.323  11.001   8.097  0.1037 -0.0850 -0.0447
  616ERGO    C2 9312  11.334  11.166   7.807  0.0306  0.1707  0.4369
  617ERGO   ROH 9313  15.933  11.650   9.626  0.0879 -0.0532  0.0089
  617ERGO    R1 9314  15.848  11.481   9.416  0.3024 -0.2482  0.0747
  617ERGO    R2 9315  15.671  11.564   9.220 -0.0237 -0.6288  0.1924
  617ERGO    R3 9316  15.868  11.480   9.052  0.0515 -0.2089  0.0593
  617ERGO    R4 9317  15.627  11.483   8.887 -0.0231 -0.5048  0.1617
  617ERGO    R5 9318  15.763  11.316   8.914  0.2652 -0.3019  0.0059
  617ERGO    C1 9319  15.786  11.357   8.536  0.0479 -0.0382  0.0189
  617ERGO    C2 9320  15.856  11.321   8.124 -0.2367  0.1324 -0.0739
  618ERGO   ROH 9321  11.697   1.120   9.280  0.0822  0.1060 -0.1049
  618ERGO    R1 9322  11.891   1.104   9.075  0.0401  0.1015 -0.1444
  618ERGO    R2 9323  11.973   0.862   8.966  0.0741  0.0941 -0.1013
  618ERGO    R3 9324  11.904   0.981   8.732 -0.0072  0.0177 -0.1168
  618ERGO    R4 9325  12.014   0.722   8.653  0.0780  0.0409 -0.0772
  618ERGO    R5 9326  12.076   0.917   8.579 -0.0063  0.0488 -0.1294
  618ERGO    C1 9327  11.973   0.752   8.251  0.0038 -0.0618 -0.0776
  618ERGO    C2 9328  11.812   0.815   7.996 -0.2243 -0.1784 -0.1812
  619ERGO   ROH 9329   7.409   9.823   6.477  0.1184 -0.1944  0.0254
  619ERGO    R1 9330   7.566   9.727   6.692 -0.0138 -0.1334  0.1520
  619ERGO    R2 9331   7.813   9.834   6.756  0.0456 -0.2514  0.1419
  619ERGO    R3 9332   7.700   9.862   7.002 -0.0177  0.0243  0.0845
  619ERGO    R4 9333   7.989   9.858   7.053 -0.0433 -0.2266  0.1924
  619ERGO    R5 9334   7.839   9.730   7.146 -0.2018 -0.0154  0.2246
  619ERGO    C1 9335   7.986   9.897   7.456 -0.1544  0.0468  0.1678
  619ERGO    C2 9336   8.222  10.126   7.550  0.0540 -0.3047  0.1620
  620ERGO   ROH 9337  15.337   1.268   9.321  0.0518  0.0897 -0.0510
  620ERGO    R1 9338  15.465   1.139   9.104  0.0274  0.0123 -0.0182
  620ERGO    R2 9339  15.326   1.042   8.886  0.0250  0.1155 -0.0564
  620ERGO    R3 9340  15.500   1.197   8.746  0.1706  0.0004 -0.0082
  620ERGO    R4 9341  15.337   1.065   8.541 -0.2769  0.5592 -0.0463
  620ERGO    R5 9342  15.554   1.066   8.553 -0.2501  0.1515 -0.2475
  620ERGO    C1 9343  15.506   1.223   8.209 -0.3162  0.7095  0.0048
  620ERGO    C2 9344  15.494   1.230   7.849 -0.1459  0.2009 -0.1063
  621ERGO   ROH 9345   1.018  10.232   6.059  0.1939  0.0119  0.0863
  621ERGO    R1 9346   1.192  10.243   6.281  0.0867  0.0037  0.1725
  621ERGO    R2 9347   1.105  10.304   6.536 -0.0585 -0.1292  0.1589
  621ERGO    R3 9348   1.227  10.070   6.599  0.0116 -0.1018  0.1231
  621ERGO    R4 9349   1.283  10.247   6.826  0.0181 -0.0988  0.1172
  621ERGO    R5 9350   1.429  10.136   6.709  0.0186 -0.0583  0.0818
  621ERGO    C1 9351   1.502   9.993   7.055  0.1285 -0.0552  0.0594
  621ERGO    C2 9352   1.274   9.888   7.346  0.0309  0.1440  0.1981
  622ERGO   ROH 9353   9.188   8.600   9.581  0.3314 -0.0179 -0.0787
  622ERGO    R1 9354   9.069   8.653   9.329  0.0749 -0.0804  0.0256
  622ERGO    R2 9355   9.200   8.791   9.129 -0.2255  0.1078 -0.0497
  622ERGO    R3 9356   9.139   8.571   8.981 -0.1116  0.0758 -0.0498
  622ERGO    R4 9357   9.143   8.792   8.788 -0.3938  0.1055 -0.0221
  622ERGO    R5 9358   8.980   8.650   8.820 -0.2583 -0.0370  0.0384
  622ERGO    C1 9359   9.052   8.586   8.451 -0.3851  0.0740 -0.0062
  622ERGO    C2 9360   9.134   8.596   8.116 -0.0915  0.1277 -0.2890
  623ERGO   ROH 9361   2.271   6.551   9.988 -0.3217  0.0491  0.0709
  623ERGO    R1 9362   2.317   6.475   9.719 -0.0682 -0.0041  0.1263
  623ERGO    R2 9363   2.117   6.474   9.528  0.0678 -0.2167 -0.0224
  623ERGO    R3 9364   2.292   6.632   9.392  0.0495 -0.1275  0.0572
  623ERGO    R4 9365   2.159   6.473   9.185  0.1007 -0.0668 -0.0193
  623ERGO    R5 9366   2.374   6.493   9.216  0.0927 -0.0381  0.0072
  623ERGO    C1 9367   2.347   6.621   8.858  0.1027  0.1042  0.0571
  623ERGO    C2 9368   2.309   6.653   8.530 -0.1739 -0.2604 -0.1202
  624ERGO   ROH 9369   6.046  17.235   9.508  0.3549 -0.0735 -0.0191
  624ERGO    R1 9370   5.981  17.241   9.233  0.1617 -0.0303  0.0261
  624ERGO    R2 9371   5.966  17.477   9.089  0.0828 -0.0074  0.0665
  624ERGO    R3 9372   6.142  17.351   8.925 -0.0421 -0.0041 -0.0718
  624ERGO    R4 9373   5.987  17.525   8.748  0.0544  0.2514  0.0997
  624ERGO    R5 9374   6.018  17.311   8.724 -0.1077  0.2492 -0.0819
  624ERGO    C1 9375   6.165  17.435   8.395 -0.0795  0.4053 -0.0110
  624ERGO    C2 9376   6.309  17.565   8.042  0.0742  0.1523 -0.6064
  625ERGO   ROH 9377   1.870   2.494   9.397 -0.2615  0.1204  0.0994
  625ERGO    R1 9378   2.005   2.533   9.152 -0.1536  0.0296  0.1439
  625ERGO    R2 9379   2.020   2.337   8.957 -0.2589  0.0344  0.1331
  625ERGO    R3 9380   1.917   2.532   8.799 -0.0469  0.1356  0.1158
  625ERGO    R4 9381   2.086   2.372   8.620 -0.4319 -0.2383  0.0682
  625ERGO    R5 9382   2.096   2.587   8.649 -0.0504 -0.2333 -0.0376
  625ERGO    C1 9383   2.027   2.575   8.274 -0.3337 -0.3021  0.0143
  625ERGO    C2 9384   2.093   2.658   7.957 -0.0273  0.2757 -0.0338
  626ERGO   ROH 9385   2.233  11.578   6.556 -0.1602 -0.0910  0.2128
  626ERGO    R1 9386   2.172  11.662   6.819 -0.2640  0.0957  0.1315
  626ERGO    R2 9387   2.336  11.605   7.035 -0.4748  0.0268  0.2766
  626ERGO    R3 9388   2.327  11.874   7.071 -0.2242  0.0558  0.1408
  626ERGO    R4 9389   2.357  11.764   7.341 -0.2008  0.1705  0.1858
  626ERGO    R5 9390   2.203  11.903   7.274 -0.1106  0.2699  0.1825
  626ERGO    C1 9391   2.362  12.110   7.553  0.1940  0.2815  0.0055
  626ERGO    C2 9392   2.190  12.418   7.721 -0.1429  0.0955  0.0148
  627ERGO   ROH 9393   9.309  10.606   9.179  0.0414 -0.0118 -0.1424
  627ERGO    R1 9394   9.306  10.405   8.980  0.0052 -0.0600 -0.0919
  627ERGO    R2 9395   9.099  10.378   8.799 -0.0025 -0.0756 -0.0722
  627ERGO    R3 9396   9.301  10.393   8.617 -0.0111 -0.1532 -0.0904
  627ERGO    R4 9397   9.058  10.361   8.456 -0.0619  0.0465 -0.0724
  627ERGO    R5 9398   9.238  10.239   8.445 -0.1360 -0.0699 -0.1270
  627ERGO    C1 9399   9.223  10.366   8.086 -0.1045  0.0446 -0.0895
  627ERGO    C2 9400   9.111  10.348   7.694  0.0206  0.2568 -0.0433
  628ERGO   ROH 9401  16.405   1.300   5.986  0.1347 -0.0168  0.0492
  628ERGO    R1 9402  16.295   1.253   6.243  0.0253  0.1173  0.0290
  628ERGO    R2 9403  16.442   1.144   6.450 -0.1192  0.0246  0.0891
  628ERGO    R3 9404  16.359   1.366   6.583  0.0329  0.1198  0.0255
  628ERGO    R4 9405  16.411   1.169   6.793 -0.0934  0.1563  0.0818
  628ERGO    R5 9406  16.227   1.282   6.763 -0.0162  0.2678  0.0555
  628ERGO    C1 9407  16.315   1.392   7.118  0.0646  0.3224  0.0180
  628ERGO    C2 9408  16.498   1.308   7.432 -0.0727 -0.2829  0.1578
  629ERGO   ROH 9409  11.544   9.320   9.300  0.0563  0.0164 -0.0080
  629ERGO    R1 9410  11.430   9.282   9.044 -0.0402 -0.0103  0.0379
  629ERGO    R2 9411  11.350   9.493   8.885 -0.0937 -0.0242  0.0406
  629ERGO    R3 9412  11.513   9.375   8.702 -0.1626 -0.0518 -0.0022
  629ERGO    R4 9413  11.304   9.507   8.542 -0.0968  0.0984  0.0460
  629ERGO    R5 9414  11.363   9.297   8.531 -0.2050  0.0749 -0.0198
  629ERGO    C1 9415  11.429   9.404   8.171 -0.1633  0.1439  0.0088
  629ERGO    C2 9416  11.355   9.631   7.885  0.1055  0.1945 -0.0003
  630ERGO   ROH 9417   4.350   9.604  10.153  0.0325 -0.1691 -0.1270
  630ERGO    R1 9418   4.298   9.702   9.892  0.0685 -0.0301 -0.0841
  630ERGO    R2 9419   4.495   9.720   9.699  0.0814 -0.0076 -0.0788
  630ERGO    R3 9420   4.319   9.572   9.553  0.0298  0.1159 -0.1404
  630ERGO    R4 9421   4.486   9.708   9.354  0.2606 -0.1024 -0.0807
  630ERGO    R5 9422   4.268   9.711   9.364  0.2631  0.1025 -0.2081
  630ERGO    C1 9423   4.316   9.564   9.015  0.3165 -0.0417 -0.1396
  630ERGO    C2 9424   4.279   9.635   8.612 -0.1505  0.0758  0.2129
  631ERGO   ROH 9425   4.108  18.089   6.092 -0.0457 -0.1743 -0.1996
  631ERGO    R1 9426   4.346  17.959   6.173 -0.0504 -0.1219 -0.1019
  631ERGO    R2 9427   4.596  18.074   6.144 -0.0566 -0.1101 -0.0949
  631ERGO    R3 9428   4.614  18.023   6.411 -0.1038 -0.0080 -0.0711
  631ERGO    R4 9429   4.873  17.941   6.301 -0.1952 -0.3469 -0.0454
  631ERGO    R5 9430   4.740  17.820   6.424 -0.3271 -0.1444  0.0169
  631ERGO    C1 9431   5.052  17.815   6.643 -0.3203 -0.3888  0.0058
  631ERGO    C2 9432   4.985  17.630   6.860 -0.1595 -0.3143 -0.2451
  632ERGO   ROH 9433   6.267  12.466   9.931  0.1493 -0.1848 -0.0116
  632ERGO    R1 9434   6.203  12.346   9.683  0.1411 -0.0641 -0.0680
  632ERGO    R2 9435   6.040  12.467   9.496  0.0652 -0.0128  0.0359
  632ERGO    R3 9436   6.251  12.425   9.330  0.0446  0.1520 -0.0352
  632ERGO    R4 9437   6.016  12.426   9.154 -0.0029  0.1689  0.0175
  632ERGO    R5 9438   6.168  12.270   9.167  0.0578  0.2107 -0.1024
  632ERGO    C1 9439   6.200  12.363   8.799 -0.0618  0.4296 -0.0601
  632ERGO    C2 9440   6.112  12.270   8.447 -0.0919  0.1661 -0.0763
  633ERGO   ROH 9441  14.532  16.451   5.388 -0.0608 -0.1024  0.0518
  633ERGO    R1 9442  14.490  16.379   5.659  0.0359 -0.0114  0.0923
  633ERGO    R2 9443  14.600  16.520   5.869  0.0103  0.1347  0.0118
  633ERGO    R3 9444  14.342  16.531   5.954  0.0218  0.0367  0.0598
  633ERGO    R4 9445  14.500  16.604   6.190  0.0356  0.0841  0.0324
  633ERGO    R5 9446  14.349  16.448   6.178  0.0918  0.0306  0.0540
  633ERGO    C1 9447  14.200  16.663   6.455  0.0612 -0.0374  0.0896
  633ERGO    C2 9448  14.143  16.618   6.805  0.1055 -0.3005 -0.2942
  634ERGO   ROH 9449   7.565   0.758   5.955 -0.0676 -0.1054 -0.0388
  634ERGO    R1 9450   7.694   0.656   6.185 -0.0408 -0.0687 -0.0365
  634ERGO    R2 9451   7.864   0.438   6.176 -0.0586 -0.0872 -0.0159
  634ERGO    R3 9452   8.038   0.609   6.296 -0.0280 -0.0747 -0.0808
  634ERGO    R4 9453   8.103   0.346   6.408 -0.1345 -0.0297  0.0846
  634ERGO    R5 9454   8.057   0.527   6.520 -0.0981  0.0493 -0.0302
  634ERGO    C1 9455   8.405   0.453   6.655 -0.1499  0.0157  0.0822
  634ERGO    C2 9456   8.703   0.519   6.750 -0.1104 -0.0509 -0.0164
  635ERGO   ROH 9457   7.953   2.927   6.198 -0.2323 -0.0677 -0.2598
  635ERGO    R1 9458   7.899   2.856   6.466  0.1086 -0.2362 -0.2294
  635ERGO    R2 9459   7.659   2.913   6.590  0.4431  0.1778  0.2849
  635ERGO    R3 9460   7.658   2.646   6.640 -0.0497  0.1094 -0.0250
  635ERGO    R4 9461   7.524   2.766   6.872  0.6364  0.1513  0.3640
  635ERGO    R5 9462   7.695   2.630   6.876  0.3552 -0.2390 -0.1038
  635ERGO    C1 9463   7.445   2.429   7.084  0.2864  0.0718  0.1191
  635ERGO    C2 9464   7.335   2.095   7.247  0.0849  0.1507 -0.1512
  636ERGO   ROH 9465  18.255  16.605   9.383  0.2354 -0.0980 -0.0697
  636ERGO    R1 9466  18.199  16.470   9.140  0.0059 -0.0336 -0.0551
  636ERGO    R2 9467  17.981  16.534   8.982  0.1091  0.3242 -0.0677
  636ERGO    R3 9468  18.170  16.560   8.788  0.1648 -0.0222 -0.0649
  636ERGO    R4 9469  17.935  16.456   8.648  0.0887  0.0862 -0.0107
  636ERGO    R5 9470  18.136  16.371   8.645  0.0066 -0.1102  0.0888
  636ERGO    C1 9471  18.086  16.436   8.272  0.1290 -0.3777  0.0253
  636ERGO    C2 9472  17.990  16.439   7.965  0.2023  0.1431  0.3360
  637ERGO   ROH 9473   7.148  13.967   6.417  0.2991  0.0633 -0.1107
  637ERGO    R1 9474   7.097  14.107   6.658  0.1794  0.0507 -0.1273
  637ERGO    R2 9475   6.952  13.998   6.866  0.0972  0.0297 -0.1933
  637ERGO    R3 9476   7.173  14.062   7.011  0.0283  0.0455 -0.0953
  637ERGO    R4 9477   6.952  14.072   7.204 -0.0323 -0.1421 -0.1551
  637ERGO    R5 9478   7.097  14.230   7.164 -0.0844 -0.0634 -0.0314
  637ERGO    C1 9479   7.159  14.174   7.537 -0.1724 -0.2273 -0.0409
  637ERGO    C2 9480   7.040  14.107   7.879 -0.1395 -0.2852 -0.1994
  638ERGO   ROH 9481  17.796   2.908   9.309 -0.1380 -0.1028 -0.0016
  638ERGO    R1 9482  17.956   2.804   9.099  0.0705 -0.1764  0.1887
  638ERGO    R2 9483  17.981   2.931   8.855 -0.0598 -0.4900  0.0060
  638ERGO    R3 9484  18.246   2.914   8.910 -0.0412 -0.0158  0.1083
  638ERGO    R4 9485  18.233   2.984   8.625 -0.0722 -0.3523  0.0234
  638ERGO    R5 9486  18.341   2.816   8.712  0.1692 -0.0919  0.2440
  638ERGO    C1 9487  18.629   2.999   8.542 -0.0619  0.1731  0.1297
  638ERGO    C2 9488  18.652   3.127   8.169 -0.1469  0.0432  0.0169
  639ERGO   ROH 9489   6.967   2.734   9.438  0.1024  0.2217  0.2776
  639ERGO    R1 9490   6.898   2.918   9.234  0.1790  0.2586  0.2840
  639ERGO    R2 9491   7.086   3.032   9.067  0.2041 -0.0049  0.1231
  639ERGO    R3 9492   6.925   2.932   8.871 -0.0565  0.1375  0.2602
  639ERGO    R4 9493   7.081   3.142   8.739  0.2157 -0.1861  0.0610
  639ERGO    R5 9494   6.864   3.124   8.741  0.1839  0.1621  0.1828
  639ERGO    C1 9495   6.928   3.114   8.365 -0.0221 -0.1579  0.1534
  639ERGO    C2 9496   7.083   3.253   8.079  0.2696  0.0201  0.2609
  640ERGO   ROH 9497   1.909   0.807   6.372  0.0395  0.0116 -0.0690
  640ERGO    R1 9498   1.915   0.924   6.629  0.1394  0.0357 -0.0819
  640ERGO    R2 9499   1.805   0.801   6.851  0.0503  0.1444 -0.0647
  640ERGO    R3 9500   2.053   0.840   6.955  0.0854 -0.0376 -0.0778
  640ERGO    R4 9501   1.891   0.750   7.182  0.0018  0.1952 -0.0439
  640ERGO    R5 9502   2.014   0.930   7.173  0.1640  0.0835 -0.1129
  640ERGO    C1 9503   2.174   0.756   7.472  0.0065  0.0540 -0.0441
  640ERGO    C2 9504   2.319   0.615   7.726 -0.1403 -0.2395  0.2918
  641ERGO   ROH 9505  10.063   1.747   6.112 -0.2193 -0.3336 -0.0682
  641ERGO    R1 9506  10.095   1.657   6.379  0.0541 -0.1164 -0.0218
  641ERGO    R2 9507  10.274   1.772   6.554  0.0493  0.2050 -0.2133
  641ERGO    R3 9508  10.054   1.797   6.712  0.1193  0.0739 -0.0939
  641ERGO    R4 9509  10.280   1.807   6.898  0.1970  0.0134 -0.1956
  641ERGO    R5 9510  10.108   1.673   6.910  0.2322 -0.0238 -0.1886
  641ERGO    C1 9511  10.077   1.850   7.246  0.3487 -0.2212 -0.0733
  641ERGO    C2 9512   9.995   1.699   7.596  0.1702  0.0197  0.0104
  642ERGO   ROH 9513   3.634  18.216   5.999 -0.0560  0.1298 -0.1309
  642ERGO    R1 9514   3.716  18.139   6.259 -0.0751 -0.0650 -0.1806
  642ERGO    R2 9515   3.762  18.323   6.461  0.1922 -0.1921 -0.1208
  642ERGO    R3 9516   3.584  18.169   6.597  0.0466 -0.0387 -0.1354
  642ERGO    R4 9517   3.743  18.299   6.805  0.2469 -0.2987 -0.1245
  642ERGO    R5 9518   3.708  18.086   6.784 -0.0041 -0.2515 -0.1954
  642ERGO    C1 9519   3.565  18.142   7.133  0.1420 -0.2169 -0.1404
  642ERGO    C2 9520   3.566  17.872   7.503 -0.3631 -0.2782  0.1462
  643ERGO   ROH 9521  10.028  15.113   9.208 -0.0382  0.2892  0.0063
  643ERGO    R1 9522  10.134  15.123   8.946  0.0125  0.1665  0.0223
  643ERGO    R2 9523  10.026  14.979   8.736  0.0018  0.1365  0.0542
  643ERGO    R3 9524  10.015  15.222   8.616  0.1087  0.0995 -0.0343
  643ERGO    R4 9525   9.960  15.031   8.401 -0.1851  0.0448  0.0750
  643ERGO    R5 9526  10.113  15.187   8.400 -0.0605 -0.0678 -0.0895
  643ERGO    C1 9527   9.911  15.290   8.093 -0.1936 -0.0433  0.0041
  643ERGO    C2 9528   9.801  15.510   7.728 -0.2366 -0.2847 -0.0768
  644ERGO   ROH 9529   7.178   9.855   9.878  0.0385  0.0044  0.0545
  644ERGO    R1 9530   7.155  10.020   9.649  0.0831 -0.0187  0.0340
  644ERGO    R2 9531   7.361  10.053   9.468  0.0762 -0.1299  0.0111
  644ERGO    R3 9532   7.173   9.975   9.288  0.0277 -0.0747  0.0366
  644ERGO    R4 9533   7.372  10.121   9.130  0.1416 -0.2638 -0.0150
  644ERGO    R5 9534   7.157  10.159   9.136  0.1602 -0.1160 -0.0350
  644ERGO    C1 9535   7.202  10.088   8.763  0.1343 -0.2901 -0.0062
  644ERGO    C2 9536   7.149  10.024   8.380  0.2870 -0.0853  0.4487
  645ERGO   ROH 9537  13.134   4.309   9.532 -0.1242  0.1962  0.0213
  645ERGO    R1 9538  13.114   4.286   9.250 -0.1931  0.2025  0.0257
  645ERGO    R2 9539  12.966   4.463   9.097  0.0097  0.3846  0.0353
  645ERGO    R3 9540  13.200   4.491   8.962  0.0306  0.0749 -0.0001
  645ERGO    R4 9541  13.000   4.440   8.754 -0.0575  0.2689  0.0357
  645ERGO    R5 9542  13.186   4.331   8.785 -0.1824  0.0512  0.0358
  645ERGO    C1 9543  13.240   4.452   8.427 -0.0770 -0.0893  0.0028
  645ERGO    C2 9544  13.091   4.384   8.028 -0.0496 -0.1232 -0.1869
  646ERGO   ROH 9545  16.489  15.493   9.062  0.0182  0.2367  0.0757
  646ERGO    R1 9546  16.659  15.425   8.846 -0.0309  0.2009  0.0492
  646ERGO    R2 9547  16.620  15.199   8.691 -0.0518  0.1653  0.1126
  646ERGO    R3 9548  16.624  15.378   8.486 -0.1145  0.1159  0.0670
  646ERGO    R4 9549  16.662  15.115   8.359 -0.1797  0.0750  0.1178
  646ERGO    R5 9550  16.790  15.291   8.337 -0.1727  0.0636  0.0276
  646ERGO    C1 9551  16.691  15.234   7.973 -0.3129 -0.0241  0.0781
  646ERGO    C2 9552  16.698  15.160   7.646  0.1057  0.0633 -0.0577
  647ERGO   ROH 9553   6.022   2.985   6.350 -0.0429 -0.0661  0.1034
  647ERGO    R1 9554   5.846   3.161   6.484 -0.0719 -0.0186  0.0054
  647ERGO    R2 9555   5.578   3.105   6.519 -0.1153  0.0591 -0.1563
  647ERGO    R3 9556   5.636   3.150   6.780 -0.2526  0.0282 -0.1207
  647ERGO    R4 9557   5.348   3.204   6.758 -0.2182  0.1099 -0.2758
  647ERGO    R5 9558   5.499   3.338   6.840 -0.2306  0.0598 -0.1838
  647ERGO    C1 9559   5.269   3.304   7.142 -0.4069  0.1104 -0.3119
  647ERGO    C2 9560   5.154   3.546   7.438  0.1385 -0.0229  0.1778
  648ERGO   ROH 9561  17.308   9.778   9.714 -0.1865  0.1077  0.0835
  648ERGO    R1 9562  17.153   9.844   9.487 -0.0306 -0.0129 -0.0608
  648ERGO    R2 9563  17.262   9.961   9.261  0.1020 -0.0086  0.0036
  648ERGO    R3 9564  17.146   9.750   9.135  0.3059 -0.0901 -0.0502
  648ERGO    R4 9565  17.188   9.949   8.924 -0.0740  0.0929  0.0372
  648ERGO    R5 9566  17.001   9.850   8.973  0.0805 -0.1835  0.0903
  648ERGO    C1 9567  17.037   9.743   8.609  0.0152  0.0755  0.0063
  648ERGO    C2 9568  17.030   9.744   8.324  0.2089 -0.3142 -0.2576
  649ERGO   ROH 9569  13.198  13.759   5.752  0.1150  0.1851  0.0051
  649ERGO    R1 9570  13.113  13.616   5.981  0.0347  0.1935 -0.0189
  649ERGO    R2 9571  13.117  13.340   5.994 -0.0338  0.1921 -0.0317
  649ERGO    R3 9572  13.264  13.385   6.218 -0.0685  0.1452  0.0003
  649ERGO    R4 9573  13.172  13.107   6.244 -0.1658  0.1730 -0.0200
  649ERGO    R5 9574  13.146  13.266   6.390 -0.1465  0.1828 -0.0255
  649ERGO    C1 9575  13.341  13.014   6.600 -0.2753  0.1180  0.0167
  649ERGO    C2 9576  13.282  12.772   6.789  0.3073  0.3101  0.1117
  650ERGO   ROH 9577  13.657  11.720   9.371 -0.0563 -0.3017  0.1710
  650ERGO    R1 9578  13.587  11.668   9.102 -0.0156 -0.1382  0.1269
  650ERGO    R2 9579  13.678  11.823   8.892  0.0289 -0.0150  0.2284
  650ERGO    R3 9580  13.764  11.585   8.795  0.0330  0.0359  0.1088
  650ERGO    R4 9581  13.836  11.779   8.588 -0.0473  0.1142  0.1702
  650ERGO    R5 9582  13.720  11.597   8.560 -0.0276  0.1168  0.1294
  650ERGO    C1 9583  14.008  11.530   8.319 -0.0878  0.2372  0.0240
  650ERGO    C2 9584  14.265  11.330   8.024 -0.2268 -0.1215  0.1606
  651ERGO   ROH 9585   2.178  10.702   9.943  0.1739 -0.1359 -0.0096
  651ERGO    R1 9586   2.207  10.786   9.674 -0.1365 -0.0302 -0.0147
  651ERGO    R2 9587   2.382  10.664   9.498 -0.0228  0.3052 -0.1442
  651ERGO    R3 9588   2.159  10.640   9.344 -0.0825 -0.0571 -0.0103
  651ERGO    R4 9589   2.381  10.632   9.154 -0.1831  0.3682 -0.1503
  651ERGO    R5 9590   2.209  10.765   9.147 -0.4249  0.0706 -0.0206
  651ERGO    C1 9591   2.171  10.592   8.809 -0.3326  0.0649 -0.0282
  651ERGO    C2 9592   2.067  10.492   8.554 -0.2916  0.2450  0.1340
  652ERGO   ROH 9593  18.503  10.509   6.218 -0.0536  0.3987 -0.0320
  652ERGO    R1 9594  18.626  10.676   6.411  0.1062  0.3042 -0.0519
  652ERGO    R2 9595  18.601  10.632   6.683  0.1126  0.3263 -0.0534
  652ERGO    R3 9596  18.873  10.636   6.676  0.1175  0.1167 -0.0869
  652ERGO    R4 9597  18.805  10.665   6.960  0.1605  0.2793 -0.0819
  652ERGO    R5 9598  18.934  10.797   6.843  0.2521  0.1408 -0.1513
  652ERGO    C1 9599  19.179  10.689   7.115  0.1929  0.0553 -0.1299
  652ERGO    C2 9600  19.269  10.692   7.395  0.3694 -0.2814  0.1139
  653ERGO   ROH 9601  16.381   1.573   9.338 -0.1806 -0.3059  0.0036
  653ERGO    R1 9602  16.417   1.448   9.087 -0.3625 -0.1388 -0.1081
  653ERGO    R2 9603  16.320   1.556   8.852 -0.1312  0.2644 -0.0271
  653ERGO    R3 9604  16.579   1.532   8.771 -0.1525 -0.1278 -0.0001
  653ERGO    R4 9605  16.421   1.502   8.526 -0.1755  0.2635 -0.0412
  653ERGO    R5 9606  16.572   1.364   8.601 -0.4122 -0.0343 -0.0890
  653ERGO    C1 9607  16.723   1.448   8.260 -0.2215 -0.1051 -0.0240
  653ERGO    C2 9608  16.846   1.483   7.872 -0.0994  0.2473 -0.0133
  654ERGO   ROH 9609  15.730   4.362   9.349  0.2409 -0.0240  0.0420
  654ERGO    R1 9610  15.748   4.461   9.085  0.3174 -0.1486 -0.0010
  654ERGO    R2 9611  15.931   4.364   8.901  0.1119 -0.5080 -0.0255
  654ERGO    R3 9612  15.709   4.328   8.749  0.0012 -0.2153  0.0599
  654ERGO    R4 9613  15.916   4.407   8.558 -0.0105 -0.3283  0.0010
  654ERGO    R5 9614  15.721   4.500   8.583  0.0909 -0.1462  0.1377
  654ERGO    C1 9615  15.698   4.398   8.216 -0.1856  0.0512  0.0967
  654ERGO    C2 9616  15.524   4.616   7.888  0.1621 -0.2833  0.0434
  655ERGO   ROH 9617   6.391   5.206   9.799  0.0455 -0.0298 -0.0215
  655ERGO    R1 9618   6.343   5.365   9.570 -0.0678 -0.0501 -0.0136
  655ERGO    R2 9619   6.546   5.488   9.428 -0.1612  0.2420  0.0869
  655ERGO    R3 9620   6.435   5.356   9.218  0.0912  0.1258  0.0236
  655ERGO    R4 9621   6.610   5.557   9.095 -0.0870  0.3301  0.1197
  655ERGO    R5 9622   6.398   5.526   9.053 -0.0289  0.0880  0.0169
  655ERGO    C1 9623   6.542   5.474   8.704  0.1932  0.2722  0.0794
  655ERGO    C2 9624   6.449   5.457   8.407  0.0793 -0.0935  0.3024
  656ERGO   ROH 9625   4.867  12.513   9.671 -0.3353  0.4067 -0.0157
  656ERGO    R1 9626   4.989  12.439   9.427 -0.0453  0.4501  0.1118
  656ERGO    R2 9627   4.851  12.311   9.224  0.3342 -0.0663  0.1580
  656ERGO    R3 9628   4.944  12.517   9.074 -0.0671  0.0184  0.0132
  656ERGO    R4 9629   4.934  12.290   8.889  0.4009 -0.1485  0.1794
  656ERGO    R5 9630   5.106  12.417   8.929  0.1495  0.2323  0.1016
  656ERGO    C1 9631   5.069  12.472   8.554  0.0631 -0.1168  0.0558
  656ERGO    C2 9632   4.897  12.357   8.362 -0.1303  0.1254  0.4075
  657ERGO   ROH 9633   6.977   4.138   9.527 -0.0740 -0.3019 -0.0838
  657ERGO    R1 9634   6.947   4.033   9.266 -0.0272 -0.1543 -0.1490
  657ERGO    R2 9635   6.789   4.154   9.074 -0.0333 -0.0750 -0.0911
  657ERGO    R3 9636   7.017   4.145   8.927 -0.0188  0.0596 -0.0790
  657ERGO    R4 9637   6.801   4.136   8.729 -0.0098 -0.0755 -0.0906
  657ERGO    R5 9638   6.966   3.995   8.747  0.0772  0.0222 -0.0786
  657ERGO    C1 9639   7.022   4.117   8.390  0.0173  0.0505 -0.0788
  657ERGO    C2 9640   7.180   4.137   8.073 -0.2127  0.1918 -0.1608
  658ERGO   ROH 9641  15.065  18.021   9.104 -0.0082 -0.0997  0.0136
  658ERGO    R1 9642  14.962  17.904   8.868  0.1698 -0.0309 -0.0997
  658ERGO    R2 9643  14.826  18.049   8.678 -0.0314 -0.0458  0.0304
  658ERGO    R3 9644  15.012  17.944   8.509  0.1319  0.3741 -0.0641
  658ERGO    R4 9645  14.833  18.101   8.336 -0.3661 -0.0794  0.0144
  658ERGO    R5 9646  14.888  17.890   8.311  0.1327  0.0381  0.0206
  658ERGO    C1 9647  15.012  18.032   7.979 -0.4077  0.2950 -0.0835
  658ERGO    C2 9648  15.088  17.977   7.623  0.0809  0.1239  0.3036
  659ERGO   ROH 9649   6.578  10.899   9.824  0.0975 -0.0964 -0.0691
  659ERGO    R1 9650   6.659  10.705   9.636 -0.0145 -0.1099 -0.1067
  659ERGO    R2 9651   6.479  10.548   9.496 -0.1065 -0.0552 -0.0671
  659ERGO    R3 9652   6.612  10.646   9.280 -0.1428 -0.0702 -0.0940
  659ERGO    R4 9653   6.414  10.461   9.168 -0.0563 -0.1679 -0.0464
  659ERGO    R5 9654   6.629  10.459   9.131 -0.0650 -0.0963 -0.0412
  659ERGO    C1 9655   6.502  10.502   8.774 -0.0610 -0.2475 -0.0596
  659ERGO    C2 9656   6.535  10.479   8.459 -0.0208 -0.0448 -0.0724
  660ERGO   ROH 9657   2.757  18.268   6.439  0.0717 -0.0540  0.0151
  660ERGO    R1 9658   2.770  18.405   6.687 -0.0031 -0.0249  0.0026
  660ERGO    R2 9659   2.568  18.392   6.875 -0.0105 -0.0908 -0.0121
  660ERGO    R3 9660   2.770  18.315   7.039  0.0093  0.0102  0.0121
  660ERGO    R4 9661   2.549  18.381   7.220 -0.0875 -0.2059 -0.0192
  660ERGO    R5 9662   2.752  18.460   7.228 -0.1451 -0.0566  0.0518
  660ERGO    C1 9663   2.728  18.302   7.575 -0.1136 -0.1782 -0.0004
  660ERGO    C2 9664   2.791  18.469   7.831 -0.2539  0.1553 -0.2481
  661ERGO   ROH 9665  10.241   3.944   9.353 -0.1605  0.0595 -0.1525
  661ERGO    R1 9666  10.204   3.789   9.120 -0.0397  0.0518 -0.1702
  661ERGO    R2 9667  10.314   3.858   8.875  0.0018  0.1049 -0.1505
  661ERGO    R3 9668  10.416   3.607   8.887  0.0974  0.1476 -0.1160
  661ERGO    R4 9669  10.420   3.674   8.602 -0.1124  0.0140 -0.1317
  661ERGO    R5 9670  10.330   3.498   8.692  0.0153  0.0292 -0.0031
  661ERGO    C1 9671  10.577   3.331   8.455 -0.0892  0.0011 -0.0884
  661ERGO    C2 9672  10.889   3.243   8.302  0.0645 -0.2462  0.2044
  662ERGO   ROH 9673  16.729  18.222   5.836  0.0757  0.0563  0.2037
  662ERGO    R1 9674  16.570  18.218   6.071  0.0103 -0.0257  0.1587
  662ERGO    R2 9675  16.582  18.417   6.262 -0.0329 -0.0986  0.2385
  662ERGO    R3 9676  16.313  18.428   6.220 -0.0209 -0.0702  0.1676
  662ERGO    R4 9677  16.346  18.481   6.506 -0.0825  0.0503  0.1535
  662ERGO    R5 9678  16.218  18.328   6.416 -0.0865  0.0326  0.1888
  662ERGO    C1 9679  15.957  18.527   6.610 -0.0998  0.1637  0.0373
  662ERGO    C2 9680  15.727  18.416   6.914 -0.0837 -0.1237 -0.1153
  663ERGO   ROH 9681  16.695   3.019   5.859 -0.1314 -0.1121  0.0893
  663ERGO    R1 9682  16.711   2.911   6.120 -0.2593  0.1673  0.2172
  663ERGO    R2 9683  16.513   2.949   6.310 -0.5622  0.0163 -0.0611
  663ERGO    R3 9684  16.518   2.677   6.321 -0.1066  0.0256  0.2020
  663ERGO    R4 9685  16.363   2.758   6.556 -0.3812 -0.0025  0.0371
  663ERGO    R5 9686  16.537   2.628   6.555 -0.1514  0.2850  0.2648
  663ERGO    C1 9687  16.280   2.393   6.710  0.1518 -0.0047  0.3412
  663ERGO    C2 9688  16.088   2.180   6.931  0.0122 -0.0831 -0.1131
  664ERGO   ROH 9689  14.166   2.183   9.294 -0.0587  0.0351  0.0761
  664ERGO    R1 9690  13.984   2.021   9.151 -0.0650  0.1075  0.0016
  664ERGO    R2 9691  13.774   2.126   9.005  0.0300  0.1895 -0.0738
  664ERGO    R3 9692  13.883   1.979   8.804  0.0492  0.1554 -0.0388
  664ERGO    R4 9693  13.615   2.051   8.707  0.0529  0.1468 -0.0751
  664ERGO    R5 9694  13.700   1.850   8.719  0.0513  0.1442 -0.0338
  664ERGO    C1 9695  13.625   1.869   8.345  0.0843  0.0901 -0.0431
  664ERGO    C2 9696  13.585   1.978   8.027  0.1059 -0.2284 -0.1900
  665ERGO   ROH 9697  16.810  14.961   5.939  0.0980 -0.1152 -0.0587
  665ERGO    R1 9698  16.820  15.110   6.180  0.0320 -0.0606 -0.0898
  665ERGO    R2 9699  16.594  15.170   6.326  0.0177 -0.2251 -0.0477
  665ERGO    R3 9700  16.734  15.053   6.529  0.1663 -0.0669 -0.0557
  665ERGO    R4 9701  16.473  15.119   6.646  0.1248 -0.2687 -0.0133
  665ERGO    R5 9702  16.668  15.176   6.724  0.0982 -0.0815 -0.0651
  665ERGO    C1 9703  16.533  14.980   7.022  0.3267 -0.1456 -0.0007
  665ERGO    C2 9704  16.285  14.956   7.215 -0.1844 -0.0619 -0.0093
  666ERGO   ROH 9705   1.632  14.703   6.156  0.0586  0.1017  0.0673
  666ERGO    R1 9706   1.401  14.811   6.280  0.0218  0.0540  0.0416
  666ERGO    R2 9707   1.241  14.664   6.451 -0.0058 -0.0004 -0.0265
  666ERGO    R3 9708   1.288  14.872   6.620 -0.0570 -0.0358  0.0308
  666ERGO    R4 9709   1.042  14.747   6.721  0.0962 -0.2512  0.1284
  666ERGO    R5 9710   1.070  14.957   6.671 -0.0875 -0.2122  0.1981
  666ERGO    C1 9711   0.970  14.989   7.038  0.1075 -0.4303  0.2724
  666ERGO    C2 9712   0.752  14.992   7.234  0.3000 -0.0821 -0.1854
  667ERGO   ROH 9713   2.227  12.713   6.512  0.0086  0.1133 -0.0222
  667ERGO    R1 9714   2.190  12.815   6.774 -0.0317  0.1221 -0.0313
  667ERGO    R2 9715   2.393  12.939   6.915 -0.0218  0.0275  0.0392
  667ERGO    R3 9716   2.211  13.141   6.936  0.0610  0.1084 -0.0155
  667ERGO    R4 9717   2.392  13.179   7.164 -0.1160 -0.0995  0.1628
  667ERGO    R5 9718   2.174  13.163   7.172 -0.1321  0.0052 -0.0342
  667ERGO    C1 9719   2.221  13.508   7.328 -0.0931 -0.0974  0.1834
  667ERGO    C2 9720   2.317  13.681   7.632  0.0851 -0.3133 -0.0407
  668ERGO   ROH 9721   8.404   6.109   6.408 -0.1092  0.2041 -0.1253
  668ERGO    R1 9722   8.428   5.968   6.652 -0.1470  0.1227 -0.1683
  668ERGO    R2 9723   8.529   6.084   6.881 -0.0184 -0.0044 -0.1596
  668ERGO    R3 9724   8.295   5.999   6.989 -0.0515  0.1212 -0.1299
  668ERGO    R4 9725   8.449   6.099   7.217  0.1206 -0.1575 -0.1183
  668ERGO    R5 9726   8.357   5.902   7.199 -0.0521 -0.0709 -0.2158
  668ERGO    C1 9727   8.182   6.027   7.514  0.1705 -0.1287 -0.0664
  668ERGO    C2 9728   7.841   6.303   7.659  0.2385  0.3731  0.2347
  669ERGO   ROH 9729  16.947   4.143   6.199  0.1773 -0.2334 -0.0546
  669ERGO    R1 9730  16.859   4.116   6.467  0.3668  0.0195  0.0356
  669ERGO    R2 9731  16.672   3.928   6.544  0.1002  0.3720  0.2691
  669ERGO    R3 9732  16.866   3.857   6.722  0.1393  0.0972  0.1244
  669ERGO    R4 9733  16.626   3.717   6.814  0.0257  0.3487  0.2392
  669ERGO    R5 9734  16.753   3.849   6.933  0.2604  0.1727  0.1973
  669ERGO    C1 9735  16.780   3.528   7.138  0.0189  0.0771  0.0859
  669ERGO    C2 9736  16.742   3.416   7.379  0.1881  0.0023  0.0107
  670ERGO   ROH 9737   8.583  17.649   6.011 -0.1251  0.2094 -0.0283
  670ERGO    R1 9738   8.628  17.695   6.286 -0.0909  0.0607 -0.0082
  670ERGO    R2 9739   8.665  17.949   6.391  0.0246 -0.0046  0.1089
  670ERGO    R3 9740   8.461  17.875   6.555  0.0011  0.0083  0.0858
  670ERGO    R4 9741   8.548  18.135   6.658  0.0873 -0.0466  0.1659
  670ERGO    R5 9742   8.528  17.950   6.772  0.0288 -0.0786  0.1099
  670ERGO    C1 9743   8.289  18.174   6.967  0.1018 -0.0592  0.1773
  670ERGO    C2 9744   8.162  18.410   7.099  0.1547 -0.2316 -0.1849
  671ERGO   ROH 9745  18.648   6.894   6.538 -0.2708  0.0406 -0.0263
  671ERGO    R1 9746  18.848   6.917   6.737 -0.1263  0.0118 -0.1654
  671ERGO    R2 9747  19.033   7.123   6.740 -0.2844  0.1535 -0.1307
  671ERGO    R3 9748  18.939   7.160   6.993 -0.1099 -0.1486 -0.0164
  671ERGO    R4 9749  19.201   7.291   6.991 -0.2329  0.1113 -0.1368
  671ERGO    R5 9750  19.133   7.139   7.132  0.0336 -0.0772 -0.1992
  671ERGO    C1 9751  19.212   7.424   7.374 -0.0391 -0.1969 -0.0329
  671ERGO    C2 9752  19.372   7.614   7.514 -0.4553  0.0095  0.0314
  672ERGO   ROH 9753   5.854   0.391   6.006  0.0204 -0.0260  0.0219
  672ERGO    R1 9754   5.839   0.436   6.285 -0.0043  0.1622 -0.0087
  672ERGO    R2 9755   5.634   0.580   6.401 -0.2323 -0.0916 -0.0847
  672ERGO    R3 9756   5.606   0.357   6.554  0.1740 -0.0300  0.0919
  672ERGO    R4 9757   5.514   0.577   6.725 -0.1724 -0.0475 -0.0624
  672ERGO    R5 9758   5.667   0.429   6.774  0.0935  0.2442  0.0287
  672ERGO    C1 9759   5.419   0.366   7.058  0.2438  0.0361  0.1164
  672ERGO    C2 9760   5.168   0.441   7.336 -0.0458  0.2985 -0.2061
  673ERGO   ROH 9761   5.800   0.021   6.264  0.1772  0.2041  0.0605
  673ERGO    R1 9762   5.818  -0.086   6.525  0.3343  0.2128  0.0543
  673ERGO    R2 9763   5.943   0.048   6.732  0.0714  0.4229  0.0846
  673ERGO    R3 9764   5.705   0.007   6.858  0.1185 -0.0130  0.0461
  673ERGO    R4 9765   5.905  -0.005   7.072  0.1158  0.2254  0.0595
  673ERGO    R5 9766   5.754  -0.155   7.026  0.3621 -0.0035 -0.0143
  673ERGO    C1 9767   5.659  -0.074   7.387  0.1857 -0.2986  0.0088
  673ERGO    C2 9768   5.608   0.226   7.500  0.4118  0.3185  0.3470
  674ERGO   ROH 9769   1.863  16.996   9.271  0.2153  0.0475  0.1312
  674ERGO    R1 9770   2.070  17.037   9.082  0.0637  0.1189 -0.0216
  674ERGO    R2 9771   2.252  16.839   9.016  0.1931  0.2395 -0.0167
  674ERGO    R3 9772   2.169  16.892   8.763 -0.0090  0.0196 -0.0004
  674ERGO    R4 9773   2.387  16.698   8.731  0.1125  0.1512 -0.0122
  674ERGO    R5 9774   2.371  16.892   8.633 -0.0881  0.0811 -0.1291
  674ERGO    C1 9775   2.388  16.665   8.327 -0.1241 -0.1067  0.0056
  674ERGO    C2 9776   2.600  16.388   8.092  0.2787 -0.3190  0.3037
  675PSPI    C1 9777   4.420   1.941   5.150 -0.2252 -0.1141 -0.0517
  675PSPI    C2 9778   4.432   2.289   4.953  0.2221 -0.0382  0.0991
  675PSPI    C3 9779   4.558   1.954   4.775  0.1266 -0.0621  0.0760
  675PSPI   PO4 9780   4.532   2.129   5.453  0.1003  0.1163  0.0385
  675PSPI   GL1 9781   4.518   2.163   5.860 -0.1251  0.0114  0.0050
  675PSPI   GL2 9782   4.765   2.290   5.854 -0.0515  0.2069 -0.0517
  675PSPI   C1A 9783   4.216   2.031   6.196  0.3810 -0.1410 -0.0051
  675PSPI   C2A 9784   4.025   1.916   6.529  0.2083 -0.2094 -0.3244
  675PSPI   C3A 9785   3.776   1.539   6.608 -0.0876 -0.1203 -0.0910
  675PSPI   C4A 9786   3.577   1.337   7.051 -0.2424  0.1379  0.1508
  675PSPI   C1B 9787   4.748   2.280   6.258  0.1383 -0.0452  0.1552
  675PSPI   C2B 9788   4.767   2.398   6.693  0.2311 -0.1579  0.0382
  675PSPI   C3B 9789   4.911   2.323   7.121  0.0066 -0.0401 -0.0972
  675PSPI   C4B 9790   4.716   2.137   7.487 -0.1201  0.0888 -0.0162
  676PSPI    C1 9791   0.614  12.636   5.777 -0.1833  0.3769 -0.0939
  676PSPI    C2 9792   0.640  12.689   6.173  0.1282  0.0166 -0.0612
  676PSPI    C3 9793   0.943  12.800   5.936 -0.0478  0.2095 -0.1988
  676PSPI   PO4 9794   0.376  12.685   5.745 -0.1387  0.1148 -0.0208
  676PSPI   GL1 9795  -0.034  12.522   6.007 -0.1541  0.1010  0.1307
  676PSPI   GL2 9796   0.231  12.367   6.157  0.1295 -0.1408 -0.2335
  676PSPI   C1A 9797  -0.199  12.500   6.481  0.0962  0.2974  0.2500
  676PSPI   C2A 9798  -0.448  12.506   6.786  0.0150  0.0214  0.2783
  676PSPI   C3A 9799  -0.730  12.450   7.168 -0.1182  0.1832 -0.3156
  676PSPI   C4A 9800  -0.917  12.406   7.660  0.0975 -0.2289  0.3629
  676PSPI   C1B 9801   0.282  12.126   6.495 -0.1118 -0.6707 -0.2490
  676PSPI   C2B 9802   0.420  12.096   6.913 -0.2257 -0.1549  0.0549
  676PSPI   C3B 9803   0.518  11.908   7.431 -0.0653  0.1908 -0.6367
  676PSPI   C4B 9804   0.844  11.683   7.543  0.0808 -0.0016 -0.0553
  677PSPI    C1 9805   6.536   2.541   5.356 -0.0704 -0.0831  0.0644
  677PSPI    C2 9806   6.442   2.925   5.415  0.1714 -0.0481  0.2368
  677PSPI    C3 9807   6.801   2.827   5.269  0.1094 -0.2092  0.1906
  677PSPI   PO4 9808   6.528   2.427   5.631  0.1722  0.1174  0.0543
  677PSPI   GL1 9809   6.648   2.234   6.054  0.1037  0.0213  0.3557
  677PSPI   GL2 9810   6.414   2.192   6.360  0.3791 -0.0536 -0.1259
  677PSPI   C1A 9811   6.780   2.460   6.369 -0.4376 -0.0805  0.1787
  677PSPI   C2A 9812   7.200   2.439   6.566 -0.2626  0.0427  0.1714
  677PSPI   C3A 9813   7.581   2.259   6.367 -0.2649  0.1501  0.1980
  677PSPI   C4A 9814   7.895   2.005   6.253 -0.0438  0.1143  0.1688
  677PSPI   C1B 9815   6.417   2.265   6.726 -0.0183  0.1733 -0.0092
  677PSPI   C2B 9816   6.215   2.214   7.124 -0.2468  0.1588 -0.0989
  677PSPI   C3B 9817   6.089   2.066   7.518  0.0853 -0.3179 -0.1564
  677PSPI   C4B 9818   5.942   1.699   7.703  0.0119  0.0526  0.0829
  678PSPI    C1 9819   0.790   7.035   5.690 -0.1325 -0.0865 -0.1346
  678PSPI    C2 9820   0.431   7.047   5.515 -0.0380  0.3858 -0.3136
  678PSPI    C3 9821   0.762   7.090   5.295  0.1291  0.0510 -0.1368
  678PSPI   PO4 9822   0.736   6.877   5.982 -0.2118  0.4124 -0.0503
  678PSPI   GL1 9823   0.746   6.895   6.455  0.0332  0.1231  0.3470
  678PSPI   GL2 9824   0.787   6.622   6.569 -0.1157 -0.1500  0.2113
  678PSPI   C1A 9825   1.137   6.969   6.750 -0.0827 -0.0061  0.3027
  678PSPI   C2A 9826   1.174   6.780   7.196  0.1971  0.1471 -0.0928
  678PSPI   C3A 9827   1.420   6.936   7.535  0.3465  0.0799  0.0418
  678PSPI   C4A 9828   1.773   6.921   7.745  0.0560  0.2923  0.0172
  678PSPI   C1B 9829   0.695   6.724   6.981  0.2254  0.0256 -0.1917
  678PSPI   C2B 9830   0.704   6.799   7.438  0.1442  0.0144 -0.1405
  678PSPI   C3B 9831   0.671   6.583   7.837 -0.0975  0.0862  0.0944
  678PSPI   C4B 9832   0.754   6.748   8.366  0.2529 -0.2501 -0.2392
  679PSPI    C1 9833  10.052  16.278   5.318  0.2391  0.1581  0.0462
  679PSPI    C2 9834   9.860  15.965   5.159  0.0087  0.2725  0.0966
  679PSPI    C3 9835  10.197  15.908   5.366  0.1051  0.0844 -0.1084
  679PSPI   PO4 9836   9.847  16.369   5.463  0.3110 -0.1443  0.3396
  679PSPI   GL1 9837   9.870  16.545   5.814 -0.1540  0.0081  0.0902
  679PSPI   GL2 9838  10.164  16.553   5.955 -0.1275 -0.0084 -0.0243
  679PSPI   C1A 9839   9.798  16.525   6.207 -0.1871  0.2504 -0.0654
  679PSPI   C2A 9840  10.031  16.458   6.523  0.1743 -0.0426  0.2510
  679PSPI   C3A 9841  10.412  16.372   6.620  0.1058 -0.1987 -0.3633
  679PSPI   C4A 9842  10.679  16.114   6.891 -0.0523 -0.0321 -0.1822
  679PSPI   C1B 9843  10.538  16.543   6.193 -0.1070  0.1409 -0.0272
  679PSPI   C2B 9844  10.687  16.800   6.511 -0.1684 -0.0343 -0.4019
  679PSPI   C3B 9845  10.768  17.128   6.874 -0.1441  0.0096  0.3102
  679PSPI   C4B 9846  10.703  17.251   7.203  0.1649  0.1710 -0.2609
  680PSPI    C1 9847   9.050   4.906   5.346 -0.0661  0.1080  0.0811
  680PSPI    C2 9848   9.261   5.238   5.272  0.1728 -0.0418  0.0823
  680PSPI    C3 9849   9.143   5.004   4.969 -0.0541  0.0778  0.0762
  680PSPI   PO4 9850   8.928   5.002   5.610  0.5247  0.3039  0.1214
  680PSPI   GL1 9851   8.834   5.346   5.773 -0.3053 -0.0223  0.0911
  680PSPI   GL2 9852   8.859   5.526   5.999  0.0890 -0.2490  0.2421
  680PSPI   C1A 9853   8.457   5.119   6.064 -0.1021  0.0405 -0.3117
  680PSPI   C2A 9854   8.390   4.768   6.284  0.0044  0.4387 -0.2001
  680PSPI   C3A 9855   8.518   4.376   6.358  0.1829 -0.0994 -0.0580
  680PSPI   C4A 9856   8.694   4.157   6.750  0.0042  0.0316 -0.0237
  680PSPI   C1B 9857   8.975   5.225   6.423  0.1311  0.0158  0.1880
  680PSPI   C2B 9858   8.947   5.135   6.886  0.1376 -0.2399  0.1764
  680PSPI   C3B 9859   9.285   5.111   7.284 -0.0773  0.2584  0.1546
  680PSPI   C4B 9860   9.317   5.092   7.721 -0.2342 -0.1110  0.1866
  681PSPI    C1 9861   4.320   0.822   5.141 -0.0905  0.1228 -0.0451
  681PSPI    C2 9862   4.132   0.479   5.227 -0.0111  0.0604 -0.1187
  681PSPI    C3 9863   4.062   0.664   4.879  0.1981 -0.0585 -0.2260
  681PSPI   PO4 9864   4.352   1.051   5.221  0.1446  0.0253 -0.1694
  681PSPI   GL1 9865   4.252   1.145   5.620 -0.0100  0.0789 -0.1519
  681PSPI   GL2 9866   4.316   0.809   5.742 -0.3643  0.1374  0.0655
  681PSPI   C1A 9867   4.765   1.241   5.838  0.1346  0.1686 -0.0946
  681PSPI   C2A 9868   4.878   1.257   6.293  0.3002 -0.0156 -0.2557
  681PSPI   C3A 9869   4.938   1.367   6.737 -0.1237 -0.1380  0.1504
  681PSPI   C4A 9870   4.843   1.223   7.131 -0.5556  0.1839  0.0486
  681PSPI   C1B 9871   4.309   1.164   6.078  0.0631  0.0630  0.1424
  681PSPI   C2B 9872   4.384   1.280   6.492 -0.2293  0.3010 -0.1060
  681PSPI   C3B 9873   4.394   1.399   6.944  0.1436  0.0133 -0.0133
  681PSPI   C4B 9874   4.536   1.607   7.289  0.0174 -0.0479 -0.0412
  682PSPI    C1 9875   3.196   9.526   5.779  0.0709  0.0069  0.0154
  682PSPI    C2 9876   3.305   9.302   5.466 -0.1764 -0.1215  0.0189
  682PSPI    C3 9877   3.468   9.663   5.520  0.0582 -0.2060 -0.1129
  682PSPI   PO4 9878   3.235   9.467   6.073  0.0230  0.1978 -0.1500
  682PSPI   GL1 9879   3.099   9.330   6.411  0.1371 -0.3051  0.2193
  682PSPI   GL2 9880   2.781   9.111   6.227  0.1613 -0.1743 -0.2371
  682PSPI   C1A 9881   3.112   9.184   6.828 -0.0995 -0.0685 -0.1166
  682PSPI   C2A 9882   3.201   9.096   7.184 -0.2653  0.0539 -0.0158
  682PSPI   C3A 9883   3.279   9.068   7.569 -0.0346 -0.3289 -0.2082
  682PSPI   C4A 9884   3.145   8.761   8.002  0.1023 -0.3232  0.1417
  682PSPI   C1B 9885   2.819   8.839   6.614 -0.0399  0.0439 -0.3354
  682PSPI   C2B 9886   2.812   8.857   7.106  0.1029  0.0929  0.0958
  682PSPI   C3B 9887   2.943   8.598   7.385  0.1123 -0.1990  0.0069
  682PSPI   C4B 9888   2.870   8.416   7.771 -0.0475 -0.0485 -0.1026
  683PSPI    C1 9889   1.026   1.899   5.241 -0.1012  0.0058 -0.0220
  683PSPI    C2 9890   1.275   1.826   4.937 -0.2943  0.1106 -0.2080
  683PSPI    C3 9891   0.955   1.592   4.994 -0.2616  0.0946 -0.0877
  683PSPI   PO4 9892   1.143   1.938   5.423 -0.1925  0.1180  0.2068
  683PSPI   GL1 9893   1.322   2.035   5.800 -0.6296  0.0227 -0.2052
  683PSPI   GL2 9894   1.123   1.935   6.016  0.1754 -0.1344 -0.0052
  683PSPI   C1A 9895   1.573   2.157   6.157  0.0532  0.0260  0.1092
  683PSPI   C2A 9896   1.659   2.007   6.615 -0.0396  0.5417  0.1481
  683PSPI   C3A 9897   1.685   2.030   7.033 -0.2682  0.1540  0.3193
  683PSPI   C4A 9898   1.775   1.958   7.405  0.2912 -0.0353  0.1402
  683PSPI   C1B 9899   0.918   2.052   6.452 -0.1658  0.0764  0.0231
  683PSPI   C2B 9900   0.668   2.172   6.828 -0.1416  0.0476  0.1877
  683PSPI   C3B 9901   0.619   2.238   7.159  0.0569  0.1174  0.0403
  683PSPI   C4B 9902   0.682   2.036   7.566  0.2498  0.1078 -0.0862
  684PSPI    C1 9903   1.679   8.975   5.547 -0.1040  0.0496  0.1677
  684PSPI    C2 9904   1.721   9.360   5.446  0.3254 -0.0304  0.0196
  684PSPI    C3 9905   2.038   9.150   5.569  0.1261 -0.3797 -0.0469
  684PSPI   PO4 9906   1.393   8.985   5.753 -0.0743 -0.0416 -0.0061
  684PSPI   GL1 9907   1.277   9.149   6.124  0.2620 -0.0479  0.0459
  684PSPI   GL2 9908   1.446   8.935   6.305 -0.0451 -0.1524 -0.1388
  684PSPI   C1A 9909   1.322   9.439   6.469 -0.1728  0.1281  0.0381
  684PSPI   C2A 9910   1.214   9.656   6.847 -0.0360 -0.1283 -0.1725
  684PSPI   C3A 9911   0.970   9.533   7.204  0.0421  0.0879  0.0586
  684PSPI   C4A 9912   0.860   9.611   7.614  0.0619 -0.1528 -0.0819
  684PSPI   C1B 9913   1.568   8.729   6.743 -0.0367  0.0969  0.2573
  684PSPI   C2B 9914   1.356   8.727   7.221  0.1399 -0.2285  0.1490
  684PSPI   C3B 9915   0.952   8.655   7.480 -0.3185 -0.0599 -0.0410
  684PSPI   C4B 9916   0.527   8.600   7.676  0.0961 -0.1979  0.0958
  685PSPI    C1 9917  16.787   6.435   5.406  0.1850 -0.0984 -0.3843
  685PSPI    C2 9918  16.932   6.099   5.244 -0.0057 -0.2419 -0.2623
  685PSPI    C3 9919  16.877   6.423   5.017 -0.0553 -0.3702 -0.4353
  685PSPI   PO4 9920  16.840   6.446   5.667  0.0394  0.1208 -0.0321
  685PSPI   GL1 9921  17.200   6.605   5.747  0.2455 -0.2221  0.0891
  685PSPI   GL2 9922  17.482   6.566   5.799 -0.0705  0.3983  0.1048
  685PSPI   C1A 9923  17.376   6.795   6.268  0.1347 -0.1417 -0.1985
  685PSPI   C2A 9924  17.727   6.906   6.423 -0.1212  0.0870  0.1113
  685PSPI   C3A 9925  18.131   6.902   6.626  0.1822 -0.2127  0.3611
  685PSPI   C4A 9926  18.426   6.903   6.997  0.2157 -0.2279  0.0682
  685PSPI   C1B 9927  17.627   6.312   6.141 -0.2324  0.1559 -0.0069
  685PSPI   C2B 9928  17.903   6.382   6.503  0.0546 -0.4722  0.1223
  685PSPI   C3B 9929  17.885   6.344   6.998  0.0474  0.1462 -0.1666
  685PSPI   C4B 9930  17.531   6.495   7.345  0.0353 -0.0438 -0.1177
  686PSPI    C1 9931  10.079  10.742   5.548  0.1906 -0.1460  0.2492
  686PSPI    C2 9932   9.883  10.416   5.672  0.0910 -0.1597  0.0599
  686PSPI    C3 9933   9.806  10.570   5.311  0.3497 -0.0990  0.0291
  686PSPI   PO4 9934   9.951  10.931   5.775 -0.3105  0.1512 -0.2546
  686PSPI   GL1 9935  10.240  10.755   6.058  0.0363  0.2135 -0.0008
  686PSPI   GL2 9936  10.266  10.482   6.039  0.1004 -0.1107 -0.1139
  686PSPI   C1A 9937  10.103  10.902   6.444  0.3016 -0.1422 -0.1453
  686PSPI   C2A 9938   9.939  10.828   6.840 -0.1794  0.1668  0.2621
  686PSPI   C3A 9939   9.658  10.957   6.989 -0.0124  0.2935  0.3749
  686PSPI   C4A 9940   9.267  10.998   7.143 -0.0774 -0.2481  0.0815
  686PSPI   C1B 9941  10.272  10.396   6.576  0.1778 -0.0458  0.0353
  686PSPI   C2B 9942  10.164  10.159   6.850 -0.0881 -0.1869 -0.0257
  686PSPI   C3B 9943   9.961   9.862   7.083  0.0060 -0.1832 -0.1104
  686PSPI   C4B 9944   9.505   9.705   7.212 -0.1639  0.0506 -0.0789
  687PSPI    C1 9945   7.300  17.430   5.434 -0.0896 -0.2794 -0.0732
  687PSPI    C2 9946   7.640  17.515   5.242 -0.1731 -0.1023 -0.1437
  687PSPI    C3 9947   7.381  17.255   5.084  0.0033 -0.3627 -0.0110
  687PSPI   PO4 9948   7.474  17.372   5.723  0.0205  0.2122 -0.1165
  687PSPI   GL1 9949   7.574  17.438   6.159  0.0614 -0.0809  0.2908
  687PSPI   GL2 9950   7.807  17.376   6.419  0.0022 -0.3523  0.2594
  687PSPI   C1A 9951   7.351  17.316   6.549 -0.2008 -0.2508 -0.0534
  687PSPI   C2A 9952   7.167  17.068   6.910 -0.0004  0.0384 -0.2765
  687PSPI   C3A 9953   7.238  16.698   7.156  0.2308 -0.1802 -0.0755
  687PSPI   C4A 9954   7.055  16.290   7.279  0.0905  0.0676  0.2080
  687PSPI   C1B 9955   7.811  17.189   6.788  0.1067  0.1313 -0.0970
  687PSPI   C2B 9956   7.593  17.130   7.165  0.2154  0.0656 -0.0266
  687PSPI   C3B 9957   7.726  16.801   7.452  0.0252 -0.1363 -0.3260
  687PSPI   C4B 9958   7.627  16.514   7.691 -0.2118 -0.1351  0.1423
  688PSPI    C1 9959  12.638   1.477   5.347 -0.2014 -0.2331 -0.0251
  688PSPI    C2 9960  12.981   1.538   5.150 -0.2052  0.0416  0.0491
  688PSPI    C3 9961  12.633   1.646   4.984 -0.2436 -0.0977  0.0377
  688PSPI   PO4 9962  12.664   1.207   5.471  0.4179  0.1244 -0.0007
  688PSPI   GL1 9963  12.433   0.941   5.743 -0.0816  0.0516  0.2835
  688PSPI   GL2 9964  12.271   0.737   5.672  0.0853  0.0834 -0.3847
  688PSPI   C1A 9965  12.438   0.724   6.171 -0.1422  0.2413  0.1155
  688PSPI   C2A 9966  12.596   0.541   6.590 -0.1759 -0.0462 -0.0048
  688PSPI   C3A 9967  12.729   0.471   6.980 -0.0020 -0.0452 -0.0395
  688PSPI   C4A 9968  12.897   0.138   7.274 -0.2430  0.2988 -0.2447
  688PSPI   C1B 9969  12.290   0.389   5.475  0.0540  0.1847  0.2054
  688PSPI   C2B 9970  12.443   0.081   5.581 -0.1116 -0.1203 -0.0088
  688PSPI   C3B 9971  12.691  -0.236   5.611  0.0022  0.0442 -0.1946
  688PSPI   C4B 9972  12.691  -0.620   5.450  0.0816 -0.1045 -0.0186
  689PSPI    C1 9973  13.990   1.122   4.918  0.0511  0.1902 -0.0885
  689PSPI    C2 9974  13.646   1.149   5.120  0.1404  0.1967  0.0642
  689PSPI    C3 9975  13.650   1.202   4.724 -0.0599  0.0336  0.0391
  689PSPI   PO4 9976  14.084   0.919   5.152 -0.2846 -0.3352 -0.1533
  689PSPI   GL1 9977  14.162   0.802   5.616  0.0301  0.1245 -0.4534
  689PSPI   GL2 9978  14.006   0.611   5.493 -0.3464  0.3052  0.1264
  689PSPI   C1A 9979  14.091   0.688   5.979  0.0246  0.3162  0.0633
  689PSPI   C2A 9980  14.049   0.725   6.481  0.3583  0.1877  0.2009
  689PSPI   C3A 9981  13.866   0.578   6.850 -0.2789 -0.1798 -0.0232
  689PSPI   C4A 9982  13.664   0.729   7.211  0.0548  0.1046  0.2406
  689PSPI   C1B 9983  13.749   0.443   5.805  0.0541 -0.0969  0.2180
  689PSPI   C2B 9984  13.396   0.338   6.082 -0.2261 -0.0734 -0.0888
  689PSPI   C3B 9985  13.477   0.516   6.474  0.3650 -0.2058 -0.1134
  689PSPI   C4B 9986  13.557   0.941   6.551  0.0120  0.1972  0.1940
  690PSPI    C1 9987   6.481  15.039   5.379  0.0825  0.0865 -0.0266
  690PSPI    C2 9988   6.417  14.681   5.213  0.0520  0.1573 -0.1688
  690PSPI    C3 9989   6.253  15.008   5.051 -0.2336  0.1915  0.1778
  690PSPI   PO4 9990   6.392  14.963   5.695 -0.2967  0.1547  0.4301
  690PSPI   GL1 9991   6.562  15.013   6.027  0.0931  0.3176  0.0518
  690PSPI   GL2 9992   6.567  14.673   6.019  0.2680 -0.1111 -0.0782
  690PSPI   C1A 9993   6.423  14.893   6.500 -0.1265  0.2169  0.1504
  690PSPI   C2A 9994   6.566  15.085   6.887 -0.0752  0.0925  0.1481
  690PSPI   C3A 9995   7.028  15.109   6.918  0.2275 -0.2545  0.1756
  690PSPI   C4A 9996   7.244  15.384   7.096  0.1887 -0.0042 -0.1199
  690PSPI   C1B 9997   6.242  14.436   6.322  0.0750  0.1307  0.1499
  690PSPI   C2B 9998   6.107  14.131   6.608 -0.1947 -0.2531  0.5819
  690PSPI   C3B 9999   5.914  14.025   6.938  0.4795  0.1277  0.0568
  690PSPI   C4B10000   5.685  14.385   6.954  0.1794 -0.0375  0.1458
  691PSPI    C110001  10.955  13.716   5.511 -0.0053 -0.1367 -0.1024
  691PSPI    C210002  10.833  13.862   5.159  0.0736 -0.0599 -0.0982
  691PSPI    C310003  10.567  13.794   5.450  0.0736  0.3800  0.0107
  691PSPI   PO410004  11.326  13.642   5.486  0.0943 -0.0860  0.3535
  691PSPI   GL110005  11.663  13.903   5.642  0.0281 -0.0758  0.4057
  691PSPI   GL210006  11.448  14.091   5.689  0.0008 -0.1979 -0.0422
  691PSPI   C1A10007  11.878  13.988   5.946  0.0398  0.0768  0.0958
  691PSPI   C2A10008  12.031  14.033   6.400  0.2071  0.1466 -0.0192
  691PSPI   C3A10009  12.147  14.110   6.847  0.1781  0.0290  0.1731
  691PSPI   C4A10010  11.908  13.990   7.259 -0.1326 -0.1691 -0.0065
  691PSPI   C1B10011  11.421  14.173   6.091 -0.3166  0.3340  0.4052
  691PSPI   C2B10012  11.634  14.383   6.518 -0.1593 -0.2109 -0.3167
  691PSPI   C3B10013  11.789  14.497   6.873 -0.0869  0.2396 -0.0577
  691PSPI   C4B10014  12.000  14.495   7.306  0.1128  0.3613  0.1685
  692PSPI    C110015   9.863   8.203   5.451 -0.0782 -0.0255  0.0829
  692PSPI    C210016  10.074   8.345   5.759 -0.0677  0.1773 -0.0156
  692PSPI    C310017  10.260   8.155   5.460 -0.0684  0.0496  0.0644
  692PSPI   PO410018   9.613   8.019   5.495 -0.1240 -0.0410 -0.0146
  692PSPI   GL110019   9.382   7.768   5.829  0.0681  0.0864 -0.1772
  692PSPI   GL210020   9.717   7.745   5.910 -0.4435  0.1014 -0.2231
  692PSPI   C1A10021   9.202   8.039   6.166 -0.1949  0.0312  0.1946
  692PSPI   C2A10022   9.115   8.083   6.609 -0.0977 -0.0356  0.1210
  692PSPI   C3A10023   9.123   8.139   7.048  0.0879 -0.1957  0.0009
  692PSPI   C4A10024   9.162   8.270   7.426 -0.1252  0.0432 -0.2574
  692PSPI   C1B10025   9.659   7.828   6.392 -0.1941 -0.0542 -0.1745
  692PSPI   C2B10026   9.707   7.881   6.741  0.3512  0.1530 -0.1634
  692PSPI   C3B10027   9.523   7.748   6.984  0.2794 -0.1432  0.1508
  692PSPI   C4B10028   9.525   7.566   7.411 -0.0698 -0.1185  0.0779
  693PSPI    C110029  18.203   3.932   5.306 -0.0630 -0.1414  0.0567
  693PSPI    C210030  18.039   4.288   5.226  0.1016 -0.0182  0.2570
  693PSPI    C310031  18.375   4.176   5.040 -0.1067 -0.1944 -0.0205
  693PSPI   PO410032  18.150   3.940   5.589 -0.1868 -0.1421  0.0082
  693PSPI   GL110033  17.936   3.675   5.894 -0.0218 -0.0414  0.2675
  693PSPI   GL210034  17.695   3.886   5.914 -0.0394  0.2702  0.2603
  693PSPI   C1A10035  17.986   3.820   6.287  0.0745 -0.2098  0.1985
  693PSPI   C2A10036  18.113   3.810   6.693 -0.2587  0.3909  0.1145
  693PSPI   C3A10037  18.160   3.902   7.114 -0.1480  0.2642 -0.3055
  693PSPI   C4A10038  17.985   4.103   7.404  0.1325 -0.2569 -0.3800
  693PSPI   C1B10039  17.431   3.899   6.177  0.1040 -0.0064  0.1733
  693PSPI   C2B10040  17.200   3.696   6.401 -0.0738  0.0227 -0.0339
  693PSPI   C3B10041  17.171   3.393   6.653  0.0362 -0.3339 -0.3325
  693PSPI   C4B10042  17.189   3.225   6.983  0.1795 -0.0349 -0.0661
  694PSPI    C110043   8.571  14.029   5.188 -0.1190 -0.1169 -0.0033
  694PSPI    C210044   8.598  14.313   4.907 -0.2526 -0.1802 -0.0811
  694PSPI    C310045   8.840  13.995   4.894  0.0702  0.0498  0.1475
  694PSPI   PO410046   8.450  14.190   5.444 -0.1345 -0.0375 -0.1725
  694PSPI   GL110047   8.465  14.102   5.915  0.1375 -0.0271 -0.1118
  694PSPI   GL210048   8.195  14.329   6.113  0.0301 -0.1300 -0.2837
  694PSPI   C1A10049   8.731  14.154   6.362  0.0528  0.0076  0.2435
  694PSPI   C2A10050   8.812  14.370   6.717  0.2278  0.1787  0.3939
  694PSPI   C3A10051   9.017  14.585   7.130 -0.3007 -0.2422 -0.0786
  694PSPI   C4A10052   8.949  14.851   7.473  0.1549 -0.3972 -0.3332
  694PSPI   C1B10053   8.347  14.537   6.469 -0.1438 -0.3084 -0.0166
  694PSPI   C2B10054   8.501  14.725   6.781  0.4043  0.0879 -0.2217
  694PSPI   C3B10055   8.334  14.935   7.158  0.2780  0.0720  0.2502
  694PSPI   C4B10056   8.446  15.019   7.469 -0.2835  0.1242 -0.1963
  695POPI    C110057  10.843   1.449   5.318 -0.2095 -0.0222  0.1626
  695POPI    C210058  10.481   1.280   5.308 -0.1695 -0.1089  0.1660
  695POPI    C310059  10.588   1.540   5.023 -0.1586 -0.2405  0.0487
  695POPI   PO410060  10.966   1.252   5.500 -0.1163  0.0943 -0.0947
  695POPI   GL110061  10.917   1.012   5.832  0.2684 -0.1615 -0.0003
  695POPI   GL210062  10.961   0.642   5.835 -0.1941  0.2709  0.1314
  695POPI   C1A10063  10.928   1.033   6.254  0.5132 -0.0225 -0.0574
  695POPI   D2A10064  10.872   1.075   6.667 -0.0675 -0.3312  0.1360
  695POPI   C3A10065  11.035   0.731   6.883 -0.0393  0.0408 -0.0442
  695POPI   C4A10066  10.959   0.811   7.296  0.1781 -0.1584 -0.1250
  695POPI   C1B10067  10.502   0.735   6.131  0.2393  0.1926 -0.0825
  695POPI   C2B10068  10.445   0.750   6.500  0.0021  0.0192 -0.3067
  695POPI   C3B10069  10.449   0.756   6.923  0.0235  0.0409 -0.0137
  695POPI   C4B10070  10.541   0.575   7.359 -0.2044 -0.2343  0.1902
  696POPI    C110071   2.550   7.191   6.041 -0.1520 -0.0689 -0.1197
  696POPI    C210072   2.555   7.427   5.717  0.0606  0.0815 -0.0089
  696POPI    C310073   2.555   7.029   5.675  0.0539  0.1003 -0.1941
  696POPI   PO410074   2.390   7.317   6.245  0.1399  0.0645 -0.0551
  696POPI   GL110075   2.518   7.494   6.566 -0.2072  0.1786  0.1389
  696POPI   GL210076   2.824   7.495   6.664  0.0827  0.1159  0.3489
  696POPI   C1A10077   2.595   7.607   7.118  0.2157  0.1726  0.2316
  696POPI   D2A10078   2.980   7.449   7.400 -0.2138  0.2162  0.0425
  696POPI   C3A10079   3.145   7.654   7.665  0.1675 -0.3841 -0.0246
  696POPI   C4A10080   3.360   7.716   8.024  0.2769 -0.0208  0.0786
  696POPI   C1B10081   3.167   7.366   6.989  0.0998  0.4246 -0.1717
  696POPI   C2B10082   3.470   7.359   7.280  0.0974  0.1049 -0.0126
  696POPI   C3B10083   3.657   7.497   7.661  0.1376 -0.2129  0.0735
  696POPI   C4B10084   4.043   7.652   7.913  0.1615  0.3557  0.1133
  697POPI    C110085  13.171  15.592   4.931  0.2979 -0.1786 -0.0475
  697POPI    C210086  13.304  15.957   4.836  0.2550 -0.0573  0.3444
  697POPI    C310087  13.220  15.694   4.547 -0.0477  0.3594  0.0408
  697POPI   PO410088  12.957  15.634   5.129 -0.0429  0.0760  0.0023
  697POPI   GL110089  13.017  15.499   5.577 -0.0233  0.3068 -0.2643
  697POPI   GL210090  13.378  15.497   5.755 -0.0203 -0.0639  0.0995
  697POPI   C1A10091  13.026  15.832   5.978  0.0241 -0.0354 -0.1646
  697POPI   D2A10092  13.018  16.143   6.357  0.0956 -0.0625 -0.1551
  697POPI   C3A10093  12.612  16.317   6.433 -0.2403  0.0127  0.0089
  697POPI   C4A10094  12.567  16.753   6.458  0.2519  0.3337 -0.0815
  697POPI   C1B10095  13.339  15.450   6.184  0.1567  0.0115  0.3720
  697POPI   C2B10096  13.415  15.451   6.554  0.0296  0.0268 -0.0232
  697POPI   C3B10097  13.310  15.244   6.961 -0.0255 -0.0104  0.0049
  697POPI   C4B10098  13.327  15.003   7.271 -0.1600  0.2649  0.0350
  698POPI    C110099   5.691  18.492   5.257 -0.0903 -0.1916  0.0807
  698POPI    C210100   5.733  18.876   5.361 -0.0292 -0.0466 -0.4487
  698POPI    C310101   6.052  18.664   5.244 -0.0777 -0.2359 -0.2448
  698POPI   PO410102   5.509  18.402   5.304 -0.1516 -0.0249  0.0056
  698POPI   GL110103   5.486  18.299   5.743  0.1028 -0.1617 -0.3578
  698POPI   GL210104   5.573  18.287   5.996  0.0421 -0.1527  0.1543
  698POPI   C1A10105   5.078  18.344   6.036  0.0183  0.0023 -0.0285
  698POPI   D2A10106   4.896  18.460   6.331 -0.2956  0.0615 -0.3851
  698POPI   C3A10107   4.840  18.437   6.799 -0.0961 -0.2481  0.0672
  698POPI   C4A10108   4.898  18.263   7.226 -0.0329  0.0940  0.1392
  698POPI   C1B10109   5.321  18.209   6.461 -0.2284 -0.1353 -0.4232
  698POPI   C2B10110   5.381  18.159   6.909  0.3129 -0.0215 -0.1692
  698POPI   C3B10111   5.522  18.124   7.273  0.0162  0.1583 -0.3486
  698POPI   C4B10112   5.553  17.874   7.688 -0.0551  0.0177 -0.3338
  699POPI    C110113   1.632   4.444   5.514 -0.0615  0.0449 -0.3550
  699POPI    C210114   1.970   4.235   5.471 -0.0342 -0.0321  0.1628
  699POPI    C310115   1.624   4.088   5.331  0.0774 -0.1476  0.0036
  699POPI   PO410116   1.735   4.477   5.835  0.2805 -0.0098 -0.0858
  699POPI   GL110117   1.935   4.282   6.163  0.3569 -0.1828 -0.3927
  699POPI   GL210118   1.645   4.151   6.250 -0.2386  0.0230  0.2345
  699POPI   C1A10119   2.258   4.576   6.459  0.2104  0.2757  0.2484
  699POPI   D2A10120   2.157   4.682   6.885 -0.0011  0.0995 -0.1181
  699POPI   C3A10121   2.406   4.571   7.286  0.0006 -0.2511  0.4343
  699POPI   C4A10122   2.690   4.495   7.609  0.2081  0.1003  0.0370
  699POPI   C1B10123   1.499   3.859   6.517 -0.1278 -0.0984 -0.2449
  699POPI   C2B10124   1.679   3.531   6.720  0.0369  0.1755  0.2027
  699POPI   C3B10125   1.659   3.379   7.140 -0.0335 -0.1276  0.0123
  699POPI   C4B10126   1.692   3.478   7.608  0.1208  0.0346 -0.3189
  700POPI    C110127  12.969  13.994   5.292 -0.1274 -0.0463  0.1338
  700POPI    C210128  12.795  14.143   4.964  0.0221 -0.0126  0.0691
  700POPI    C310129  13.190  14.179   5.016  0.0087 -0.0753  0.2223
  700POPI   PO410130  12.773  13.976   5.484  0.2284 -0.0806 -0.0114
  700POPI   GL110131  12.841  14.209   5.806  0.0986  0.0064  0.2876
  700POPI   GL210132  12.871  14.014   6.066  0.1123 -0.0843 -0.0230
  700POPI   C1A10133  12.946  14.514   6.137  0.1833 -0.1660  0.2017
  700POPI   D2A10134  13.100  14.939   6.257  0.1187 -0.1394 -0.1313
  700POPI   C3A10135  13.415  14.936   6.523  0.0476  0.0698  0.3028
  700POPI   C4A10136  13.532  14.763   6.838  0.2172  0.0435 -0.0874
  700POPI   C1B10137  13.076  13.832   6.444 -0.2896 -0.0049 -0.0291
  700POPI   C2B10138  13.507  13.825   6.546  0.0033  0.0468 -0.0998
  700POPI   C3B10139  13.756  13.747   6.964 -0.0844  0.1432 -0.0483
  700POPI   C4B10140  13.736  13.528   7.215 -0.4306  0.0498  0.2100
  701POPI    C110141  13.535   4.311   5.400  0.0511  0.1921 -0.2776
  701POPI    C210142  13.446   4.156   5.042 -0.1107 -0.1856 -0.0800
  701POPI    C310143  13.173   4.153   5.335  0.0861 -0.0614  0.1077
  701POPI   PO410144  13.581   4.581   5.481 -0.0096  0.1953  0.0091
  701POPI   GL110145  13.740   4.539   5.893  0.0469  0.1729 -0.0111
  701POPI   GL210146  13.504   4.648   6.227 -0.3467 -0.0289 -0.0625
  701POPI   C1A10147  14.188   4.476   5.933 -0.0855  0.2278 -0.0830
  701POPI   D2A10148  14.418   4.130   6.180 -0.1569  0.0116 -0.0126
  701POPI   C3A10149  14.373   3.992   6.542 -0.1068  0.1540 -0.2017
  701POPI   C4A10150  14.527   3.816   6.865  0.4225  0.2848  0.3409
  701POPI   C1B10151  13.080   4.881   6.277  0.1658  0.0601 -0.0802
  701POPI   C2B10152  12.866   5.190   6.470  0.1671 -0.0212 -0.1898
  701POPI   C3B10153  12.726   5.423   6.925 -0.0150 -0.2306  0.0622
  701POPI   C4B10154  12.574   5.754   7.117  0.1691 -0.1434  0.0192
  702POPI    C110155  10.800  15.182   5.065 -0.0318 -0.2087 -0.0242
  702POPI    C210156  10.911  15.240   4.685  0.1716  0.0195  0.0674
  702POPI    C310157  11.086  14.954   4.903  0.2393  0.0600  0.0664
  702POPI   PO410158  10.913  15.467   5.223  0.0318  0.0249 -0.0152
  702POPI   GL110159  10.984  15.494   5.786  0.1632 -0.0050 -0.1385
  702POPI   GL210160  11.132  15.274   5.905 -0.0393  0.0419  0.0263
  702POPI   C1A10161  10.995  15.665   6.210 -0.1115  0.2874  0.2551
  702POPI   D2A10162  11.055  15.779   6.609 -0.2207 -0.1893 -0.3551
  702POPI   C3A10163  10.836  15.650   6.915  0.0071  0.0736 -0.0632
  702POPI   C4A10164  11.009  15.530   7.221 -0.1460  0.1878  0.1447
  702POPI   C1B10165  11.209  15.199   6.334 -0.1416 -0.0328  0.1884
  702POPI   C2B10166  11.065  15.185   6.702  0.0659 -0.0259  0.1803
  702POPI   C3B10167  11.262  15.063   7.067 -0.1041  0.0096 -0.0283
  702POPI   C4B10168  11.590  14.814   7.268  0.0283  0.1984  0.2568
  703POPI    C110169  16.326   7.946   5.649 -0.0410 -0.0286  0.1560
  703POPI    C210170  16.313   8.200   5.341 -0.0082 -0.0881  0.1054
  703POPI    C310171  16.031   8.214   5.624 -0.0872 -0.0910  0.0272
  703POPI   PO410172  16.584   7.930   5.681 -0.2497 -0.1607 -0.3434
  703POPI   GL110173  16.809   8.150   5.996 -0.4805  0.3429  0.0106
  703POPI   GL210174  16.931   7.831   6.043  0.2143 -0.3714  0.0412
  703POPI   C1A10175  16.712   8.190   6.347 -0.0104  0.4532 -0.2297
  703POPI   D2A10176  16.568   8.218   6.742  0.2321 -0.3385  0.0696
  703POPI   C3A10177  16.147   8.186   6.960 -0.3322 -0.1457 -0.0883
  703POPI   C4A10178  15.831   8.360   7.182  0.2943 -0.3365  0.1323
  703POPI   C1B10179  16.879   7.692   6.470  0.0298  0.0230 -0.0329
  703POPI   C2B10180  16.966   7.408   6.780  0.2784  0.1177  0.1152
  703POPI   C3B10181  16.920   7.156   7.111 -0.1919  0.2303 -0.0533
  703POPI   C4B10182  17.226   6.946   7.394 -0.2430  0.1623 -0.2442
  704POPI    C110183   2.449   8.981   5.803 -0.2422  0.1241 -0.1684
  704POPI    C210184   2.607   8.837   5.465 -0.2225 -0.0212 -0.0983
  704POPI    C310185   2.823   9.080   5.699 -0.2043  0.0076 -0.1446
  704POPI   PO410186   2.375   8.794   5.961 -0.0766  0.1420  0.0531
  704POPI   GL110187   2.349   8.739   6.385 -0.1233 -0.1596 -0.0650
  704POPI   GL210188   2.174   8.573   6.555  0.1542  0.0815  0.1740
  704POPI   C1A10189   2.478   9.173   6.600  0.4995  0.2408  0.0670
  704POPI   D2A10190   2.499   9.223   7.036 -0.1772  0.0206 -0.0254
  704POPI   C3A10191   2.390   9.591   7.239 -0.0323 -0.2259  0.1823
  704POPI   C4A10192   2.374  10.001   7.578 -0.1153  0.1922 -0.0388
  704POPI   C1B10193   2.340   8.608   6.974 -0.1047 -0.1485 -0.3063
  704POPI   C2B10194   2.287   8.804   7.291 -0.2060 -0.0307  0.0138
  704POPI   C3B10195   2.183   9.163   7.515  0.1257  0.0710 -0.0108
  704POPI   C4B10196   2.419   9.383   7.855 -0.2649 -0.3232 -0.1172
  705POPI    C110197  18.455   4.593   5.403  0.0777 -0.1700  0.1317
  705POPI    C210198  18.148   4.828   5.300  0.1998 -0.1853 -0.2832
  705POPI    C310199  18.450   4.977   5.516  0.1214 -0.0482 -0.2670
  705POPI   PO410200  18.368   4.454   5.616  0.0649 -0.0751  0.3494
  705POPI   GL110201  18.451   4.343   6.037 -0.3603  0.2199  0.2513
  705POPI   GL210202  18.491   3.989   5.955  0.0210 -0.2871  0.0764
  705POPI   C1A10203  18.176   4.238   6.475 -0.1700  0.0479  0.4814
  705POPI   D2A10204  17.979   4.360   6.872 -0.0165  0.2306  0.1212
  705POPI   C3A10205  18.358   4.352   7.145 -0.1019  0.1366  0.1855
  705POPI   C4A10206  18.695   4.249   7.420  0.1808 -0.0201 -0.1726
  705POPI   C1B10207  18.457   3.787   6.335 -0.1819  0.3409  0.4219
  705POPI   C2B10208  18.592   4.004   6.612  0.1166  0.1328 -0.2349
  705POPI   C3B10209  18.812   4.134   6.948 -0.2043 -0.3769 -0.2278
  705POPI   C4B10210  19.176   4.297   7.249  0.0352 -0.0506  0.0005
  706POPI    C110211  18.125  18.494   5.298 -0.0441 -0.1208 -0.0742
  706POPI    C210212  18.001  18.858   5.188 -0.0275 -0.1327 -0.1328
  706POPI    C310213  18.193  18.624   4.926  0.0088 -0.1629 -0.0796
  706POPI   PO410214  17.917  18.311   5.511  0.0340  0.1078  0.1667
  706POPI   GL110215  18.091  18.221   5.900 -0.0362 -0.0863 -0.1452
  706POPI   GL210216  17.947  18.198   6.303  0.1582 -0.2576  0.0014
  706POPI   C1A10217  18.545  17.900   6.044  0.0475  0.1211  0.1907
  706POPI   D2A10218  18.614  17.770   6.298 -0.0507 -0.1481  0.0391
  706POPI   C3A10219  18.928  17.494   6.143  0.0209  0.2001 -0.0595
  706POPI   C4A10220  19.278  17.185   6.054 -0.0539 -0.2455  0.0789
  706POPI   C1B10221  18.172  18.008   6.592  0.1036 -0.0938 -0.0787
  706POPI   C2B10222  18.402  17.932   6.828 -0.2438  0.1481 -0.1550
  706POPI   C3B10223  18.774  17.964   7.214 -0.1448  0.2609 -0.0156
  706POPI   C4B10224  18.938  17.725   7.588 -0.0270 -0.0743  0.0502
  707POPI    C110225  11.341   8.926   5.652 -0.1104 -0.0798  0.0584
  707POPI    C210226  11.206   9.006   5.284  0.1338  0.1031  0.0061
  707POPI    C310227  11.566   8.838   5.333 -0.0209 -0.1930  0.1518
  707POPI   PO410228  11.137   8.832   5.795 -0.0103 -0.0185 -0.1684
  707POPI   GL110229  11.273   8.682   6.207 -0.0209 -0.0049 -0.1256
  707POPI   GL210230  10.988   8.629   6.337 -0.1525 -0.1473 -0.1937
  707POPI   C1A10231  11.401   8.440   6.547  0.1977  0.0322  0.1110
  707POPI   D2A10232  11.439   8.199   6.871 -0.1346  0.0776  0.1450
  707POPI   C3A10233  11.013   8.158   7.086  0.1621  0.2390  0.0434
  707POPI   C4A10234  10.799   8.186   7.575 -0.1320 -0.0420  0.0498
  707POPI   C1B10235  10.965   8.686   6.831  0.0468 -0.1494 -0.2654
  707POPI   C2B10236  10.749   8.669   7.205 -0.2043  0.1465  0.2680
  707POPI   C3B10237  10.431   8.681   7.494  0.0416  0.0250 -0.2873
  707POPI   C4B10238  10.080   8.678   7.750 -0.0599 -0.2851  0.1899
  708POPI    C110239   5.409   6.441   5.843 -0.1917 -0.0912  0.0856
  708POPI    C210240   5.178   6.484   5.519  0.0306  0.1789 -0.0413
  708POPI    C310241   5.528   6.294   5.491 -0.0612 -0.0142  0.0971
  708POPI   PO410242   5.229   6.488   6.061  0.3427 -0.0419  0.5151
  708POPI   GL110243   4.883   6.391   6.249  0.2968 -0.1965  0.0416
  708POPI   GL210244   5.168   6.196   6.464  0.0767 -0.0283 -0.2175
  708POPI   C1A10245   4.716   6.185   6.655  0.0655  0.1187 -0.1253
  708POPI   D2A10246   4.448   5.927   6.974  0.0859 -0.1388 -0.0068
  708POPI   C3A10247   4.501   6.242   7.389 -0.1182  0.1883 -0.0603
  708POPI   C4A10248   4.714   6.456   7.692  0.1249  0.0896 -0.0112
  708POPI   C1B10249   5.359   6.340   6.830 -0.0349 -0.1197  0.2581
  708POPI   C2B10250   5.635   6.401   7.115 -0.0838  0.0040 -0.1263
  708POPI   C3B10251   5.782   6.241   7.518  0.0555  0.1443 -0.1362
  708POPI   C4B10252   6.020   6.072   7.809 -0.0009  0.0819 -0.1155
  709POPI    C110253  15.747  10.699   5.561 -0.0708 -0.1685  0.1033
  709POPI    C210254  15.392  10.873   5.619 -0.1198 -0.3375  0.3252
  709POPI    C310255  15.448  10.634   5.304  0.0200  0.2561 -0.1184
  709POPI   PO410256  15.787  10.730   5.895  0.1395 -0.0739 -0.0964
  709POPI   GL110257  15.636  10.806   6.240 -0.1144 -0.1013  0.0365
  709POPI   GL210258  15.890  10.906   6.341  0.0604  0.0709 -0.1793
  709POPI   C1A10259  15.559  10.788   6.676  0.2825  0.0194 -0.0490
  709POPI   D2A10260  15.633  10.863   6.999  0.1077  0.0116 -0.2469
  709POPI   C3A10261  15.499  10.713   7.381  0.1175  0.2528 -0.1875
  709POPI   C4A10262  15.168  10.832   7.529 -0.2874 -0.1048 -0.1503
  709POPI   C1B10263  16.165  10.946   6.679 -0.0587 -0.2188 -0.3294
  709POPI   C2B10264  16.289  11.040   7.122 -0.1738 -0.0296  0.0392
  709POPI   C3B10265  16.388  10.995   7.498 -0.2348  0.1501 -0.1005
  709POPI   C4B10266  16.450  11.061   7.907  0.1063 -0.0761  0.1057
  710POPI    C110267  17.800  15.359   5.503  0.2774 -0.0730 -0.0246
  710POPI    C210268  17.824  15.102   5.197 -0.1477 -0.0411 -0.0920
  710POPI    C310269  18.071  15.417   5.215  0.2027 -0.3057 -0.1442
  710POPI   PO410270  17.557  15.397   5.582  0.0114  0.0684  0.1608
  710POPI   GL110271  17.226  15.695   5.762 -0.0049 -0.1997  0.1749
  710POPI   GL210272  17.128  15.904   5.829  0.1812 -0.3568 -0.0086
  710POPI   C1A10273  16.827  15.506   5.814  0.0770 -0.5661  0.2222
  710POPI   D2A10274  16.419  15.599   6.072  0.4409  0.2282  0.0629
  710POPI   C3A10275  16.085  15.263   6.293  0.1001 -0.2762  0.1523
  710POPI   C4A10276  15.948  15.126   6.832 -0.0080  0.2095  0.0706
  710POPI   C1B10277  17.114  15.962   6.268 -0.0210 -0.1292 -0.1400
  710POPI   C2B10278  17.180  16.038   6.745 -0.1097 -0.0384  0.1318
  710POPI   C3B10279  17.076  16.121   7.154  0.0874  0.2219  0.0896
  710POPI   C4B10280  17.227  15.813   7.440  0.3530 -0.0148 -0.0041
  711POPI    C110281   9.776   2.492   5.673  0.2336 -0.1611 -0.1353
  711POPI    C210282   9.816   2.610   5.293  0.1230 -0.0224 -0.1046
  711POPI    C310283   9.587   2.294   5.381 -0.2061  0.2083 -0.1126
  711POPI   PO410284  10.048   2.461   5.844  0.2970  0.1415  0.0193
  711POPI   GL110285  10.143   2.304   6.206 -0.1995 -0.1887  0.0006
  711POPI   GL210286  10.400   2.156   6.219 -0.0324 -0.2291  0.1796
  711POPI   C1A10287   9.966   2.410   6.526  0.2567 -0.0031  0.3423
  711POPI   D2A10288  10.091   2.242   6.929  0.2463  0.2185  0.0063
  711POPI   C3A10289  10.264   2.347   7.402 -0.3289  0.0384  0.1820
  711POPI   C4A10290  10.343   2.030   7.684 -0.2444 -0.3314  0.2932
  711POPI   C1B10291  10.529   2.270   6.639  0.3540 -0.4823  0.2021
  711POPI   C2B10292  10.605   2.189   7.096 -0.0048  0.0624  0.0560
  711POPI   C3B10293  10.606   1.798   7.306 -0.0993 -0.0406  0.0821
  711POPI   C4B10294  10.487   1.573   7.661  0.2342  0.0360 -0.1492
  712POPI    C110295   7.592  12.987   5.351 -0.3790  0.1276 -0.0636
  712POPI    C210296   7.947  13.063   5.183 -0.1972 -0.0008  0.2524
  712POPI    C310297   7.757  12.721   5.101 -0.1122 -0.0601  0.3006
  712POPI   PO410298   7.636  12.929   5.684  0.1084  0.0290 -0.4229
  712POPI   GL110299   7.380  12.977   6.057  0.2764 -0.2681  0.1426
  712POPI   GL210300   7.595  12.683   6.176 -0.2756  0.0626 -0.2171
  712POPI   C1A10301   7.343  13.192   6.447  0.1486 -0.0010 -0.1444
  712POPI   D2A10302   7.446  13.589   6.643  0.1944 -0.3033  0.1977
  712POPI   C3A10303   7.279  13.495   7.111 -0.1365  0.0122  0.1890
  712POPI   C4A10304   7.490  13.311   7.507  0.3087  0.0993  0.0382
  712POPI   C1B10305   7.766  12.901   6.438  0.0403 -0.2276 -0.0227
  712POPI   C2B10306   7.675  13.166   6.801 -0.0938  0.4493 -0.0423
  712POPI   C3B10307   7.932  13.230   7.170 -0.1091  0.1108 -0.2152
  712POPI   C4B10308   8.019  13.277   7.638 -0.5032 -0.1929  0.2111
  713POPI    C110309  17.769  11.530   5.608 -0.1856 -0.1055 -0.0449
  713POPI    C210310  17.746  11.484   5.211  0.1734 -0.1260 -0.0666
  713POPI    C310311  17.932  11.803   5.365 -0.3039  0.0856  0.0888
  713POPI   PO410312  17.494  11.569   5.707  0.0265  0.1020  0.1174
  713POPI   GL110313  17.368  11.346   6.129 -0.0508  0.0683 -0.0974
  713POPI   GL210314  17.448  11.071   6.288 -0.1883  0.0361  0.0134
  713POPI   C1A10315  17.515  11.561   6.512  0.2684  0.2236 -0.0769
  713POPI   D2A10316  17.673  11.806   6.878 -0.0731  0.6240  0.1067
  713POPI   C3A10317  17.894  12.078   6.721 -0.1237  0.3147 -0.2684
  713POPI   C4A10318  17.843  12.430   6.498  0.1475 -0.0965 -0.0044
  713POPI   C1B10319  17.300  11.114   6.696  0.2283 -0.1073  0.0265
  713POPI   C2B10320  17.358  11.107   7.101  0.0278  0.0286 -0.0923
  713POPI   C3B10321  17.300  11.124   7.567  0.0310  0.2519  0.0386
  713POPI   C4B10322  17.271  10.617   7.847  0.1555  0.1277 -0.1372
  714POPI    C110323   5.916  11.427   5.396 -0.0832 -0.2677 -0.1281
  714POPI    C210324   6.081  11.483   5.036  0.2272 -0.0373  0.0454
  714POPI    C310325   6.272  11.267   5.313  0.2078  0.1709  0.2244
  714POPI   PO410326   5.953  11.797   5.401 -0.0969 -0.0103  0.0491
  714POPI   GL110327   5.959  11.774   5.854 -0.1111 -0.3069  0.1002
  714POPI   GL210328   6.293  11.673   5.802  0.1080  0.1561 -0.0680
  714POPI   C1A10329   6.012  11.607   6.280  0.1317 -0.1385 -0.5414
  714POPI   D2A10330   5.948  11.676   6.718  0.1178  0.0986 -0.1485
  714POPI   C3A10331   6.283  11.865   6.964  0.1484 -0.0640  0.0171
  714POPI   C4A10332   6.428  11.914   7.405 -0.0444 -0.1998 -0.1652
  714POPI   C1B10333   6.458  11.832   6.209 -0.2202  0.3100  0.1904
  714POPI   C2B10334   6.571  12.010   6.528  0.0845  0.2713 -0.0387
  714POPI   C3B10335   6.523  12.313   6.820 -0.1993 -0.0577  0.1891
  714POPI   C4B10336   6.339  12.671   6.772  0.1399 -0.0347  0.2149
  715POPI    C110337   3.572  10.863   5.431  0.1362 -0.1698 -0.1141
  715POPI    C210338   3.885  11.106   5.372  0.0011 -0.1100 -0.6355
  715POPI    C310339   3.666  10.982   5.061 -0.2591 -0.4711 -0.3190
  715POPI   PO410340   3.646  10.689   5.541  0.1166 -0.0032 -0.0701
  715POPI   GL110341   3.554  10.748   6.114  0.2686  0.0464  0.0121
  715POPI   GL210342   3.730  11.119   6.150 -0.0398 -0.0379 -0.0481
  715POPI   C1A10343   3.602  10.673   6.536  0.1034  0.0782  0.2912
  715POPI   D2A10344   3.670  10.624   7.032  0.0998 -0.1992 -0.0390
  715POPI   C3A10345   3.518  10.850   7.381 -0.1289  0.2449 -0.0297
  715POPI   C4A10346   3.852  11.100   7.667  0.3091  0.2144 -0.0147
  715POPI   C1B10347   3.577  11.211   6.617 -0.3045  0.0105  0.0530
  715POPI   C2B10348   3.643  11.274   7.045 -0.0238  0.0254 -0.0751
  715POPI   C3B10349   3.438  11.380   7.380 -0.0597 -0.0351  0.1050
  715POPI   C4B10350   3.170  11.572   7.483 -0.2481 -0.2702 -0.1901
  716POPI    C110351  17.798  17.155   5.606  0.2450 -0.0982 -0.1105
  716POPI    C210352  17.510  16.880   5.650  0.0198  0.1472 -0.0222
  716POPI    C310353  17.528  17.098   5.315  0.1534  0.0771 -0.0613
  716POPI   PO410354  17.735  17.340   5.802 -0.0590  0.0361 -0.2169
  716POPI   GL110355  17.843  17.289   6.283 -0.0748 -0.2096 -0.4615
  716POPI   GL210356  17.918  16.953   6.106  0.1752 -0.4041 -0.0370
  716POPI   C1A10357  17.773  17.732   6.519 -0.1231 -0.2716  0.1428
  716POPI   D2A10358  17.413  17.791   6.842  0.2359 -0.0519 -0.2024
  716POPI   C3A10359  17.224  17.397   6.945  0.0140 -0.0861 -0.0439
  716POPI   C4A10360  17.008  17.121   7.226  0.1229  0.0220  0.1107
  716POPI   C1B10361  17.806  16.649   6.012  0.1966  0.2875 -0.0832
  716POPI   C2B10362  17.928  16.281   5.958  0.1714 -0.0005 -0.0426
  716POPI   C3B10363  18.320  16.122   6.147  0.3294  0.1574 -0.1692
  716POPI   C4B10364  18.723  16.026   6.273  0.2209  0.1277  0.2241
  717POPI    C110365  10.545   3.017   5.351 -0.2867 -0.0885 -0.1174
  717POPI    C210366  10.741   2.781   5.095 -0.0436 -0.0702  0.0485
  717POPI    C310367  10.628   3.147   4.982  0.2817  0.0316  0.0427
  717POPI   PO410368  10.676   3.045   5.622  0.4278  0.1151 -0.0153
  717POPI   GL110369  10.476   3.258   5.923 -0.0784  0.2738 -0.1577
  717POPI   GL210370  10.762   3.274   6.096  0.2941 -0.4218 -0.0593
  717POPI   C1A10371  10.275   3.219   6.298 -0.3392  0.0893  0.0767
  717POPI   D2A10372  10.555   3.161   6.592 -0.2600  0.0246 -0.1780
  717POPI   C3A10373  10.512   3.170   7.033 -0.3009  0.1216  0.1350
  717POPI   C4A10374  10.176   3.236   7.314  0.2044  0.1934 -0.1674
  717POPI   C1B10375  10.989   3.117   6.406 -0.4779 -0.2362  0.1253
  717POPI   C2B10376  11.009   3.176   6.831  0.2026  0.3131 -0.0803
  717POPI   C3B10377  11.006   3.268   7.219  0.1577 -0.0735 -0.0804
  717POPI   C4B10378  10.601   3.398   7.519  0.2249 -0.3039 -0.2097
  718POPI    C110379   4.552  16.418   5.043  0.0785 -0.0457  0.0642
  718POPI    C210380   4.383  16.271   4.712  0.1009  0.0160  0.0251
  718POPI    C310381   4.392  16.666   4.772  0.2485  0.0141  0.0171
  718POPI   PO410382   4.412  16.326   5.307  0.2052 -0.3327  0.0099
  718POPI   GL110383   4.545  16.162   5.783 -0.2158  0.1344  0.0286
  718POPI   GL210384   4.246  16.144   5.915 -0.0676 -0.1433 -0.1675
  718POPI   C1A10385   4.769  16.561   5.957 -0.1139  0.0274  0.4278
  718POPI   D2A10386   5.161  16.840   6.006 -0.1079  0.0126 -0.1633
  718POPI   C3A10387   5.482  16.752   6.274 -0.1801  0.1836  0.2814
  718POPI   C4A10388   5.392  16.510   6.596 -0.1049 -0.1260 -0.0442
  718POPI   C1B10389   4.309  16.141   6.354  0.0639 -0.3327 -0.2260
  718POPI   C2B10390   4.304  16.159   6.736  0.0706 -0.2085  0.0861
  718POPI   C3B10391   4.476  16.295   7.179  0.1129  0.2111 -0.0879
  718POPI   C4B10392   4.546  16.044   7.551  0.0209  0.2952 -0.1694
  719POPI    C110393   2.376  14.574   5.881  0.1649  0.3907  0.0288
  719POPI    C210394   2.088  14.839   5.962 -0.0489  0.1729 -0.0084
  719POPI    C310395   2.169  14.743   5.582 -0.0745  0.0741  0.0110
  719POPI   PO410396   2.326  14.341   6.043  0.0082  0.2752 -0.0643
  719POPI   GL110397   2.000  14.361   6.294  0.0839 -0.0586  0.0273
  719POPI   GL210398   2.126  14.063   6.371 -0.0130 -0.0607 -0.0966
  719POPI   C1A10399   2.183  14.470   6.692 -0.1736  0.4158  0.1121
  719POPI   D2A10400   2.330  14.458   7.122  0.0603 -0.2960  0.0219
  719POPI   C3A10401   2.253  14.785   7.379 -0.0631 -0.2143 -0.0424
  719POPI   C4A10402   2.277  15.259   7.536 -0.0318 -0.0802  0.3285
  719POPI   C1B10403   2.016  14.079   6.884  0.3037 -0.1844  0.2010
  719POPI   C2B10404   2.062  13.960   7.297  0.1075  0.0901 -0.0257
  719POPI   C3B10405   2.286  14.210   7.576  0.1947  0.1667 -0.1969
  719POPI   C4B10406   2.597  14.106   7.874 -0.1621 -0.2134 -0.1976
  720POPI    C110407   4.759   6.798   5.494 -0.0400  0.0924 -0.0645
  720POPI    C210408   4.913   7.167   5.487 -0.0600  0.0997 -0.1269
  720POPI    C310409   4.851   6.969   5.145  0.2564 -0.0891 -0.0782
  720POPI   PO410410   4.517   6.742   5.606  0.0034  0.0305  0.0812
  720POPI   GL110411   4.405   6.641   5.996 -0.1351 -0.0245 -0.1853
  720POPI   GL210412   4.246   6.935   6.169 -0.0798  0.3399  0.0450
  720POPI   C1A10413   4.417   6.506   6.479  0.0416 -0.2114  0.1177
  720POPI   D2A10414   4.474   6.557   6.952 -0.3108  0.1550  0.0633
  720POPI   C3A10415   4.732   6.892   7.233  0.1187  0.1574  0.1880
  720POPI   C4A10416   5.038   7.052   7.452  0.1242  0.0976 -0.0150
  720POPI   C1B10417   3.930   7.108   6.443  0.5312  0.1091  0.0749
  720POPI   C2B10418   3.690   7.178   6.864 -0.0707  0.1691 -0.0386
  720POPI   C3B10419   3.337   6.916   7.078  0.0063 -0.3421 -0.0532
  720POPI   C4B10420   3.234   6.667   7.485 -0.0649 -0.0553 -0.0798
  721POPI    C110421   2.992   3.519   5.438  0.0644  0.1341  0.0685
  721POPI    C210422   2.699   3.629   5.188 -0.0856 -0.0012  0.1825
  721POPI    C310423   3.047   3.494   5.042 -0.0585  0.2117  0.0460
  721POPI   PO410424   3.037   3.770   5.627 -0.0318 -0.0345  0.1842
  721POPI   GL110425   2.863   3.842   6.016 -0.0196 -0.1324  0.0706
  721POPI   GL210426   3.076   4.170   5.970  0.2661  0.2411  0.0656
  721POPI   C1A10427   2.897   3.611   6.382  0.0078  0.0682 -0.2380
  721POPI   D2A10428   3.033   3.697   6.807  0.1564  0.0803  0.4076
  721POPI   C3A10429   2.943   3.333   7.171  0.1489 -0.2917  0.2458
  721POPI   C4A10430   2.879   2.885   7.492 -0.4427 -0.0987 -0.1386
  721POPI   C1B10431   3.278   4.007   6.382 -0.3361  0.0197 -0.2452
  721POPI   C2B10432   3.512   3.902   6.805  0.0224  0.1597  0.1021
  721POPI   C3B10433   3.448   3.501   7.002 -0.1797 -0.1165 -0.0624
  721POPI   C4B10434   3.508   3.286   7.377  0.1265 -0.1400  0.0253
  722POPI    C110435   5.979   9.836   6.035  0.0035  0.2643  0.0038
  722POPI    C210436   6.293   9.924   5.803 -0.1602 -0.0161 -0.3337
  722POPI    C310437   6.007   9.678   5.668 -0.3004 -0.1234  0.1397
  722POPI   PO410438   6.093   9.804   6.261 -0.0031 -0.0779 -0.3326
  722POPI   GL110439   6.437   9.726   6.556  0.0096 -0.1482 -0.1173
  722POPI   GL210440   6.321   9.407   6.534  0.0996  0.1611  0.2092
  722POPI   C1A10441   6.407   9.485   7.020 -0.0230  0.1268  0.1221
  722POPI   D2A10442   6.271   9.689   7.299 -0.1878 -0.2666  0.0223
  722POPI   C3A10443   5.905   9.610   7.461 -0.0825  0.1073 -0.0246
  722POPI   C4A10444   5.618   9.749   7.870  0.0906  0.3500 -0.0282
  722POPI   C1B10445   5.945   9.396   6.725 -0.1835  0.1163  0.1239
  722POPI   C2B10446   5.803   9.188   7.042 -0.0216  0.1464 -0.0641
  722POPI   C3B10447   5.593   9.157   7.400 -0.1746 -0.0891  0.0325
  722POPI   C4B10448   5.655   9.286   7.795 -0.2755  0.3047  0.0964
  723POPI    C110449   7.568   7.329   5.516  0.1256  0.2729 -0.0218
  723POPI    C210450   7.238   7.366   5.292 -0.0962 -0.0663  0.2397
  723POPI    C310451   7.445   7.023   5.288  0.2347  0.1309  0.1078
  723POPI   PO410452   7.484   7.574   5.734 -0.0109  0.2755 -0.0825
  723POPI   GL110453   7.513   7.455   6.138  0.0031  0.0981 -0.4309
  723POPI   GL210454   7.841   7.559   6.153  0.1429  0.1312  0.0861
  723POPI   C1A10455   7.445   7.223   6.503  0.2824  0.0966  0.0393
  723POPI   D2A10456   7.450   7.185   6.861  0.2838 -0.0261 -0.0548
  723POPI   C3A10457   7.483   7.107   7.272 -0.0337  0.2691 -0.1197
  723POPI   C4A10458   7.151   7.112   7.615  0.0721 -0.3283 -0.0596
  723POPI   C1B10459   7.906   7.436   6.635  0.0697  0.0819  0.2109
  723POPI   C2B10460   7.803   7.610   7.019 -0.2516 -0.0186 -0.0322
  723POPI   C3B10461   7.712   8.090   7.139  0.0762  0.1536 -0.2884
  723POPI   C4B10462   7.687   8.336   6.742  0.1383  0.3078 -0.3333
  724POPI    C110463   6.907  14.854   5.678 -0.0953  0.0467 -0.3084
  724POPI    C210464   7.041  14.940   5.311  0.4572  0.1624 -0.0898
  724POPI    C310465   7.145  14.595   5.486  0.2305  0.1265 -0.0226
  724POPI   PO410466   6.932  15.091   5.764  0.0761  0.0468 -0.1187
  724POPI   GL110467   7.158  15.191   6.132  0.2417 -0.1543  0.0477
  724POPI   GL210468   7.386  15.473   6.103 -0.1128  0.0361  0.2872
  724POPI   C1A10469   6.850  15.212   6.501  0.1712  0.0674 -0.2481
  724POPI   D2A10470   6.414  15.407   6.519  0.0375  0.2114  0.2419
  724POPI   C3A10471   6.098  15.277   6.760 -0.0473 -0.2361  0.2570
  724POPI   C4A10472   5.963  15.361   7.286  0.0236 -0.2270 -0.1458
  724POPI   C1B10473   7.267  15.560   6.451 -0.3269  0.0456  0.1663
  724POPI   C2B10474   7.228  15.993   6.619  0.2002 -0.3179  0.2825
  724POPI   C3B10475   7.514  16.273   6.848 -0.1021  0.0288  0.0212
  724POPI   C4B10476   7.816  16.270   7.241 -0.1114 -0.0851 -0.1786
  725POPI    C110477  13.546   3.780   5.380  0.0168  0.1059  0.0241
  725POPI    C210478  13.909   3.923   5.291 -0.0439  0.2983  0.0791
  725POPI    C310479  13.749   3.629   5.070  0.1456  0.2103  0.0568
  725POPI   PO410480  13.522   3.703   5.735  0.0391 -0.0310 -0.0121
  725POPI   GL110481  13.374   3.904   6.237  0.1500 -0.2493 -0.2424
  725POPI   GL210482  13.629   3.756   6.223  0.3936  0.2729  0.0410
  725POPI   C1A10483  13.731   4.210   6.276  0.0307  0.3351  0.1013
  725POPI   D2A10484  14.086   4.405   6.414  0.1614  0.1951  0.0099
  725POPI   C3A10485  14.369   4.518   6.725  0.1354 -0.0953 -0.0588
  725POPI   C4A10486  14.454   4.665   7.212  0.2257  0.3293 -0.0723
  725POPI   C1B10487  13.768   3.823   6.593 -0.0134  0.0557  0.0474
  725POPI   C2B10488  13.957   4.099   6.931 -0.1925 -0.1379 -0.0313
  725POPI   C3B10489  14.358   4.162   7.137 -0.0879  0.3439 -0.1522
  725POPI   C4B10490  14.836   4.297   7.150 -0.1797  0.1132 -0.2204
  726POPI    C110491  10.280   7.664   5.422 -0.0841  0.4415 -0.3127
  726POPI    C210492  10.125   7.316   5.302  0.0771  0.2467  0.0303
  726POPI    C310493   9.884   7.626   5.377 -0.1336  0.0131  0.3481
  726POPI   PO410494  10.455   7.667   5.541  0.1041 -0.1642  0.1202
  726POPI   GL110495  10.393   7.447   5.995  0.0051 -0.2761  0.0444
  726POPI   GL210496  10.169   7.366   5.932  0.1692  0.2088 -0.0889
  726POPI   C1A10497  10.587   7.558   6.362  0.0924  0.0844 -0.4916
  726POPI   D2A10498  10.914   7.299   6.475  0.0487  0.2239 -0.2606
  726POPI   C3A10499  10.728   6.945   6.632 -0.0530  0.0128 -0.1605
  726POPI   C4A10500  10.957   6.638   6.866  0.1060 -0.0031 -0.1739
  726POPI   C1B10501  10.107   7.583   6.392 -0.1547  0.1172  0.0948
  726POPI   C2B10502  10.263   7.851   6.716 -0.2771  0.2507 -0.3446
  726POPI   C3B10503  10.015   8.014   7.044 -0.0309  0.0288 -0.0121
  726POPI   C4B10504   9.640   8.145   7.289  0.0670  0.1897 -0.0185
  727POPI    C110505   5.775   2.262   5.584  0.1881  0.0717  0.1060
  727POPI    C210506   6.052   2.550   5.578  0.2016  0.0556 -0.0874
  727POPI    C310507   6.129   2.195   5.411 -0.0017  0.1132 -0.3092
  727POPI   PO410508   5.718   2.317   5.890  0.1940  0.1855  0.1198
  727POPI   GL110509   5.828   2.105   6.230 -0.0397 -0.0837  0.1441
  727POPI   GL210510   5.564   1.898   6.190 -0.4335  0.1388 -0.0357
  727POPI   C1A10511   6.016   2.445   6.501 -0.0562 -0.0312  0.1948
  727POPI   D2A10512   5.956   2.666   6.921  0.0166 -0.0526 -0.3686
  727POPI   C3A10513   5.714   2.840   7.172 -0.0504  0.0361 -0.3329
  727POPI   C4A10514   5.542   2.878   7.492  0.4175  0.1016  0.1245
  727POPI   C1B10515   5.675   2.068   6.703 -0.0936 -0.2801  0.1391
  727POPI   C2B10516   5.857   1.896   7.085 -0.1389 -0.0129 -0.3058
  727POPI   C3B10517   6.208   1.603   7.230  0.1815 -0.2528 -0.1421
  727POPI   C4B10518   6.579   1.391   7.210 -0.1689  0.2289 -0.0369
  728POPI    C110519  12.166  17.153   5.032 -0.1245  0.0596  0.0564
  728POPI    C210520  11.798  17.152   4.875 -0.1421 -0.1194  0.0964
  728POPI    C310521  12.117  17.169   4.635 -0.1764  0.1282  0.0654
  728POPI   PO410522  12.056  17.355   5.296  0.2220  0.2254 -0.1213
  728POPI   GL110523  12.087  17.500   5.650  0.0689  0.1919  0.1060
  728POPI   GL210524  11.715  17.538   5.655  0.1842  0.1545  0.1184
  728POPI   C1A10525  12.309  17.272   5.965 -0.2827 -0.0368  0.1493
  728POPI   D2A10526  12.046  16.980   6.190  0.2744  0.1308  0.2878
  728POPI   C3A10527  12.130  16.845   6.609  0.0071  0.2133  0.0230
  728POPI   C4A10528  12.333  17.064   6.858  0.1977  0.2306 -0.1797
  728POPI   C1B10529  11.610  17.863   5.988  0.3336  0.1560  0.0984
  728POPI   C2B10530  11.808  18.161   6.247 -0.2854  0.0175 -0.0449
  728POPI   C3B10531  11.747  18.013   6.717 -0.1950  0.0698 -0.0294
  728POPI   C4B10532  11.818  17.824   7.106  0.0448 -0.0261  0.3803
  729POPI    C110533  13.135   5.185   5.783  0.0001 -0.0573 -0.0708
  729POPI    C210534  12.845   4.993   5.584  0.0679 -0.1214 -0.1087
  729POPI    C310535  13.188   5.083   5.400  0.0878 -0.0809 -0.0525
  729POPI   PO410536  12.965   5.404   5.856 -0.1706  0.3191  0.0556
  729POPI   GL110537  12.945   5.615   6.189  0.0363 -0.0061 -0.2335
  729POPI   GL210538  12.581   5.556   6.193  0.1659 -0.1292  0.0480
  729POPI   C1A10539  12.862   5.740   6.559 -0.0979  0.0569 -0.0919
  729POPI   D2A10540  13.123   5.817   6.944 -0.0631 -0.2480  0.1659
  729POPI   C3A10541  13.054   5.539   7.325 -0.1903  0.1019  0.2385
  729POPI   C4A10542  13.253   5.521   7.821 -0.2062 -0.0832 -0.0741
  729POPI   C1B10543  12.370   5.658   6.612  0.2722  0.0901  0.1474
  729POPI   C2B10544  12.108   5.670   6.944  0.0425  0.2024  0.2802
  729POPI   C3B10545  12.086   5.803   7.337 -0.0545 -0.2226  0.2099
  729POPI   C4B10546  12.490   5.830   7.593 -0.0480 -0.2915 -0.3548
  730POPI    C110547  11.335   7.532   5.508  0.1625  0.4191 -0.0341
  730POPI    C210548  11.241   7.586   5.123 -0.0117 -0.0550 -0.0655
  730POPI    C310549  10.952   7.574   5.400  0.1065  0.2041  0.0725
  730POPI   PO410550  11.566   7.583   5.553  0.1004  0.0854  0.0163
  730POPI   GL110551  11.898   7.617   5.888 -0.3209  0.4725 -0.0056
  730POPI   GL210552  11.873   7.279   5.962 -0.2122  0.2560 -0.1116
  730POPI   C1A10553  12.291   7.604   6.202 -0.2956  0.1365 -0.0959
  730POPI   D2A10554  12.649   7.401   6.562 -0.2705 -0.0130  0.0167
  730POPI   C3A10555  12.445   7.091   6.917 -0.0371  0.0206 -0.0002
  730POPI   C4A10556  12.355   7.051   7.249 -0.0919  0.0201 -0.1067
  730POPI   C1B10557  11.726   7.033   6.252 -0.3025 -0.1856  0.1209
  730POPI   C2B10558  11.900   6.920   6.683  0.1100 -0.0439 -0.2016
  730POPI   C3B10559  11.927   7.029   7.029 -0.0803 -0.1156 -0.0082
  730POPI   C4B10560  11.925   7.352   7.234 -0.0736 -0.0532  0.0233
  731POPI    C110561   1.660  16.270   5.706  0.0323 -0.2584  0.1759
  731POPI    C210562   1.350  16.455   5.877  0.0425 -0.2433  0.1778
  731POPI    C310563   1.570  16.646   5.603  0.1646 -0.1880  0.3136
  731POPI   PO410564   1.710  16.102   5.879 -0.1125  0.2808  0.1392
  731POPI   GL110565   1.724  15.690   6.127 -0.1844 -0.4170 -0.1059
  731POPI   GL210566   2.056  15.799   6.198  0.0585  0.3926  0.3161
  731POPI   C1A10567   1.414  15.856   6.397 -0.1775 -0.3230 -0.1634
  731POPI   D2A10568   1.057  15.917   6.714  0.2201  0.2997  0.1406
  731POPI   C3A10569   0.643  15.938   6.643  0.0776 -0.1010 -0.0432
  731POPI   C4A10570   0.573  16.235   6.345  0.1290 -0.6562 -0.0858
  731POPI   C1B10571   1.903  15.751   6.586  0.2076 -0.1179  0.0669
  731POPI   C2B10572   2.064  15.996   6.983  0.0447  0.1393 -0.0175
  731POPI   C3B10573   2.169  15.841   7.469 -0.0091  0.2560 -0.2686
  731POPI   C4B10574   2.429  16.016   7.792  0.0823 -0.1039  0.1653
  732POPI    C110575   9.471  10.872   5.488 -0.0160 -0.1376 -0.0403
  732POPI    C210576   9.377  11.244   5.376 -0.2332 -0.1832 -0.0140
  732POPI    C310577   9.750  11.109   5.327 -0.1444  0.0491  0.0084
  732POPI   PO410578   9.474  10.782   5.725 -0.1816 -0.0893  0.0629
  732POPI   GL110579   9.715  10.665   6.061  0.4244  0.2257 -0.3000
  732POPI   GL210580   9.621  10.931   6.242 -0.0605 -0.0907  0.0993
  732POPI   C1A10581   9.840  10.433   6.371  0.1602  0.0796 -0.0771
  732POPI   D2A10582   9.968   9.979   6.376  0.1284 -0.1006 -0.1052
  732POPI   C3A10583   9.719   9.723   6.326  0.0841 -0.1656 -0.2466
  732POPI   C4A10584   9.711   9.287   6.364 -0.1509  0.2169 -0.1448
  732POPI   C1B10585   9.746  11.173   6.537  0.1886 -0.2911  0.2239
  732POPI   C2B10586   9.792  11.363   6.837  0.0437  0.0410 -0.2933
  732POPI   C3B10587   9.766  11.503   7.122  0.0521 -0.0389 -0.1176
  732POPI   C4B10588   9.606  11.798   7.463 -0.0055 -0.1719 -0.1628
  733POPI    C110589  17.852   3.596   5.368  0.1303  0.1170  0.2273
  733POPI    C210590  17.763   3.421   5.020 -0.2016  0.0825  0.3256
  733POPI    C310591  17.815   3.817   5.037  0.0364  0.0590  0.1986
  733POPI   PO410592  18.025   3.471   5.489 -0.0219  0.0356  0.0286
  733POPI   GL110593  18.038   3.170   5.752  0.0195 -0.0449 -0.0259
  733POPI   GL210594  17.976   2.886   5.961 -0.1346  0.1609  0.1345
  733POPI   C1A10595  18.196   3.311   6.161  0.1796 -0.3407 -0.0439
  733POPI   D2A10596  18.053   3.350   6.552  0.0169 -0.2230 -0.2652
  733POPI   C3A10597  17.856   3.323   6.896  0.1405 -0.0223 -0.0527
  733POPI   C4A10598  17.653   3.089   7.207 -0.0730  0.1030  0.0352
  733POPI   C1B10599  18.005   2.881   6.378 -0.1114  0.0418  0.1678
  733POPI   C2B10600  17.939   2.583   6.597 -0.2321  0.0026 -0.0766
  733POPI   C3B10601  17.899   2.258   6.738 -0.1317  0.5480  0.0321
  733POPI   C4B10602  17.884   1.937   7.126 -0.2079 -0.3700 -0.1169
  734POPI    C110603   6.341   6.378   5.716 -0.2827 -0.3448 -0.0484
  734POPI    C210604   6.285   6.221   5.352  0.0861 -0.1330 -0.2016
  734POPI    C310605   6.184   6.601   5.424 -0.0514 -0.1953 -0.0612
  734POPI   PO410606   6.458   6.162   5.814  0.2239 -0.0326  0.5150
  734POPI   GL110607   6.358   5.966   6.156 -0.1095 -0.0743 -0.0421
  734POPI   GL210608   6.092   6.046   6.261 -0.0583  0.1267 -0.5611
  734POPI   C1A10609   6.416   5.891   6.601  0.2610 -0.0916  0.1579
  734POPI   D2A10610   6.627   5.867   7.063  0.1397 -0.1159  0.4197
  734POPI   C3A10611   6.413   5.612   7.354  0.0343 -0.0739 -0.0144
  734POPI   C4A10612   6.423   5.142   7.511  0.1647  0.1241  0.0617
  734POPI   C1B10613   5.867   6.077   6.693 -0.0825  0.2462 -0.1348
  734POPI   C2B10614   5.549   5.938   7.038 -0.0975 -0.0421  0.4247
  734POPI   C3B10615   5.074   5.912   6.953  0.0773 -0.0469  0.0102
  734POPI   C4B10616   4.662   5.655   6.635 -0.3832 -0.1614  0.0273
  735POPI    C110617  15.450   8.252   5.814 -0.0328 -0.0140 -0.0218
  735POPI    C210618  15.558   8.012   5.512 -0.2134 -0.0291 -0.0752
  735POPI    C310619  15.477   8.398   5.442  0.2184  0.0865  0.0337
  735POPI   PO410620  15.648   8.312   5.957 -0.0460 -0.5443 -0.2644
  735POPI   GL110621  15.624   8.238   6.262  0.4318  0.3065 -0.1447
  735POPI   GL210622  15.646   7.977   6.288  0.1475  0.0106 -0.2839
  735POPI   C1A10623  15.919   8.443   6.530 -0.1579 -0.1957  0.2228
  735POPI   D2A10624  15.971   8.721   6.805  0.2562 -0.0390 -0.0550
  735POPI   C3A10625  15.941   8.853   7.203  0.2284 -0.1351 -0.1004
  735POPI   C4A10626  16.074   8.912   7.560  0.1181  0.0325  0.0001
  735POPI   C1B10627  15.635   8.121   6.728  0.3343 -0.0324  0.2747
  735POPI   C2B10628  15.684   7.891   7.128 -0.2485 -0.3406  0.0767
  735POPI   C3B10629  15.437   7.722   7.354 -0.0331  0.0390 -0.0348
  735POPI   C4B10630  15.328   8.027   7.765 -0.1529 -0.0856  0.3161
  736POPI    C110631  17.234   4.723   5.525  0.1869 -0.0787  0.0543
  736POPI    C210632  16.962   4.503   5.718  0.0148 -0.0833 -0.1895
  736POPI    C310633  17.171   4.343   5.417  0.1958 -0.0404 -0.0878
  736POPI   PO410634  17.372   4.830   5.762  0.0849  0.3073 -0.0834
  736POPI   GL110635  17.484   4.842   6.169  0.0080  0.2017  0.0653
  736POPI   GL210636  17.116   4.716   6.168  0.3737  0.1978 -0.4297
  736POPI   C1A10637  17.658   4.483   6.423  0.0708 -0.3656  0.0548
  736POPI   D2A10638  17.406   4.176   6.605 -0.0806  0.2318  0.1284
  736POPI   C3A10639  17.131   4.177   6.996  0.2035  0.0729 -0.2871
  736POPI   C4A10640  17.045   4.662   7.066 -0.0894 -0.1158  0.2579
  736POPI   C1B10641  17.195   4.593   6.614  0.1165 -0.3560  0.5072
  736POPI   C2B10642  17.508   4.449   6.997  0.0741  0.1661  0.1058
  736POPI   C3B10643  17.534   4.232   7.229 -0.1122  0.0986 -0.2469
  736POPI   C4B10644  17.427   3.998   7.477 -0.0002  0.1105  0.0406
  737POPI    C110645   0.643   4.239   5.783  0.0376 -0.1498 -0.0034
  737POPI    C210646   0.704   4.481   5.471 -0.2703 -0.0177  0.0347
  737POPI    C310647   0.565   4.111   5.412  0.0626 -0.1385 -0.0125
  737POPI   PO410648   0.847   4.279   6.001  0.2645  0.2112 -0.0378
  737POPI   GL110649   0.721   4.001   6.220 -0.3525 -0.1451 -0.1243
  737POPI   GL210650   1.074   3.895   6.210  0.2250 -0.0235 -0.0380
  737POPI   C1A10651   0.679   3.459   6.408 -0.0826  0.1091  0.3419
  737POPI   D2A10652   0.740   3.477   6.821  0.0632 -0.1621  0.0062
  737POPI   C3A10653   0.441   3.526   7.141 -0.2671 -0.1445  0.2374
  737POPI   C4A10654   0.274   3.403   7.515 -0.2521  0.3144  0.2390
  737POPI   C1B10655   1.168   3.532   6.464  0.1624  0.0375 -0.1297
  737POPI   C2B10656   1.292   3.173   6.662 -0.0841 -0.4009 -0.1127
  737POPI   C3B10657   1.033   3.155   7.065  0.0750 -0.0175 -0.0637
  737POPI   C4B10658   1.226   3.082   7.479  0.2051 -0.0535  0.0379
  738POPI    C110659  10.872  10.523   5.506  0.2892 -0.0016 -0.0597
  738POPI    C210660  10.604  10.762   5.329  0.3501  0.1306  0.0245
  738POPI    C310661  10.909  10.612   5.118  0.1177 -0.1588 -0.1132
  738POPI   PO410662  10.859  10.630   5.788  0.3406  0.2458  0.1454
  738POPI   GL110663  10.774  10.622   6.248 -0.0234 -0.1935 -0.1323
  738POPI   GL210664  10.815  10.861   6.320 -0.2498 -0.1974  0.0968
  738POPI   C1A10665  11.119  10.384   6.368  0.1206 -0.0670 -0.4454
  738POPI   D2A10666  11.337  10.221   6.708 -0.0589 -0.0750 -0.3046
  738POPI   C3A10667  11.311   9.943   7.034  0.3405  0.2010  0.1149
  738POPI   C4A10668  11.593   9.693   7.322  0.3043 -0.2506 -0.0022
  738POPI   C1B10669  10.541  10.736   6.756 -0.4412  0.0649 -0.1823
  738POPI   C2B10670  10.363  10.535   7.056 -0.1184  0.0686 -0.2671
  738POPI   C3B10671  10.325  10.466   7.501  0.2054 -0.1489  0.0060
  738POPI   C4B10672  10.445  10.777   7.669 -0.0764 -0.1129  0.1349
  739POPI    C110673  17.920   1.719   5.194  0.1144 -0.3149 -0.1017
  739POPI    C210674  17.700   2.007   5.023  0.1177 -0.1031  0.2428
  739POPI    C310675  18.056   1.909   4.869 -0.1089 -0.2851 -0.1799
  739POPI   PO410676  17.650   1.735   5.421 -0.0126  0.1447  0.1185
  739POPI   GL110677  17.417   1.770   5.843 -0.1142  0.0301  0.2197
  739POPI   GL210678  17.129   1.663   5.590  0.2274  0.0829  0.0308
  739POPI   C1A10679  17.107   1.594   6.093  0.1724  0.0045  0.1546
  739POPI   D2A10680  16.803   1.461   6.379  0.0677  0.1350 -0.0431
  739POPI   C3A10681  16.643   1.786   6.691  0.0980 -0.1746 -0.2403
  739POPI   C4A10682  16.625   1.904   7.136 -0.0292 -0.1018  0.1951
  739POPI   C1B10683  16.771   1.785   5.808  0.1060 -0.1119 -0.0142
  739POPI   C2B10684  16.471   1.747   6.159  0.0358  0.2077  0.2005
  739POPI   C3B10685  16.203   1.998   6.455  0.1633 -0.0301  0.1724
  739POPI   C4B10686  15.806   2.200   6.497 -0.0918 -0.0526 -0.2719
  740POPI    C110687   1.525   6.732   6.092 -0.0582 -0.2387 -0.1220
  740POPI    C210688   1.261   6.972   5.912  0.1003  0.0360  0.0055
  740POPI    C310689   1.138   6.714   6.192 -0.0722 -0.0373 -0.1359
  740POPI   PO410690   1.689   6.884   6.240 -0.0362 -0.1036 -0.2525
  740POPI   GL110691   1.722   6.991   6.643 -0.0301 -0.1461  0.0238
  740POPI   GL210692   2.002   7.134   6.826  0.3456  0.1614  0.2273
  740POPI   C1A10693   1.680   6.736   7.093  0.0845  0.2554 -0.0572
  740POPI   D2A10694   1.720   6.428   7.364  0.0957 -0.1130 -0.0244
  740POPI   C3A10695   1.554   6.449   7.883  0.1924 -0.3235  0.0487
  740POPI   C4A10696   1.520   6.710   8.233  0.1047  0.2325 -0.0729
  740POPI   C1B10697   2.198   7.191   7.215 -0.0136 -0.0433  0.1883
  740POPI   C2B10698   2.451   7.390   7.538  0.1808 -0.1510  0.2502
  740POPI   C3B10699   2.780   7.331   7.864 -0.0442  0.0108  0.2883
  740POPI   C4B10700   2.798   7.461   8.252  0.0116 -0.0479  0.1007
  741POPI    C110701  16.995  17.112   5.216  0.0579  0.0799  0.0267
  741POPI    C210702  17.093  17.500   5.215  0.0125  0.0914 -0.0473
  741POPI    C310703  17.223  17.260   4.922 -0.3422  0.1486 -0.2569
  741POPI   PO410704  16.841  17.126   5.456 -0.4455  0.3146  0.0633
  741POPI   GL110705  16.699  16.843   5.826  0.1800 -0.0056  0.3879
  741POPI   GL210706  17.034  16.821   5.768 -0.0311 -0.0020  0.3834
  741POPI   C1A10707  16.337  16.699   6.069  0.4003 -0.0754  0.0574
  741POPI   D2A10708  16.111  16.629   6.518 -0.1353  0.0757 -0.0982
  741POPI   C3A10709  15.758  16.859   6.594 -0.2638  0.0346 -0.1050
  741POPI   C4A10710  15.658  17.253   6.909 -0.1380  0.2283  0.1919
  741POPI   C1B10711  17.327  16.823   6.100 -0.4263 -0.1377  0.0635
  741POPI   C2B10712  17.565  16.829   6.478  0.2287  0.0954 -0.1095
  741POPI   C3B10713  17.957  16.800   6.565 -0.0187 -0.2648  0.1233
  741POPI   C4B10714  18.333  16.819   6.357  0.1828 -0.2070  0.2004
  742POPS   CNO10715  17.017   9.281   6.052 -0.1022 -0.2749 -0.0157
  742POPS   PO410716  17.426   9.317   5.919  0.0388  0.0223 -0.1755
  742POPS   GL110717  17.453   9.410   6.358  0.2557  0.1123  0.3709
  742POPS   GL210718  17.393   9.747   6.620  0.0375  0.1735  0.4395
  742POPS   C1A10719  17.713   9.199   6.641 -0.1394  0.1194 -0.1390
  742POPS   D2A10720  17.671   8.993   7.023  0.0919  0.0282  0.0535
  742POPS   C3A10721  17.808   9.105   7.351 -0.0371  0.0127 -0.2928
  742POPS   C4A10722  17.759   9.057   7.879  0.3031  0.1142  0.4047
  742POPS   C1B10723  17.129  10.125   6.556  0.3503  0.0444  0.2762
  742POPS   C2B10724  17.001  10.464   6.826  0.3610 -0.0865  0.2615
  742POPS   C3B10725  16.991  10.639   7.254 -0.0120  0.0159 -0.0141
  742POPS   C4B10726  16.851  10.744   7.590 -0.0521  0.2241  0.0250
  743POPS   CNO10727   9.079   7.982   5.506  0.1186  0.2185 -0.1916
  743POPS   PO410728   8.882   7.620   5.673 -0.1901  0.2201 -0.1236
  743POPS   GL110729   8.976   7.490   6.062  0.2095 -0.2078  0.1844
  743POPS   GL210730   8.881   7.216   6.097  0.1690 -0.1781  0.0469
  743POPS   C1A10731   8.896   7.696   6.424 -0.0618  0.0633 -0.1554
  743POPS   D2A10732   8.774   7.743   6.895  0.1466  0.0973 -0.1547
  743POPS   C3A10733   8.294   7.755   7.028 -0.2590 -0.1240  0.0833
  743POPS   C4A10734   8.032   7.970   6.716 -0.0582 -0.0143 -0.0349
  743POPS   C1B10735   8.981   7.209   6.575 -0.0289  0.0269 -0.1867
  743POPS   C2B10736   9.169   7.393   6.958  0.1681 -0.0982 -0.1212
  743POPS   C3B10737   9.040   7.710   7.361  0.0941  0.2606 -0.0876
  743POPS   C4B10738   8.934   7.882   7.708  0.1158 -0.0588  0.1080
  744POPS   CNO10739  11.304  17.050   4.967  0.3407 -0.1419 -0.1887
  744POPS   PO410740  11.080  16.881   5.310  0.0971  0.2828  0.0501
  744POPS   GL110741  11.195  17.064   5.738 -0.0386 -0.2047  0.2117
  744POPS   GL210742  10.945  17.034   5.918 -0.1248  0.0694  0.0508
  744POPS   C1A10743  11.461  17.327   6.003  0.2342  0.0520 -0.0010
  744POPS   D2A10744  11.869  17.444   6.141 -0.2579 -0.0107 -0.0127
  744POPS   C3A10745  12.099  17.387   6.560  0.4405 -0.1141  0.0353
  744POPS   C4A10746  12.318  17.667   6.935  0.0306 -0.1121  0.1399
  744POPS   C1B10747  11.150  17.104   6.308 -0.3316  0.0192 -0.1633
  744POPS   C2B10748  11.209  16.876   6.634 -0.0920 -0.1442  0.0512
  744POPS   C3B10749  11.189  16.887   7.043  0.0573  0.1563  0.0946
  744POPS   C4B10750  11.410  16.788   7.399  0.1680  0.0639 -0.1531
  745POPS   CNO10751  16.241   1.989   4.881 -0.0753 -0.1191  0.2861
  745POPS   PO410752  15.984   1.883   5.272  0.3672  0.0572 -0.0890
  745POPS   GL110753  15.813   1.568   5.660 -0.0562 -0.1068 -0.0464
  745POPS   GL210754  15.537   1.358   5.644 -0.1937  0.1369  0.0786
  745POPS   C1A10755  15.903   1.607   6.137  0.0980 -0.1535 -0.1446
  745POPS   D2A10756  15.845   1.573   6.519  0.0552  0.2615 -0.0473
  745POPS   C3A10757  15.980   1.703   6.830 -0.0763 -0.1183  0.2641
  745POPS   C4A10758  16.025   1.806   7.274  0.0190 -0.4538 -0.4338
  745POPS   C1B10759  15.646   1.190   6.113  0.1109 -0.3198  0.0395
  745POPS   C2B10760  15.847   0.882   6.344  0.5651  0.4596  0.1419
  745POPS   C3B10761  15.826   0.931   6.766  0.1652 -0.2441  0.1294
  745POPS   C4B10762  15.862   1.105   7.113 -0.0222  0.1388 -0.1624
  746POPS   CNO10763  16.592  11.806   5.710 -0.1012 -0.1356 -0.2617
  746POPS   PO410764  16.727  12.170   5.759  0.1612 -0.1250  0.1985
  746POPS   GL110765  16.781  12.061   6.143 -0.0713 -0.0203  0.3021
  746POPS   GL210766  16.496  11.919   6.177 -0.1773 -0.1084  0.0712
  746POPS   C1A10767  16.755  12.181   6.569 -0.0491 -0.3693  0.0888
  746POPS   D2A10768  16.772  11.993   6.906  0.0931  0.2319 -0.2141
  746POPS   C3A10769  16.990  12.081   7.360  0.1517  0.1720 -0.2652
  746POPS   C4A10770  17.269  12.183   7.602  0.1847 -0.0420 -0.3197
  746POPS   C1B10771  16.491  11.705   6.500  0.3447 -0.0243 -0.1232
  746POPS   C2B10772  16.521  11.414   6.893 -0.0777  0.1471  0.3134
  746POPS   C3B10773  16.593  11.649   7.292  0.1180 -0.4489  0.1887
  746POPS   C4B10774  16.742  11.772   7.635  0.1058  0.2924 -0.0251
  747POPS   CNO10775  14.330  15.125   4.723  0.3877  0.1566  0.2430
  747POPS   PO410776  14.550  14.862   5.039  0.1716  0.1317 -0.0032
  747POPS   GL110777  14.760  14.749   5.410 -0.2405  0.1077  0.1213
  747POPS   GL210778  15.031  14.581   5.351 -0.1914 -0.0522  0.2035
  747POPS   C1A10779  14.810  14.689   5.845  0.0337  0.1773  0.0185
  747POPS   D2A10780  14.779  14.472   6.161  0.0424 -0.0243 -0.0367
  747POPS   C3A10781  14.776  14.645   6.557 -0.1256 -0.1964 -0.0511
  747POPS   C4A10782  14.717  14.721   7.005 -0.2374  0.2701  0.0010
  747POPS   C1B10783  15.214  14.307   5.716 -0.0561  0.1460 -0.2291
  747POPS   C2B10784  15.442  14.137   6.101 -0.2262  0.2980  0.0144
  747POPS   C3B10785  15.628  14.170   6.492  0.2466 -0.3883 -0.0531
  747POPS   C4B10786  15.624  14.296   6.864 -0.1758 -0.3014  0.2896
  748POPS   CNO10787   4.772  18.640   5.132 -0.0433  0.0996 -0.1057
  748POPS   PO410788   5.025  18.324   5.009 -0.2669  0.0599 -0.2562
  748POPS   GL110789   5.044  18.237   5.356  0.0248 -0.0915  0.2530
  748POPS   GL210790   4.966  18.515   5.587  0.0285  0.0798 -0.2869
  748POPS   C1A10791   4.869  17.887   5.681  0.0955 -0.3698  0.1481
  748POPS   D2A10792   4.691  17.559   6.028 -0.1228 -0.2413 -0.1714
  748POPS   C3A10793   5.008  17.305   6.297 -0.1965 -0.0545 -0.3099
  748POPS   C4A10794   4.921  16.918   6.423  0.2792  0.2349 -0.2011
  748POPS   C1B10795   4.916  18.823   5.900 -0.0152 -0.2614 -0.5890
  748POPS   C2B10796   4.832  18.955   6.311  0.1010  0.2753 -0.0067
  748POPS   C3B10797   5.073  19.188   6.554  0.0894 -0.2213  0.0245
  748POPS   C4B10798   5.070  19.395   6.949  0.1480 -0.0717 -0.1772
  749POPS   CNO10799   9.023  18.102   5.355  0.1728  0.0580 -0.1799
  749POPS   PO410800   8.801  18.457   5.429 -0.1358  0.2763  0.1123
  749POPS   GL110801   9.110  18.388   5.806 -0.1422 -0.3755 -0.0638
  749POPS   GL210802   8.881  18.299   6.035 -0.1995 -0.2501  0.0719
  749POPS   C1A10803   9.330  18.304   6.189  0.2093 -0.2137 -0.0558
  749POPS   D2A10804   9.713  18.567   6.381 -0.0203  0.1533  0.1203
  749POPS   C3A10805   9.812  18.936   6.276  0.3002 -0.0142 -0.2490
  749POPS   C4A10806  10.030  19.358   6.153 -0.1936  0.3120 -0.0672
  749POPS   C1B10807   8.806  18.430   6.383  0.0388 -0.0198  0.0066
  749POPS   C2B10808   8.792  18.614   6.779 -0.1386 -0.0312 -0.2003
  749POPS   C3B10809   8.535  18.726   7.057  0.1521 -0.1869 -0.3069
  749POPS   C4B10810   8.371  18.808   7.447 -0.1743 -0.1747 -0.3184
  750POPS   CNO10811  14.064   0.081   4.863  0.1964 -0.1248 -0.1554
  750POPS   PO410812  13.806  -0.211   5.110  0.2822 -0.2255 -0.0155
  750POPS   GL110813  14.045  -0.323   5.473  0.1142  0.1460  0.0725
  750POPS   GL210814  13.837  -0.160   5.658 -0.1058  0.2333 -0.3153
  750POPS   C1A10815  14.351  -0.684   5.641  0.0453  0.0374 -0.1229
  750POPS   D2A10816  14.601  -0.953   5.663 -0.2088  0.3130 -0.1820
  750POPS   C3A10817  14.608  -1.251   5.666 -0.3622 -0.0339 -0.0772
  750POPS   C4A10818  14.827  -1.606   5.634 -0.3430  0.3040  0.1300
  750POPS   C1B10819  13.999  -0.368   6.076 -0.2936  0.2049 -0.0978
  750POPS   C2B10820  13.976  -0.403   6.507  0.3768 -0.0534 -0.1912
  750POPS   C3B10821  14.177  -0.714   6.896  0.1189  0.2059  0.0842
  750POPS   C4B10822  14.205  -0.975   7.224 -0.1104  0.1943 -0.2599
  751POPS   CNO10823   8.058  17.376   5.580 -0.0572 -0.2798 -0.2267
  751POPS   PO410824   8.308  17.712   5.568  0.0651 -0.2199  0.2672
  751POPS   GL110825   7.952  17.703   5.936  0.1097  0.3595  0.0169
  751POPS   GL210826   8.106  17.757   6.231 -0.0202 -0.0800 -0.2824
  751POPS   C1A10827   7.702  18.068   6.045  0.1378 -0.0084 -0.0426
  751POPS   D2A10828   7.290  18.315   5.922  0.2812 -0.1812  0.0786
  751POPS   C3A10829   6.984  18.225   6.301 -0.0800 -0.1305  0.0641
  751POPS   C4A10830   6.742  18.424   6.603  0.0937  0.3111  0.1615
  751POPS   C1B10831   8.033  18.129   6.457 -0.1250  0.2220  0.1249
  751POPS   C2B10832   7.746  18.370   6.791  0.1328  0.0085  0.0919
  751POPS   C3B10833   7.610  18.681   7.097  0.0632  0.2605  0.1270
  751POPS   C4B10834   7.806  18.942   7.367  0.0360 -0.1838 -0.3523
  752POPS   CNO10835  14.112   6.314   5.816  0.3158 -0.0583 -0.1488
  752POPS   PO410836  14.507   6.076   5.599  0.0684  0.4195 -0.0657
  752POPS   GL110837  14.277   5.830   5.931 -0.0129 -0.1154  0.1458
  752POPS   GL210838  14.394   5.563   5.826  0.2263 -0.5465  0.1040
  752POPS   C1A10839  14.271   5.875   6.356  0.3760 -0.0732 -0.0041
  752POPS   D2A10840  14.369   5.951   6.850  0.0754 -0.1829 -0.2848
  752POPS   C3A10841  14.514   6.058   7.261  0.0930  0.0454 -0.1841
  752POPS   C4A10842  14.755   5.853   7.679  0.0021 -0.0193 -0.1794
  752POPS   C1B10843  14.474   5.322   6.218  0.2849  0.1180  0.1092
  752POPS   C2B10844  14.465   5.519   6.638 -0.2081  0.1577  0.2153
  752POPS   C3B10845  14.521   5.534   7.096 -0.0891  0.1217  0.3240
  752POPS   C4B10846  14.213   5.617   7.444  0.1244  0.4034 -0.1191
  753POPS   CNO10847   7.332  16.056   5.679 -0.1576  0.0431  0.1090
  753POPS   PO410848   7.042  16.368   5.459  0.3186 -0.0783 -0.3912
  753POPS   GL110849   6.867  16.328   5.933 -0.1953 -0.4140 -0.3700
  753POPS   GL210850   6.441  16.403   6.130  0.0193 -0.0700  0.0107
  753POPS   C1A10851   6.872  16.365   6.374 -0.0615  0.0246  0.0593
  753POPS   D2A10852   6.736  16.272   6.799 -0.0845  0.0925 -0.0787
  753POPS   C3A10853   6.420  16.374   7.187 -0.1779 -0.0339  0.0128
  753POPS   C4A10854   6.286  16.761   7.571  0.0299  0.1123 -0.1042
  753POPS   C1B10855   6.332  16.212   6.545  0.1153  0.1105  0.2255
  753POPS   C2B10856   6.282  15.854   6.760  0.1866  0.0823  0.0328
  753POPS   C3B10857   6.467  15.501   7.063 -0.1880 -0.0472  0.2437
  753POPS   C4B10858   6.832  15.496   7.390 -0.1283 -0.1805 -0.0921
  754POPS   CNO10859   4.816   8.843   5.303 -0.4441 -0.1308 -0.1280
  754POPS   PO410860   4.740   8.680   5.645 -0.4459  0.0538 -0.0358
  754POPS   GL110861   4.785   8.835   6.089 -0.0133  0.2415  0.1587
  754POPS   GL210862   4.577   8.636   6.244  0.1729 -0.0027 -0.2356
  754POPS   C1A10863   4.990   8.766   6.578 -0.2819  0.0857  0.2920
  754POPS   D2A10864   5.203   8.521   6.817 -0.0885 -0.1857 -0.0895
  754POPS   C3A10865   5.278   8.517   7.172 -0.0120 -0.0679 -0.1896
  754POPS   C4A10866   5.259   8.902   7.570 -0.1921  0.3414 -0.0298
  754POPS   C1B10867   4.465   8.943   6.611 -0.2753 -0.2357  0.1890
  754POPS   C2B10868   4.064   9.065   6.765 -0.2543 -0.3337 -0.2011
  754POPS   C3B10869   4.042   9.191   7.141 -0.4579  0.1956 -0.1790
  754POPS   C4B10870   3.702   9.268   7.457 -0.2467 -0.3306 -0.0856
  755POPS   CNO10871  17.839  11.042   5.879  0.0190  0.4462  0.2684
  755POPS   PO410872  18.171  10.808   5.957  0.2900  0.2744  0.1669
  755POPS   GL110873  18.176  10.931   6.422  0.0035 -0.1028  0.0824
  755POPS   GL210874  17.980  11.140   6.447 -0.1907 -0.0299  0.0386
  755POPS   C1A10875  18.196  10.831   6.862 -0.0675 -0.1359  0.4134
  755POPS   D2A10876  17.988  10.885   7.305 -0.3432 -0.1029  0.3529
  755POPS   C3A10877  17.790  10.598   7.550 -0.0463 -0.2057 -0.0064
  755POPS   C4A10878  17.762  10.262   7.732 -0.0831  0.2911  0.1503
  755POPS   C1B10879  17.821  11.219   6.824  0.4351  0.1474 -0.1083
  755POPS   C2B10880  17.691  11.451   7.200  0.3766 -0.1802  0.0918
  755POPS   C3B10881  17.759  11.574   7.589  0.1360  0.0411 -0.0089
  755POPS   C4B10882  17.987  11.447   7.940  0.3814 -0.3552  0.1005
  756POPS   CNO10883   1.031  13.942   5.991  0.3820 -0.1514  0.1111
  756POPS   PO410884   1.461  13.741   6.087 -0.0128 -0.0751 -0.2449
  756POPS   GL110885   1.184  13.698   6.467 -0.1153  0.1760 -0.0869
  756POPS   GL210886   1.014  13.372   6.613  0.0739  0.1617  0.0304
  756POPS   C1A10887   1.045  13.748   6.919  0.2826  0.0726 -0.0655
  756POPS   D2A10888   1.280  13.841   7.351 -0.1135  0.0473  0.1275
  756POPS   C3A10889   1.428  13.970   7.730 -0.0194  0.1458  0.0057
  756POPS   C4A10890   1.818  14.005   7.849 -0.0930  0.1430  0.0278
  756POPS   C1B10891   1.424  13.181   6.710 -0.2089  0.5580 -0.1607
  756POPS   C2B10892   1.724  12.953   7.046 -0.1023 -0.1626  0.2943
  756POPS   C3B10893   1.685  12.609   7.405  0.1477 -0.0195 -0.1138
  756POPS   C4B10894   1.607  12.382   7.764 -0.2909  0.0059 -0.1064
  757POPS   CNO10895   4.666  11.764   5.135  0.0217  0.0121 -0.2804
  757POPS   PO410896   4.467  11.653   5.592  0.0805 -0.3886 -0.0304
  757POPS   GL110897   4.778  11.643   5.975 -0.1062  0.0459  0.2827
  757POPS   GL210898   4.494  11.690   6.121  0.1497 -0.0373 -0.1421
  757POPS   C1A10899   5.033  11.657   6.324 -0.0829  0.1673 -0.3214
  757POPS   D2A10900   5.477  11.635   6.368  0.1813  0.1307  0.0053
  757POPS   C3A10901   5.702  11.274   6.471  0.1538 -0.1486 -0.1380
  757POPS   C4A10902   5.770  11.114   6.868  0.1271 -0.2372 -0.2346
  757POPS   C1B10903   4.320  11.861   6.428 -0.0728  0.0129 -0.1318
  757POPS   C2B10904   4.532  11.767   6.771 -0.1336 -0.1495  0.1368
  757POPS   C3B10905   4.573  11.815   7.260 -0.0680  0.0333  0.0545
  757POPS   C4B10906   4.752  11.945   7.644  0.0636 -0.0226  0.2250
  758POPS   CNO10907   8.965  12.887   5.844 -0.1775 -0.2630 -0.3640
  758POPS   PO410908   9.425  12.607   5.786  0.2362  0.0004 -0.1343
  758POPS   GL110909   9.306  12.684   6.215 -0.0973 -0.1392 -0.4025
  758POPS   GL210910   9.592  12.533   6.449 -0.1063  0.0289 -0.1407
  758POPS   C1A10911   9.069  12.800   6.485  0.1956 -0.1317 -0.1382
  758POPS   D2A10912   8.835  12.858   6.684 -0.0655  0.0667 -0.2414
  758POPS   C3A10913   8.922  12.960   7.086 -0.2613 -0.0830 -0.0366
  758POPS   C4A10914   8.801  12.930   7.453 -0.1871 -0.0223 -0.0595
  758POPS   C1B10915   9.805  12.946   6.612 -0.3072  0.0151 -0.0908
  758POPS   C2B10916  10.133  13.029   6.833 -0.0546 -0.0960  0.2574
  758POPS   C3B10917  10.060  12.955   7.340 -0.3752 -0.1438 -0.2279
  758POPS   C4B10918   9.812  12.623   7.534  0.0609 -0.1967 -0.1489
  759POPS   CNO10919  14.553  14.349   5.639 -0.0004 -0.0128 -0.0333
  759POPS   PO410920  14.390  13.981   5.404 -0.3769 -0.0664 -0.2493
  759POPS   GL110921  14.430  13.876   5.851  0.0548 -0.1938  0.0911
  759POPS   GL210922  14.718  13.994   6.047 -0.0766 -0.0961  0.2554
  759POPS   C1A10923  14.317  14.321   6.093 -0.4289 -0.0480 -0.0436
  759POPS   D2A10924  14.274  14.510   6.478 -0.2145 -0.2163 -0.0495
  759POPS   C3A10925  14.380  14.355   6.841 -0.0706 -0.2448  0.1607
  759POPS   C4A10926  14.106  14.078   7.135  0.0342  0.0061  0.0639
  759POPS   C1B10927  14.537  14.032   6.470 -0.3353  0.2765  0.0327
  759POPS   C2B10928  14.380  13.779   6.804 -0.0931 -0.0292 -0.1367
  759POPS   C3B10929  14.331  13.496   7.148 -0.4249 -0.0116  0.1579
  759POPS   C4B10930  14.055  13.237   7.421  0.0840  0.2167 -0.3310
  760POPS   CNO10931   7.447  16.526   5.820  0.0775  0.4362  0.0763
  760POPS   PO410932   7.258  16.841   5.560  0.2953  0.0918 -0.0511
  760POPS   GL110933   7.033  16.873   5.967 -0.2343  0.0469 -0.0982
  760POPS   GL210934   7.128  17.165   6.098  0.1782  0.0827 -0.2187
  760POPS   C1A10935   6.757  16.865   6.340  0.0238 -0.1287 -0.0082
  760POPS   D2A10936   6.360  16.722   6.546  0.3331 -0.0838 -0.3147
  760POPS   C3A10937   6.239  16.848   7.028 -0.3552  0.2126 -0.0197
  760POPS   C4A10938   5.996  17.039   7.258 -0.0937  0.1799  0.0668
  760POPS   C1B10939   7.398  16.917   6.273 -0.1818  0.0629 -0.2034
  760POPS   C2B10940   7.566  16.754   6.710 -0.0647 -0.2160  0.1506
  760POPS   C3B10941   7.913  16.750   6.975  0.0802  0.0273  0.0828
  760POPS   C4B10942   8.171  16.634   7.365 -0.1486 -0.4614 -0.0048
  761POPS   CNO10943   5.593   5.475   5.778  0.2490  0.2210  0.3469
  761POPS   PO410944   5.399   5.165   5.819  0.0959 -0.4822 -0.0997
  761POPS   GL110945   5.516   4.788   6.075  0.1831  0.3205 -0.2879
  761POPS   GL210946   5.540   4.399   5.951  0.0622 -0.0793  0.0016
  761POPS   C1A10947   5.694   4.524   6.437  0.4019  0.1867 -0.1090
  761POPS   D2A10948   5.898   4.153   6.490  0.0682  0.0154  0.0669
  761POPS   C3A10949   6.289   4.003   6.564  0.1427  0.0840 -0.2659
  761POPS   C4A10950   6.558   3.752   6.763 -0.0699 -0.1963  0.0577
  761POPS   C1B10951   5.245   4.193   6.310  0.0754  0.0702 -0.0034
  761POPS   C2B10952   5.408   4.184   6.744 -0.3138 -0.2062  0.1323
  761POPS   C3B10953   5.640   3.873   7.076  0.0924  0.2294  0.2027
  761POPS   C4B10954   5.773   3.808   7.549  0.0986 -0.1691 -0.1081
  762POPS   CNO10955  16.006  17.708   5.013 -0.1049  0.0945  0.1386
  762POPS   PO410956  16.217  17.803   5.487  0.2693  0.2873  0.4463
  762POPS   GL110957  16.259  17.713   5.988  0.0920 -0.0307 -0.0707
  762POPS   GL210958  16.604  17.744   6.028  0.0656 -0.2873  0.1805
  762POPS   C1A10959  16.061  17.810   6.212  0.2265 -0.1103 -0.0520
  762POPS   D2A10960  15.861  17.895   6.572  0.0498 -0.2414 -0.0681
  762POPS   C3A10961  15.496  17.816   6.755  0.0580 -0.0809  0.1029
  762POPS   C4A10962  15.100  17.838   6.525 -0.1834  0.3798  0.1519
  762POPS   C1B10963  16.550  17.831   6.412  0.2593  0.0745  0.0267
  762POPS   C2B10964  16.455  17.989   6.769 -0.2847  0.0827  0.1460
  762POPS   C3B10965  16.192  18.213   6.968  0.2622  0.4133  0.0634
  762POPS   C4B10966  16.030  18.250   7.319  0.0423  0.0255  0.0560
  763POPS   CNO10967   6.688   1.907   5.689 -0.1104 -0.0679  0.1955
  763POPS   PO410968   6.295   1.737   5.556 -0.1090 -0.1453 -0.2539
  763POPS   GL110969   6.373   1.624   5.975  0.1534  0.1862  0.1759
  763POPS   GL210970   6.491   1.288   6.068 -0.3186 -0.1309 -0.1459
  763POPS   C1A10971   6.352   1.727   6.359  0.3517 -0.1363 -0.1967
  763POPS   D2A10972   6.110   1.768   6.603 -0.1058  0.1207 -0.1548
  763POPS   C3A10973   5.724   1.559   6.525  0.1834  0.3792  0.4173
  763POPS   C4A10974   5.322   1.468   6.427  0.0851  0.0227 -0.2041
  763POPS   C1B10975   6.232   1.271   6.525 -0.1305  0.0605 -0.0810
  763POPS   C2B10976   6.359   1.073   6.846 -0.1012  0.0397 -0.0416
  763POPS   C3B10977   6.210   0.990   7.275  0.2050  0.0827 -0.1697
  763POPS   C4B10978   5.893   1.056   7.594 -0.1538 -0.4094 -0.2821
  764POPS   CNO10979   2.377  12.030   5.518  0.2422 -0.1504  0.2276
  764POPS   PO410980   2.269  11.944   5.972  0.1116 -0.0167  0.2474
  764POPS   GL110981   2.041  12.034   6.286 -0.2438  0.2540  0.0496
  764POPS   GL210982   1.835  12.402   6.309 -0.0519 -0.0278 -0.0752
  764POPS   C1A10983   2.239  12.246   6.676  0.0238  0.3261  0.0030
  764POPS   D2A10984   2.560  12.415   6.911  0.2157  0.1096 -0.0713
  764POPS   C3A10985   2.733  12.381   7.247 -0.1064 -0.1199 -0.0380
  764POPS   C4A10986   2.787  12.323   7.581 -0.2124 -0.2663 -0.0358
  764POPS   C1B10987   1.773  12.017   6.673  0.0695  0.0639  0.1252
  764POPS   C2B10988   1.793  12.017   6.942  0.0170 -0.1362 -0.2260
  764POPS   C3B10989   1.764  12.059   7.429  0.1813  0.2635 -0.2511
  764POPS   C4B10990   1.860  11.977   7.821 -0.0019  0.1545 -0.1602
  765POPS   CNO10991   8.114   2.131   5.628  0.2094  0.3204  0.2126
  765POPS   PO410992   8.353   1.810   5.417 -0.1562 -0.1260 -0.0364
  765POPS   GL110993   8.526   1.821   5.840  0.0837  0.1541  0.0205
  765POPS   GL210994   8.852   1.842   5.909  0.1990 -0.0374 -0.4281
  765POPS   C1A10995   8.398   1.856   6.255  0.1750 -0.2800  0.0401
  765POPS   D2A10996   8.208   1.850   6.775  0.2744 -0.0191 -0.1146
  765POPS   C3A10997   8.261   2.218   7.063  0.0975 -0.2370  0.3181
  765POPS   C4A10998   8.178   1.982   7.504  0.1262 -0.2160  0.3828
  765POPS   C1B10999   8.853   1.986   6.223 -0.2050 -0.1295  0.1004
  765POPS   C2B11000   9.117   1.917   6.512  0.3720 -0.1560 -0.1926
  765POPS   C3B11001   9.182   1.965   6.857  0.1986 -0.0070  0.0538
  765POPS   C4B11002   9.206   2.070   7.309  0.2047 -0.2316 -0.0357
  766POPS   CNO11003   1.853   0.125   5.551 -0.0552  0.1352 -0.0091
  766POPS   PO411004   1.812  -0.102   5.978 -0.0295  0.3222 -0.1192
  766POPS   GL111005   1.772  -0.281   6.352 -0.3248 -0.0072  0.1258
  766POPS   GL211006   1.725  -0.532   6.393  0.2799 -0.1183 -0.1766
  766POPS   C1A11007   1.534  -0.116   6.664  0.2271  0.0096  0.0566
  766POPS   D2A11008   1.306  -0.029   6.995 -0.2467 -0.2100  0.3283
  766POPS   C3A11009   1.006   0.144   6.897  0.0307 -0.0182 -0.0928
  766POPS   C4A11010   0.772   0.193   6.553 -0.0735  0.0195  0.2319
  766POPS   C1B11011   1.803  -0.622   6.793 -0.0616  0.1678  0.1230
  766POPS   C2B11012   1.779  -0.838   7.253 -0.1592 -0.1050  0.3365
  766POPS   C3B11013   1.694  -1.178   7.460  0.3380 -0.0120 -0.0864
  766POPS   C4B11014   2.070  -1.374   7.679  0.0699  0.1284  0.0021
  767POPS   CNO11015   9.666   3.511   5.343 -0.0478 -0.1589 -0.1155
  767POPS   PO411016  10.069   3.321   5.273  0.1114  0.3160 -0.0784
  767POPS   GL111017   9.979   3.410   5.744 -0.0774  0.0924 -0.0625
  767POPS   GL211018   9.707   3.498   5.978 -0.0731 -0.2504  0.2389
  767POPS   C1A11019  10.167   3.748   6.080  0.1924  0.0808  0.1009
  767POPS   D2A11020  10.572   3.864   6.188 -0.0217 -0.0507 -0.0247
  767POPS   C3A11021  10.720   4.029   6.506 -0.0742 -0.1538 -0.3903
  767POPS   C4A11022  10.997   4.142   6.788  0.1168  0.1217  0.1776
  767POPS   C1B11023   9.529   3.712   6.364 -0.2876  0.1423  0.1447
  767POPS   C2B11024   9.316   3.379   6.599  0.2035  0.4406  0.0182
  767POPS   C3B11025   9.045   3.417   6.919 -0.2093  0.1979  0.2583
  767POPS   C4B11026   8.735   3.673   7.137  0.0043  0.0104 -0.0839
  768POPS   CNO11027   5.270   2.105   5.783 -0.5197  0.0758  0.2313
  768POPS   PO411028   5.409   1.662   5.646  0.0075 -0.0742 -0.1178
  768POPS   GL111029   5.105   1.611   5.964  0.1045 -0.1984  0.1740
  768POPS   GL211030   4.852   1.725   5.779  0.1080  0.1261  0.0668
  768POPS   C1A11031   5.114   1.944   6.368  0.0704  0.1023 -0.0062
  768POPS   D2A11032   5.233   2.215   6.723 -0.0165  0.1737 -0.4640
  768POPS   C3A11033   5.424   2.304   7.141 -0.0213  0.3180  0.1089
  768POPS   C4A11034   5.755   2.349   7.310  0.0950  0.0944  0.3083
  768POPS   C1B11035   4.506   1.591   6.099  0.2549 -0.2747  0.1427
  768POPS   C2B11036   4.631   1.823   6.577 -0.1646 -0.0184 -0.1386
  768POPS   C3B11037   4.782   1.853   6.955  0.1676 -0.5353  0.3364
  768POPS   C4B11038   5.105   1.863   7.328  0.2513  0.1611  0.0952
  769POPS   CNO11039  15.223   5.027   5.796 -0.1507 -0.0832 -0.1070
  769POPS   PO411040  15.641   5.058   5.567 -0.0520 -0.2020 -0.3775
  769POPS   GL111041  15.781   4.899   6.043  0.2188 -0.2269  0.4576
  769POPS   GL211042  15.565   4.763   6.033 -0.0619 -0.4825  0.1426
  769POPS   C1A11043  15.609   4.966   6.500 -0.0766 -0.1683  0.1197
  769POPS   D2A11044  15.256   4.966   6.779 -0.0220  0.0717  0.0058
  769POPS   C3A11045  15.074   4.723   7.040  0.0311  0.0491 -0.0827
  769POPS   C4A11046  15.237   4.484   7.403  0.2391  0.0429 -0.0836
  769POPS   C1B11047  15.167   4.825   6.275 -0.2060 -0.1267  0.0574
  769POPS   C2B11048  14.818   4.832   6.570 -0.0983 -0.0446 -0.1206
  769POPS   C3B11049  14.361   5.060   6.668  0.3485 -0.1074  0.1105
  769POPS   C4B11050  14.084   4.958   6.378  0.3505  0.1008  0.2945
  770POPS   CNO11051  10.840  13.223   5.393  0.0192 -0.0017 -0.1205
  770POPS   PO411052  10.763  12.947   5.692  0.1686 -0.0859  0.0889
  770POPS   GL111053  10.822  13.042   6.182 -0.2946 -0.1764  0.0239
  770POPS   GL211054  10.699  13.267   6.222  0.0928 -0.2624  0.1647
  770POPS   C1A11055  11.182  13.251   6.428 -0.1356 -0.2480  0.0810
  770POPS   D2A11056  11.528  13.206   6.615  0.1309  0.1345 -0.0823
  770POPS   C3A11057  11.636  13.423   6.868  0.0052  0.3667 -0.2234
  770POPS   C4A11058  11.507  13.680   7.283 -0.2399 -0.2083 -0.0906
  770POPS   C1B11059  10.703  13.198   6.719 -0.0233 -0.0626 -0.2351
  770POPS   C2B11060  10.621  13.472   7.119  0.0496 -0.0602 -0.1077
  770POPS   C3B11061  10.629  13.694   7.601  0.0884 -0.2102  0.0433
  770POPS   C4B11062  10.854  13.706   8.062  0.0739 -0.0780 -0.0679
  771POPS   CNO11063  15.352  11.534   5.820  0.0106  0.0754  0.2778
  771POPS   PO411064  14.910  11.752   5.671  0.1180  0.0957  0.0056
  771POPS   GL111065  14.712  11.889   6.029 -0.2317  0.0302  0.0440
  771POPS   GL211066  14.769  12.137   6.340  0.0736  0.0105 -0.0282
  771POPS   C1A11067  14.329  11.957   6.251 -0.0414  0.1130  0.0410
  771POPS   D2A11068  14.029  12.230   6.508  0.0521  0.1707 -0.0255
  771POPS   C3A11069  14.317  12.406   6.924  0.1169  0.2512 -0.3481
  771POPS   C4A11070  14.685  12.585   7.201 -0.2006  0.0158  0.1718
  771POPS   C1B11071  14.552  12.018   6.688 -0.0523  0.1592 -0.2158
  771POPS   C2B11072  14.651  12.059   7.150 -0.0499 -0.1205 -0.2008
  771POPS   C3B11073  14.393  12.213   7.476 -0.1209  0.0896  0.2062
  771POPS   C4B11074  13.973  12.140   7.525  0.3423  0.1185  0.0506
  772POPS   CNO11075  12.766   9.679   5.360  0.0017 -0.1892 -0.2764
  772POPS   PO411076  12.952   9.676   5.688  0.1764 -0.0372 -0.0873
  772POPS   GL111077  13.061   9.977   5.993 -0.1177  0.2809 -0.0123
  772POPS   GL211078  13.040  10.369   5.918  0.1033  0.0679 -0.1364
  772POPS   C1A11079  12.831  10.242   6.359  0.0074 -0.0744 -0.0991
  772POPS   D2A11080  12.825  10.540   6.639 -0.2064  0.1871  0.2723
  772POPS   C3A11081  12.869  10.831   6.883 -0.2716 -0.0651 -0.1939
  772POPS   C4A11082  13.026  10.862   7.233  0.1945  0.2834  0.1770
  772POPS   C1B11083  13.214  10.674   6.023  0.1263 -0.1140 -0.1544
  772POPS   C2B11084  13.454  11.031   6.122 -0.2499  0.0863  0.0112
  772POPS   C3B11085  13.802  11.066   6.069 -0.1107 -0.1564 -0.2010
  772POPS   C4B11086  14.136  10.934   5.928 -0.2987  0.0028 -0.2131
  773POPS   CNO11087  12.626  12.312   5.157  0.1931  0.1215  0.0316
  773POPS   PO411088  12.862  12.087   5.358 -0.2777  0.0537  0.1699
  773POPS   GL111089  12.906  12.164   5.752  0.1322 -0.0557  0.2443
  773POPS   GL211090  13.279  12.259   5.803 -0.0030  0.1705 -0.1488
  773POPS   C1A11091  12.642  12.130   6.068 -0.1302 -0.3213 -0.3733
  773POPS   D2A11092  12.211  12.100   6.220 -0.0384  0.0229 -0.0686
  773POPS   C3A11093  11.932  12.337   6.368  0.4764 -0.2394 -0.0710
  773POPS   C4A11094  11.853  12.162   6.626 -0.0459 -0.2661  0.0669
  773POPS   C1B11095  13.138  12.037   6.220  0.0075  0.0560  0.2073
  773POPS   C2B11096  13.221  11.863   6.670 -0.1539 -0.0966  0.2994
  773POPS   C3B11097  13.494  11.570   6.860  0.0260 -0.4234  0.1796
  773POPS   C4B11098  13.678  11.320   6.490 -0.2085  0.0712  0.3514
  774POPS   CNO11099  12.564  12.815   5.204  0.0740  0.2771 -0.1038
  774POPS   PO411100  12.700  12.932   5.586  0.1517  0.0751 -0.3439
  774POPS   GL111101  12.814  12.777   5.890 -0.0089 -0.1016 -0.0442
  774POPS   GL211102  12.724  12.961   6.086  0.2713 -0.2047  0.1926
  774POPS   C1A11103  13.013  12.648   6.371 -0.3034  0.1779  0.1904
  774POPS   D2A11104  13.042  12.325   6.678 -0.0542  0.1178 -0.1816
  774POPS   C3A11105  13.245  12.258   7.010 -0.1966 -0.1808  0.2786
  774POPS   C4A11106  13.433  12.262   7.433  0.0341  0.0246 -0.0212
  774POPS   C1B11107  12.767  12.978   6.587  0.1827 -0.3626 -0.0498
  774POPS   C2B11108  12.898  12.825   7.012 -0.0130  0.0670  0.0540
  774POPS   C3B11109  13.166  12.687   7.381 -0.1195 -0.0430 -0.2402
  774POPS   C4B11110  13.111  12.564   7.734  0.0628 -0.2417 -0.1554
  775POPS   CNO11111  13.267   7.886   5.593 -0.0375  0.0187 -0.2502
  775POPS   PO411112  13.119   7.465   5.504 -0.2629 -0.0127  0.1630
  775POPS   GL111113  13.042   7.348   5.864  0.0208  0.2837 -0.0986
  775POPS   GL211114  12.723   7.347   6.047 -0.2038  0.1182 -0.0508
  775POPS   C1A11115  13.164   7.168   6.202 -0.0243 -0.4473 -0.2380
  775POPS   D2A11116  13.111   7.195   6.626  0.0860 -0.2094 -0.1897
  775POPS   C3A11117  12.859   6.886   6.744 -0.2366 -0.1098  0.4667
  775POPS   C4A11118  12.765   6.667   7.080 -0.0051 -0.0783 -0.0155
  775POPS   C1B11119  12.691   6.970   6.254 -0.1254 -0.1938  0.0963
  775POPS   C2B11120  12.334   6.669   6.503  0.1800 -0.1509 -0.2504
  775POPS   C3B11121  12.013   6.434   6.442 -0.2746 -0.3368  0.3221
  775POPS   C4B11122  11.957   5.991   6.516  0.0312 -0.1720 -0.1777
  776POPS   CNO11123  11.334   9.459   5.554 -0.0587  0.1740  0.0344
  776POPS   PO411124  11.310   9.363   6.002  0.1251 -0.0085 -0.0076
  776POPS   GL111125  11.596   9.275   6.267 -0.0876  0.0414 -0.0629
  776POPS   GL211126  11.565   9.053   6.334 -0.0492  0.1519 -0.0228
  776POPS   C1A11127  11.889   9.549   6.569 -0.1378  0.2561 -0.0561
  776POPS   D2A11128  11.749   9.859   6.858 -0.0601 -0.1637  0.1815
  776POPS   C3A11129  11.677  10.207   7.242 -0.0766  0.2138 -0.1375
  776POPS   C4A11130  11.295  10.470   7.150 -0.0949 -0.1080  0.2244
  776POPS   C1B11131  11.604   8.959   6.736  0.1052 -0.0220  0.2029
  776POPS   C2B11132  11.438   8.700   7.041  0.4033 -0.0941 -0.4214
  776POPS   C3B11133  11.426   8.412   7.350  0.1651 -0.2424 -0.3204
  776POPS   C4B11134  11.272   8.065   7.556 -0.1180  0.3224  0.0302
  777POPS   CNO11135  15.288  16.128   5.208 -0.0890  0.2205  0.0851
  777POPS   PO411136  15.664  16.150   5.490 -0.1242  0.2898 -0.0088
  777POPS   GL111137  15.507  16.269   5.824  0.0670 -0.0225  0.1200
  777POPS   GL211138  15.460  16.611   5.961 -0.2371  0.0294  0.1419
  777POPS   C1A11139  15.476  16.114   6.236 -0.0533  0.0848  0.2927
  777POPS   D2A11140  15.269  16.144   6.742  0.0520 -0.0131 -0.1061
  777POPS   C3A11141  15.339  16.563   6.920  0.1011  0.0027  0.0136
  777POPS   C4A11142  15.691  16.769   7.073  0.0080  0.0636 -0.0224
  777POPS   C1B11143  15.359  16.661   6.387 -0.0792  0.0407  0.0849
  777POPS   C2B11144  15.049  16.784   6.554 -0.3019 -0.2300 -0.0920
  777POPS   C3B11145  14.923  17.027   6.971 -0.4060 -0.1150 -0.0320
  777POPS   C4B11146  15.269  17.272   7.238  0.1696 -0.2848  0.2241
  778POPS   CNO11147   6.467  17.852   5.179  0.2326  0.0143 -0.0292
  778POPS   PO411148   6.844  17.779   5.497 -0.0436  0.1028 -0.2586
  778POPS   GL111149   6.995  17.609   5.889  0.2626  0.2068  0.2176
  778POPS   GL211150   6.768  17.469   5.954  0.1158  0.0497 -0.0456
  778POPS   C1A11151   7.243  17.831   6.172  0.0762 -0.0462 -0.3747
  778POPS   D2A11152   7.563  17.828   6.507 -0.0265 -0.2807  0.1445
  778POPS   C3A11153   7.500  17.669   6.923  0.0649  0.0417  0.5569
  778POPS   C4A11154   7.220  17.500   7.205  0.2035 -0.0862  0.3258
  778POPS   C1B11155   6.878  17.512   6.354  0.1842 -0.1117  0.0208
  778POPS   C2B11156   7.028  17.747   6.706 -0.0733 -0.0853 -0.1082
  778POPS   C3B11157   6.921  18.005   7.036 -0.0715  0.0279  0.2865
  778POPS   C4B11158   6.719  18.310   7.347  0.1221  0.3363  0.1679
  779POPS   CNO11159   6.358  18.626   5.686  0.1122 -0.3003  0.1933
  779POPS   PO411160   5.907  18.597   5.754  0.3263 -0.0864  0.2397
  779POPS   GL111161   6.086  18.364   6.063 -0.0966 -0.1084  0.0687
  779POPS   GL211162   6.458  18.398   6.151 -0.2189 -0.2160 -0.0229
  779POPS   C1A11163   5.889  18.090   6.423  0.1022  0.2425 -0.0813
  779POPS   D2A11164   5.916  18.082   6.878 -0.1052 -0.0530 -0.1432
  779POPS   C3A11165   5.913  17.786   7.200  0.1856 -0.0406  0.2015
  779POPS   C4A11166   5.906  17.546   7.567  0.1145 -0.2557  0.1331
  779POPS   C1B11167   6.246  18.389   6.614 -0.1292  0.0826  0.0355
  779POPS   C2B11168   6.329  18.325   6.974  0.0271 -0.0676 -0.0851
  779POPS   C3B11169   6.125  18.241   7.346  0.1988  0.2839 -0.0281
  779POPS   C4B11170   5.861  18.217   7.684 -0.0558  0.0261  0.2647
  780POPS   CNO11171   3.798   8.728   5.606 -0.1346 -0.0817  0.0529
  780POPS   PO411172   3.975   8.982   5.998  0.0806  0.0464 -0.2341
  780POPS   GL111173   4.119   9.430   6.251  0.1896 -0.3695  0.1297
  780POPS   GL211174   3.965   9.744   6.474  0.1227 -0.4235  0.1087
  780POPS   C1A11175   4.377   9.468   6.617  0.3340 -0.2101 -0.3226
  780POPS   D2A11176   4.492   9.416   7.067 -0.1467  0.0961  0.0202
  780POPS   C3A11177   4.454   9.184   7.469  0.2007 -0.1707 -0.2014
  780POPS   C4A11178   4.806   9.119   7.736  0.1660 -0.0839  0.1317
  780POPS   C1B11179   4.040   9.760   6.875  0.1308 -0.0189 -0.2656
  780POPS   C2B11180   4.096   9.790   7.283 -0.1716  0.0595 -0.0261
  780POPS   C3B11181   4.118   9.550   7.605  0.0719 -0.1507 -0.1455
  780POPS   C4B11182   3.885   9.417   7.950 -0.1933  0.0386 -0.4971
  781POPS   CNO11183   3.752  13.749   4.975 -0.0413  0.0667 -0.1430
  781POPS   PO411184   3.556  13.538   5.406  0.0653 -0.1575 -0.0035
  781POPS   GL111185   3.649  13.611   5.884  0.4631 -0.2119 -0.1806
  781POPS   GL211186   4.011  13.701   5.998  0.0630 -0.1092  0.1079
  781POPS   C1A11187   3.415  13.779   6.282  0.1152  0.1686  0.0234
  781POPS   D2A11188   3.244  13.587   6.606 -0.0873 -0.2493 -0.1222
  781POPS   C3A11189   3.332  13.742   6.944  0.1552 -0.0556 -0.1371
  781POPS   C4A11190   3.146  13.965   7.296 -0.1541  0.1130 -0.1027
  781POPS   C1B11191   3.951  13.847   6.490  0.0817 -0.0896 -0.0099
  781POPS   C2B11192   3.689  14.001   6.711  0.0550 -0.1687 -0.0833
  781POPS   C3B11193   3.567  14.254   7.140  0.1459 -0.2508  0.0124
  781POPS   C4B11194   3.688  14.599   7.403  0.0632  0.1368 -0.1119
  782POPS   CNO11195   5.050  15.014   4.762 -0.0291 -0.2661 -0.1471
  782POPS   PO411196   5.017  14.967   5.286  0.1324  0.0998 -0.4536
  782POPS   GL111197   5.081  15.039   5.815  0.2377 -0.3121 -0.2086
  782POPS   GL211198   5.007  14.727   5.828 -0.3218 -0.2909  0.1062
  782POPS   C1A11199   5.348  15.334   5.967 -0.2687  0.1480  0.0467
  782POPS   D2A11200   5.360  15.551   6.222 -0.1163  0.1506  0.2577
  782POPS   C3A11201   5.359  15.512   6.719  0.0060 -0.0822  0.2036
  782POPS   C4A11202   5.158  15.300   6.996 -0.0815 -0.0415  0.1000
  782POPS   C1B11203   4.878  14.698   6.285  0.0485 -0.1246  0.3086
  782POPS   C2B11204   4.583  14.943   6.568  0.4307  0.0608  0.1505
  782POPS   C3B11205   4.254  14.890   6.781 -0.1800 -0.0428  0.1324
  782POPS   C4B11206   4.027  14.463   6.790  0.2509 -0.2024  0.0018
  783POPS   CNO11207   9.430  13.823   5.453  0.2346 -0.0359  0.3027
  783POPS   PO411208   9.731  13.431   5.394  0.1317 -0.1734  0.0562
  783POPS   GL111209   9.578  13.602   5.874  0.1471 -0.2629 -0.1437
  783POPS   GL211210   9.282  13.740   5.958  0.0458  0.1276 -0.0658
  783POPS   C1A11211   9.708  13.652   6.338  0.1962 -0.1678 -0.2085
  783POPS   D2A11212   9.822  13.481   6.648 -0.0187 -0.0409 -0.3791
  783POPS   C3A11213  10.283  13.564   6.786 -0.2597  0.0472 -0.0104
  783POPS   C4A11214  10.432  13.979   6.880 -0.1085  0.0719 -0.1232
  783POPS   C1B11215   9.211  13.883   6.330  0.1183  0.0075 -0.0258
  783POPS   C2B11216   9.514  13.871   6.702  0.3310 -0.3062  0.0242
  783POPS   C3B11217   9.777  13.911   7.022 -0.4761  0.2479  0.3137
  783POPS   C4B11218  10.068  13.876   7.275  0.2359 -0.2342  0.2195
  784POPS   CNO11219   5.722  14.243   5.315  0.1011 -0.0437 -0.2264
  784POPS   PO411220   6.098  14.422   5.433 -0.2645  0.3352  0.4466
  784POPS   GL111221   6.070  14.540   5.914  0.4187  0.1076  0.0537
  784POPS   GL211222   6.097  14.864   6.141 -0.0631 -0.1830 -0.0854
  784POPS   C1A11223   5.800  14.388   6.143 -0.1055  0.0189  0.0912
  784POPS   D2A11224   5.664  14.018   6.451  0.1078  0.1167  0.1757
  784POPS   C3A11225   5.925  13.687   6.342  0.3811  0.3678  0.1848
  784POPS   C4A11226   6.188  13.671   6.691 -0.0908  0.0166  0.4309
  784POPS   C1B11227   5.898  14.698   6.529 -0.0328  0.0661  0.3115
  784POPS   C2B11228   6.223  14.484   6.904  0.2143 -0.2351 -0.0190
  784POPS   C3B11229   6.452  14.437   7.262 -0.1144 -0.1182 -0.0557
  784POPS   C4B11230   6.678  14.436   7.592  0.0622  0.2177 -0.2632
  785POPS   CNO11231   1.779   0.456   5.973  0.0712 -0.0929 -0.1823
  785POPS   PO411232   1.731   0.851   5.779  0.0646 -0.1015  0.1249
  785POPS   GL111233   1.507   0.992   6.082 -0.1125  0.3677  0.3275
  785POPS   GL211234   1.289   1.232   6.140 -0.0934 -0.1202  0.0581
  785POPS   C1A11235   1.429   0.796   6.456  0.1400 -0.0381 -0.1354
  785POPS   D2A11236   1.286   0.859   6.822 -0.1520  0.0981  0.1400
  785POPS   C3A11237   1.506   1.154   7.018  0.2160 -0.0394  0.0599
  785POPS   C4A11238   1.432   1.208   7.479 -0.1234 -0.2729 -0.2931
  785POPS   C1B11239   1.578   1.276   6.505  0.2213  0.1149 -0.4137
  785POPS   C2B11240   1.686   1.555   6.770  0.2816 -0.2392 -0.0094
  785POPS   C3B11241   2.112   1.772   7.020 -0.0868  0.1117  0.2014
  785POPS   C4B11242   2.345   2.085   7.322  0.1773 -0.3075 -0.0608
  786POPS   CNO11243   0.737  10.553   5.199 -0.0432  0.1977  0.0574
  786POPS   PO411244   0.882  10.834   5.434 -0.4119 -0.1147 -0.2015
  786POPS   GL111245   0.872  10.772   5.906  0.1165  0.0033  0.0522
  786POPS   GL211246   0.983  10.771   6.225 -0.0293  0.1170  0.2019
  786POPS   C1A11247   0.497  10.984   6.203  0.2066 -0.0395 -0.0723
  786POPS   D2A11248   0.294  11.065   6.486 -0.4038 -0.0335 -0.0761
  786POPS   C3A11249   0.489  11.297   6.785 -0.2275 -0.4076 -0.3771
  786POPS   C4A11250   0.683  11.598   7.026 -0.0738  0.2863  0.4568
  786POPS   C1B11251   0.790  10.829   6.676 -0.0328 -0.1541 -0.3165
  786POPS   C2B11252   0.859  11.063   7.036 -0.0173 -0.2314  0.1074
  786POPS   C3B11253   0.441  11.222   7.261  0.0787 -0.0221  0.0178
  786POPS   C4B11254   0.280  11.442   7.600 -0.0142 -0.0038 -0.0945
  787POPS   CNO11255   4.081  13.402   5.649 -0.0982  0.0962  0.4956
  787POPS   PO411256   4.408  13.500   5.456 -0.0799 -0.1726  0.2779
  787POPS   GL111257   4.506  13.586   5.858 -0.0768  0.4472 -0.2499
  787POPS   GL211258   4.349  13.402   6.240  0.1352 -0.0530  0.1100
  787POPS   C1A11259   4.459  13.920   6.045 -0.1959  0.0312 -0.1020
  787POPS   D2A11260   4.626  14.331   5.972  0.0171 -0.0872  0.0178
  787POPS   C3A11261   4.458  14.835   5.986 -0.1900  0.2305  0.1408
  787POPS   C4A11262   4.370  15.119   6.120  0.0089  0.0113  0.1455
  787POPS   C1B11263   4.401  13.571   6.513 -0.1959 -0.1913 -0.0962
  787POPS   C2B11264   4.537  13.553   6.976 -0.2422 -0.1202  0.0552
  787POPS   C3B11265   4.766  13.486   7.256 -0.0176 -0.2502 -0.1611
  787POPS   C4B11266   5.143  13.630   7.362  0.0616 -0.1336  0.2778
  788POPS   CNO11267  16.437  18.606   5.112 -0.3734 -0.0146 -0.1754
  788POPS   PO411268  16.105  18.618   5.286 -0.1218  0.2758 -0.1601
  788POPS   GL111269  15.773  18.635   5.630  0.1857 -0.0881 -0.1624
  788POPS   GL211270  15.527  18.751   5.574  0.2265  0.0964  0.0700
  788POPS   C1A11271  15.485  18.693   6.016 -0.0108  0.0482  0.0860
  788POPS   D2A11272  15.362  18.794   6.462 -0.0987 -0.1076  0.3796
  788POPS   C3A11273  15.381  19.255   6.584 -0.1936 -0.0924  0.0002
  788POPS   C4A11274  15.330  19.627   6.641 -0.1208  0.0296  0.0671
  788POPS   C1B11275  15.166  18.981   5.689  0.2035  0.0059  0.0384
  788POPS   C2B11276  14.871  18.994   6.082  0.2348  0.0719 -0.4280
  788POPS   C3B11277  14.452  19.116   6.291 -0.2409  0.2200  0.1404
  788POPS   C4B11278  14.267  18.989   6.655  0.1069  0.1660 -0.2608
  789POPS   CNO11279   6.743   4.401   5.308  0.2791 -0.1015  0.0044
  789POPS   PO411280   6.972   4.285   5.653 -0.0130  0.3075 -0.2716
  789POPS   GL111281   7.073   4.432   6.124  0.1004 -0.1286  0.2404
  789POPS   GL211282   6.762   4.676   6.169  0.0872 -0.0619 -0.0213
  789POPS   C1A11283   7.164   4.798   6.419  0.0893  0.0523  0.1530
  789POPS   D2A11284   7.221   5.119   6.793 -0.1919 -0.3894  0.2724
  789POPS   C3A11285   7.106   5.113   7.162  0.1767 -0.0242  0.1307
  789POPS   C4A11286   6.869   5.411   7.432 -0.0183  0.0141 -0.2108
  789POPS   C1B11287   6.630   4.942   6.512  0.0195  0.4509  0.1141
  789POPS   C2B11288   6.884   4.784   6.887 -0.2042 -0.1191  0.0334
  789POPS   C3B11289   6.840   4.659   7.316 -0.0090  0.0804 -0.0028
  789POPS   C4B11290   6.803   4.642   7.763 -0.0211  0.2077  0.1185
  790POPS   CNO11291  13.530   6.430   5.812  0.0061  0.0741  0.0931
  790POPS   PO411292  13.112   6.319   5.460  0.1165 -0.0583 -0.1515
  790POPS   GL111293  13.006   6.390   5.851  0.0691 -0.1590 -0.0712
  790POPS   GL211294  13.150   6.698   6.085 -0.1082 -0.2126 -0.0620
  790POPS   C1A11295  12.773   6.486   6.301  0.2732 -0.0497 -0.3527
  790POPS   D2A11296  12.872   6.295   6.763 -0.0408  0.1197  0.1872
  790POPS   C3A11297  12.931   6.267   7.243  0.1444  0.0268  0.0824
  790POPS   C4A11298  13.169   6.465   7.591  0.0042 -0.0468  0.0595
  790POPS   C1B11299  13.224   6.568   6.530  0.0111 -0.2668 -0.2474
  790POPS   C2B11300  13.278   6.761   6.956  0.0185  0.1906 -0.1437
  790POPS   C3B11301  13.090   6.900   7.356 -0.0978 -0.0290  0.3849
  790POPS   C4B11302  13.012   6.871   7.800 -0.1316 -0.4910  0.2164
  791POPS   CNO11303   3.598   8.632   6.090 -0.2205 -0.0988 -0.1484
  791POPS   PO411304   3.827   8.276   6.056  0.1086 -0.0873 -0.1128
  791POPS   GL111305   4.074   8.175   6.434  0.1069 -0.0873 -0.1512
  791POPS   GL211306   4.381   8.039   6.379  0.3049  0.1783 -0.1725
  791POPS   C1A11307   4.421   8.409   6.688 -0.2498 -0.0962  0.0636
  791POPS   D2A11308   4.757   8.468   6.991 -0.1891  0.2508  0.0025
  791POPS   C3A11309   4.711   8.630   7.487 -0.2301  0.5005 -0.4030
  791POPS   C4A11310   4.511   8.733   7.898 -0.1175  0.2902  0.1144
  791POPS   C1B11311   4.391   7.911   6.735  0.0321  0.0901  0.1016
  791POPS   C2B11312   4.443   7.675   7.006 -0.1951 -0.0642  0.0424
  791POPS   C3B11313   4.676   7.432   7.319  0.0243 -0.0245 -0.3072
  791POPS   C4B11314   4.478   7.116   7.633 -0.1841  0.0452 -0.1665
  792POPS   CNO11315   5.838   0.717   5.204 -0.2956  0.0485 -0.0757
  792POPS   PO411316   5.924   0.837   5.597  0.0570  0.0012 -0.0012
  792POPS   GL111317   6.139   0.844   6.037  0.0616 -0.0037 -0.0760
  792POPS   GL211318   5.891   0.899   6.151 -0.0601 -0.4372  0.0678
  792POPS   C1A11319   6.195   0.670   6.510  0.0943 -0.0223 -0.3381
  792POPS   D2A11320   6.137   0.535   6.882  0.1308 -0.0215 -0.0657
  792POPS   C3A11321   5.957   0.476   7.277  0.0684 -0.2193  0.1503
  792POPS   C4A11322   5.849   0.617   7.689  0.1135  0.1811  0.1569
  792POPS   C1B11323   5.816   0.979   6.579  0.1550  0.2976 -0.1133
  792POPS   C2B11324   5.742   0.873   7.034 -0.3297 -0.1440 -0.1486
  792POPS   C3B11325   5.515   0.796   7.357  0.1507 -0.0364 -0.1071
  792POPS   C4B11326   5.317   0.505   7.793 -0.0614  0.0485  0.0790
  793POPS   CNO11327   2.562  13.930   6.044  0.0272 -0.0510  0.1450
  793POPS   PO411328   2.771  13.527   5.915  0.0503 -0.0489  0.0884
  793POPS   GL111329   3.024  13.271   6.213  0.0496 -0.3391  0.0364
  793POPS   GL211330   3.391  13.127   6.123  0.1631 -0.0026 -0.1686
  793POPS   C1A11331   3.179  13.057   6.606  0.4510  0.2180  0.0295
  793POPS   D2A11332   3.351  12.855   6.984  0.0741 -0.2836 -0.0029
  793POPS   C3A11333   3.363  13.082   7.272 -0.0032 -0.1174 -0.1723
  793POPS   C4A11334   3.247  13.417   7.512  0.3121 -0.0032  0.2047
  793POPS   C1B11335   3.569  12.783   6.503 -0.1024 -0.2454 -0.1173
  793POPS   C2B11336   3.809  12.824   6.866 -0.1002  0.3102  0.3917
  793POPS   C3B11337   3.879  12.891   7.271 -0.1072  0.2339 -0.1707
  793POPS   C4B11338   4.063  12.993   7.790  0.0917 -0.1345  0.1698
  794POPS   CNO11339   0.273  13.266   5.365  0.2206  0.1977  0.1486
  794POPS   PO411340  -0.122  13.517   5.640  0.1831 -0.5233  0.3614
  794POPS   GL111341  -0.191  13.430   6.028 -0.2684  0.0320 -0.0922
  794POPS   GL211342  -0.283  13.073   6.176  0.0909  0.0738 -0.0559
  794POPS   C1A11343  -0.132  13.410   6.507  0.1715 -0.0223 -0.1992
  794POPS   D2A11344  -0.366  13.540   6.872 -0.1603  0.1055  0.0064
  794POPS   C3A11345  -0.321  13.585   7.406  0.0534 -0.1771 -0.0201
  794POPS   C4A11346  -0.116  13.948   7.663 -0.0540  0.2031 -0.1443
  794POPS   C1B11347  -0.522  13.105   6.587 -0.2856  0.0079 -0.1449
  794POPS   C2B11348  -0.520  12.985   7.011 -0.6123 -0.0977 -0.0811
  794POPS   C3B11349  -0.234  12.741   7.271 -0.1781 -0.0508  0.1152
  794POPS   C4B11350  -0.393  12.630   7.662  0.1827  0.2514  0.0470
  795POPS   CNO11351   6.492  10.291   6.125  0.0286  0.1066  0.2243
  795POPS   PO411352   6.428  10.654   6.039 -0.2316  0.1494  0.2279
  795POPS   GL111353   6.530  10.689   6.473 -0.1406  0.2910 -0.0206
  795POPS   GL211354   6.789  10.880   6.294  0.1158 -0.3877 -0.0538
  795POPS   C1A11355   6.277  10.716   6.831 -0.0188 -0.2018 -0.1979
  795POPS   D2A11356   5.886  10.672   7.102  0.0977 -0.1977 -0.1166
  795POPS   C3A11357   5.876  10.436   7.539 -0.0673 -0.0139  0.1657
  795POPS   C4A11358   5.555  10.120   7.570 -0.0848 -0.0500 -0.2710
  795POPS   C1B11359   6.955  10.941   6.692  0.2986  0.0195 -0.0592
  795POPS   C2B11360   6.754  11.063   7.012 -0.0925 -0.0704 -0.0417
  795POPS   C3B11361   6.684  11.190   7.392  0.0729 -0.0202  0.0769
  795POPS   C4B11362   6.807  11.612   7.493  0.2921 -0.1569  0.2436
  796POPS   CNO11363  12.617  17.062   4.615  0.0590 -0.1621  0.2349
  796POPS   PO411364  12.857  17.184   5.011 -0.0046 -0.0202 -0.0437
  796POPS   GL111365  12.890  16.958   5.400  0.0761 -0.0062 -0.0525
  796POPS   GL211366  13.010  16.662   5.457 -0.0193 -0.0070 -0.1678
  796POPS   C1A11367  12.773  17.040   5.725 -0.2309 -0.1263  0.2036
  796POPS   D2A11368  12.727  17.121   6.215  0.0882  0.0586 -0.3208
  796POPS   C3A11369  12.733  17.432   6.432  0.0123  0.1048 -0.0714
  796POPS   C4A11370  12.719  17.863   6.490  0.0392 -0.2031 -0.0776
  796POPS   C1B11371  13.440  16.409   5.646 -0.0173 -0.3378 -0.0137
  796POPS   C2B11372  13.559  16.063   5.808 -0.3368  0.0381  0.1918
  796POPS   C3B11373  13.531  15.939   6.316 -0.1278  0.0160 -0.3354
  796POPS   C4B11374  13.407  16.035   6.687  0.0652 -0.2254  0.0082
  797POPS   CNO11375  11.569   3.409   5.535 -0.0803 -0.1106 -0.2703
  797POPS   PO411376  11.882   3.382   5.772 -0.0681 -0.0413 -0.2270
  797POPS   GL111377  11.922   3.401   6.173  0.0594  0.1360  0.0372
  797POPS   GL211378  11.824   3.664   6.446 -0.1797  0.1582  0.1331
  797POPS   C1A11379  11.857   3.175   6.547 -0.1694 -0.1176  0.0216
  797POPS   D2A11380  11.857   3.109   6.954  0.0483 -0.0616  0.1171
  797POPS   C3A11381  12.010   3.389   7.229 -0.3634  0.2156 -0.0517
  797POPS   C4A11382  11.895   3.419   7.559 -0.1154 -0.0385 -0.1247
  797POPS   C1B11383  11.932   3.829   6.929 -0.1409  0.1988  0.1238
  797POPS   C2B11384  11.789   3.857   7.296 -0.0919  0.1997  0.4433
  797POPS   C3B11385  11.530   4.094   7.589  0.2658  0.4380  0.2132
  797POPS   C4B11386  11.378   4.442   7.602  0.2579  0.1086  0.0575
  798POPS   CNO11387  16.771   4.973   5.603 -0.0766 -0.1172  0.0152
  798POPS   PO411388  16.607   5.072   5.942 -0.0458  0.0197  0.2574
  798POPS   GL111389  16.725   5.060   6.298 -0.0548  0.2379 -0.0735
  798POPS   GL211390  16.812   5.335   6.418  0.1315  0.0301 -0.1141
  798POPS   C1A11391  16.784   4.907   6.678  0.0099 -0.0858 -0.1120
  798POPS   D2A11392  16.640   4.943   7.115 -0.0128  0.3488 -0.0058
  798POPS   C3A11393  16.749   5.269   7.465 -0.0533 -0.0717 -0.0350
  798POPS   C4A11394  16.484   5.364   7.771 -0.1249  0.3077 -0.1389
  798POPS   C1B11395  17.253   5.123   6.556  0.4123 -0.0673 -0.2513
  798POPS   C2B11396  17.589   4.915   6.737  0.0303 -0.0666 -0.1897
  798POPS   C3B11397  17.770   4.885   7.037  0.0298  0.2489 -0.0938
  798POPS   C4B11398  18.038   5.066   7.450 -0.0052 -0.0369 -0.0540
  799POPS   CNO11399   3.017  11.815   5.479 -0.2332 -0.1825  0.0653
  799POPS   PO411400   3.124  11.461   5.801  0.3510 -0.1731 -0.1059
  799POPS   GL111401   3.031  11.385   6.156 -0.1836  0.0177 -0.0366
  799POPS   GL211402   3.315  11.392   6.268  0.0418 -0.1336  0.0157
  799POPS   C1A11403   2.885  11.379   6.569 -0.3309 -0.0657  0.0827
  799POPS   D2A11404   3.020  11.439   7.013  0.0142  0.0097  0.1188
  799POPS   C3A11405   2.692  11.394   7.382 -0.1278 -0.0760 -0.2357
  799POPS   C4A11406   2.489  11.385   7.818  0.1840 -0.3718 -0.1625
  799POPS   C1B11407   3.346  11.641   6.702 -0.2384  0.1117 -0.4514
  799POPS   C2B11408   3.388  11.857   7.047 -0.2518 -0.0076 -0.0025
  799POPS   C3B11409   3.716  11.851   7.379 -0.0663 -0.0117  0.0865
  799POPS   C4B11410   3.903  11.910   7.753 -0.0402 -0.0367  0.0847
  800POPS   CNO11411   8.967  17.145   5.191  0.2061  0.2805 -0.1427
  800POPS   PO411412   8.973  17.537   5.496  0.0545 -0.1850 -0.2128
  800POPS   GL111413   9.135  17.340   5.876 -0.1606 -0.1469 -0.4228
  800POPS   GL211414   8.936  17.267   6.052  0.2455 -0.0351  0.0707
  800POPS   C1A11415   9.203  17.090   6.375 -0.0238  0.2826  0.0556
  800POPS   D2A11416   9.237  16.978   6.827 -0.1162 -0.1713 -0.0392
  800POPS   C3A11417   9.517  16.949   7.198  0.1370  0.1717  0.1095
  800POPS   C4A11418   9.809  17.199   7.437  0.0359  0.0388 -0.0498
  800POPS   C1B11419   8.681  17.192   6.392  0.0845  0.0775  0.2360
  800POPS   C2B11420   8.286  17.441   6.585 -0.1601 -0.2525  0.0110
  800POPS   C3B11421   8.030  17.728   6.786  0.1334  0.0457 -0.1597
  800POPS   C4B11422   7.841  18.012   7.129  0.5307  0.0159 -0.1241
  801POPS   CNO11423  13.836   2.111   4.827  0.2852 -0.1814  0.0881
  801POPS   PO411424  13.641   2.121   5.244 -0.2696 -0.1822 -0.1546
  801POPS   GL111425  13.824   2.043   5.643  0.0328 -0.0225  0.1041
  801POPS   GL211426  13.506   2.232   5.674  0.1509  0.2966 -0.5733
  801POPS   C1A11427  14.215   1.955   5.921 -0.3753 -0.0720  0.0114
  801POPS   D2A11428  14.458   1.553   6.221 -0.1249  0.1991  0.1521
  801POPS   C3A11429  14.460   1.523   6.649  0.0141  0.1619  0.1296
  801POPS   C4A11430  14.316   1.435   7.044  0.0080  0.3304 -0.0152
  801POPS   C1B11431  13.572   1.960   6.071  0.0697 -0.0804  0.0894
  801POPS   C2B11432  13.551   1.758   6.466 -0.0932 -0.1308 -0.3087
  801POPS   C3B11433  13.776   1.401   6.618  0.1098  0.0519  0.0836
  801POPS   C4B11434  14.046   1.202   6.494  0.2871  0.1106  0.2201
  802POPS   CNO11435  15.316   2.551   5.669 -0.3081  0.2686 -0.0964
  802POPS   PO411436  15.543   2.236   5.363 -0.1252  0.2232 -0.0764
  802POPS   GL111437  15.370   1.916   5.627  0.4533  0.0529  0.1569
  802POPS   GL211438  15.137   1.677   5.637  0.2543  0.1129 -0.0983
  802POPS   C1A11439  15.358   1.738   6.120 -0.0820 -0.0556  0.3016
  802POPS   D2A11440  15.300   1.488   6.385 -0.1391  0.4029 -0.1171
  802POPS   C3A11441  15.521   1.413   6.848 -0.1514  0.0486 -0.3689
  802POPS   C4A11442  15.595   1.501   7.229 -0.1365  0.1843  0.3165
  802POPS   C1B11443  15.138   1.357   5.894  0.3220 -0.0765  0.0249
  802POPS   C2B11444  14.823   1.228   6.158  0.1043 -0.4357 -0.0129
  802POPS   C3B11445  14.866   1.257   6.510 -0.1164 -0.0470 -0.5422
  802POPS   C4B11446  14.994   1.265   6.916 -0.1645 -0.1230  0.1152
  803POPS   CNO11447   2.663  11.045   5.770 -0.0421  0.2852 -0.0889
  803POPS   PO411448   2.466  10.748   5.998  0.2953 -0.1269  0.0307
  803POPS   GL111449   2.424  10.751   6.422 -0.0690 -0.0279 -0.2560
  803POPS   GL211450   2.487  11.085   6.538  0.2657  0.2366  0.0132
  803POPS   C1A11451   2.500  10.613   6.740 -0.0236 -0.0015 -0.1753
  803POPS   D2A11452   2.729  10.430   7.081  0.1607 -0.2573 -0.1472
  803POPS   C3A11453   2.587  10.703   7.361 -0.1080  0.5127  0.2479
  803POPS   C4A11454   2.628  10.946   7.719  0.1662 -0.1314  0.3281
  803POPS   C1B11455   2.516  11.140   6.967 -0.0360 -0.0402 -0.2248
  803POPS   C2B11456   2.196  11.186   7.420  0.1234 -0.1957  0.0822
  803POPS   C3B11457   2.005  11.068   7.795  0.4607 -0.3078  0.2364
  803POPS   C4B11458   1.509  10.998   8.035  0.1078  0.0829 -0.1323
  804POPS   CNO11459  11.215   3.658   5.245 -0.0502  0.1456 -0.0980
  804POPS   PO411460  11.101   3.912   5.520 -0.2021  0.0541 -0.0249
  804POPS   GL111461  11.044   4.093   6.001  0.1521 -0.0297  0.0897
  804POPS   GL211462  11.019   3.744   6.057 -0.1243 -0.1555  0.0003
  804POPS   C1A11463  11.234   4.091   6.394  0.2352  0.1014  0.2293
  804POPS   D2A11464  11.466   4.103   6.820 -0.1074 -0.1471  0.0079
  804POPS   C3A11465  11.252   3.962   7.168 -0.0609 -0.2886 -0.2569
  804POPS   C4A11466  10.894   3.798   7.453 -0.0975  0.0915  0.1048
  804POPS   C1B11467  10.884   3.586   6.541 -0.1866  0.0117 -0.0045
  804POPS   C2B11468  10.793   3.645   6.907 -0.0337 -0.1306  0.2565
  804POPS   C3B11469  10.431   3.667   7.159  0.0723 -0.0258 -0.1346
  804POPS   C4B11470   9.997   3.831   7.150  0.0372  0.1404  0.1800
  805POPS   CNO11471  15.265  16.945   5.038  0.2036  0.1110 -0.3605
  805POPS   PO411472  15.115  16.627   5.111 -0.0012  0.0572 -0.0637
  805POPS   GL111473  15.016  16.622   5.624 -0.0406  0.0684 -0.2380
  805POPS   GL211474  15.059  16.275   5.665 -0.1384 -0.2166 -0.3084
  805POPS   C1A11475  14.892  16.852   6.113 -0.2525  0.0788  0.2115
  805POPS   D2A11476  14.675  17.122   6.317  0.0709  0.0953  0.1846
  805POPS   C3A11477  14.564  16.933   6.678 -0.0061 -0.1619  0.1207
  805POPS   C4A11478  14.402  16.955   7.102 -0.1010 -0.1482 -0.0512
  805POPS   C1B11479  15.000  16.375   6.104  0.3650 -0.0365 -0.3790
  805POPS   C2B11480  14.863  16.336   6.405  0.0632  0.2205 -0.0943
  805POPS   C3B11481  14.667  16.436   6.654 -0.0514 -0.1723  0.2185
  805POPS   C4B11482  14.760  16.604   7.094 -0.2735  0.1064 -0.3747
  806POPS   CNO11483   1.950  17.458   5.377  0.2931 -0.0042  0.0001
  806POPS   PO411484   2.026  17.602   5.842 -0.4017 -0.0702 -0.0219
  806POPS   GL111485   1.755  17.659   6.114  0.0833 -0.2375 -0.0563
  806POPS   GL211486   1.991  17.692   6.394  0.3153  0.1555  0.0487
  806POPS   C1A11487   1.550  17.613   6.567  0.4115 -0.2790 -0.2024
  806POPS   D2A11488   1.435  17.449   6.915 -0.3483 -0.1952 -0.0214
  806POPS   C3A11489   0.917  17.460   7.038  0.0371  0.1361 -0.1734
  806POPS   C4A11490   0.524  17.356   7.361  0.1510 -0.2783 -0.2360
  806POPS   C1B11491   1.935  17.502   6.828 -0.2259  0.1143 -0.3398
  806POPS   C2B11492   2.187  17.513   7.199  0.1977  0.1137  0.0330
  806POPS   C3B11493   2.526  17.328   7.308 -0.2715  0.2360 -0.1176
  806POPS   C4B11494   2.852  17.096   7.122  0.0485 -0.0532 -0.1048
  807POPS   CNO11495   7.999   6.972   5.387  0.2177  0.1977 -0.1611
  807POPS   PO411496   8.251   6.819   5.735 -0.1604  0.1332 -0.2215
  807POPS   GL111497   8.473   6.846   6.031  0.0720 -0.1990  0.0640
  807POPS   GL211498   8.257   6.733   6.233 -0.1917  0.0851 -0.1148
  807POPS   C1A11499   8.768   6.773   6.437 -0.0670 -0.2930 -0.0635
  807POPS   D2A11500   8.935   6.786   6.855  0.0041 -0.2997  0.0307
  807POPS   C3A11501   9.213   6.705   7.255  0.1565 -0.1662 -0.0612
  807POPS   C4A11502   9.326   6.393   7.620 -0.0728  0.0122  0.0842
  807POPS   C1B11503   8.360   6.587   6.512  0.2095  0.0505 -0.0015
  807POPS   C2B11504   8.377   6.574   6.968  0.0289  0.2115 -0.1154
  807POPS   C3B11505   8.615   6.854   7.365  0.0992 -0.3151  0.1712
  807POPS   C4B11506   8.940   6.824   7.760  0.1584  0.2599  0.0640
  808POPS   CNO11507   3.338  10.126   5.720  0.0955 -0.1729 -0.2803
  808POPS   PO411508   3.540   9.921   6.001  0.1394  0.0271 -0.2313
  808POPS   GL111509   3.486   9.890   6.368  0.1233  0.0591  0.4220
  808POPS   GL211510   3.176   9.789   6.475 -0.0726 -0.2053 -0.2565
  808POPS   C1A11511   3.522  10.052   6.703  0.1381  0.0728  0.0756
  808POPS   D2A11512   3.191  10.390   6.813  0.1645 -0.1956  0.0059
  808POPS   C3A11513   3.230  10.441   7.302 -0.0667 -0.0275  0.1146
  808POPS   C4A11514   3.009  10.459   7.655  0.1852  0.3332 -0.1059
  808POPS   C1B11515   2.997   9.969   6.886 -0.0422  0.3528  0.2301
  808POPS   C2B11516   2.840  10.045   7.348  0.0714  0.2315 -0.0204
  808POPS   C3B11517   2.783   9.735   7.757 -0.1525  0.0223 -0.2533
  808POPS   C4B11518   2.923   9.756   8.204  0.0781 -0.1651 -0.0870
  809POPS   CNO11519  11.901   1.614   5.663 -0.0197 -0.3740  0.2500
  809POPS   PO411520  12.162   1.575   5.377 -0.3171  0.5070  0.0191
  809POPS   GL111521  12.351   1.465   5.774 -0.3945 -0.0113 -0.3126
  809POPS   GL211522  12.433   1.763   5.760  0.0155  0.2584  0.1205
  809POPS   C1A11523  12.278   1.252   6.178 -0.3568  0.0001 -0.2874
  809POPS   D2A11524  12.055   1.322   6.561 -0.2915  0.2910 -0.0042
  809POPS   C3A11525  11.691   1.483   6.657  0.0732  0.3062  0.0986
  809POPS   C4A11526  11.481   1.811   6.884 -0.1094  0.1287 -0.0243
  809POPS   C1B11527  12.720   1.660   6.024  0.1272  0.0835 -0.1568
  809POPS   C2B11528  12.536   1.598   6.479  0.1415 -0.1876 -0.2962
  809POPS   C3B11529  12.714   1.521   6.823  0.0123  0.0463 -0.0551
  809POPS   C4B11530  12.921   1.473   7.170  0.0104 -0.0937  0.3247
  810POPS   CNO11531   7.159  15.471   5.590  0.0795 -0.1505  0.2610
  810POPS   PO411532   7.621  15.589   5.459 -0.0970 -0.3463  0.1408
  810POPS   GL111533   7.796  15.838   5.804 -0.0017 -0.0213  0.1388
  810POPS   GL211534   7.915  15.513   5.916 -0.2822 -0.0764 -0.0882
  810POPS   C1A11535   8.001  15.990   6.190  0.1253  0.1648  0.0350
  810POPS   D2A11536   8.395  16.179   6.378  0.3453 -0.1527 -0.1970
  810POPS   C3A11537   8.416  16.631   6.430  0.0139  0.1494 -0.3670
  810POPS   C4A11538   8.052  16.908   6.372  0.1735  0.0534  0.2485
  810POPS   C1B11539   7.796  15.498   6.348  0.1238 -0.1815  0.0524
  810POPS   C2B11540   7.688  15.655   6.759  0.0874  0.0070 -0.1114
  810POPS   C3B11541   7.850  15.685   7.206  0.0151  0.3191  0.0157
  810POPS   C4B11542   8.228  15.952   7.291  0.1321  0.3506  0.1958
  811POPS   CNO11543   5.079   5.538   5.668  0.0045  0.0119 -0.1221
  811POPS   PO411544   4.734   5.819   5.742 -0.0763  0.1918 -0.2245
  811POPS   GL111545   4.652   5.532   6.121  0.1325 -0.0707  0.1603
  811POPS   GL211546   4.360   5.287   6.045 -0.2743  0.2374  0.2919
  811POPS   C1A11547   4.657   5.223   6.406 -0.2507 -0.1910  0.1332
  811POPS   D2A11548   4.604   4.915   6.699  0.0600 -0.0028  0.1994
  811POPS   C3A11549   4.610   4.922   7.130 -0.0380  0.1753  0.0949
  811POPS   C4A11550   4.606   4.634   7.522 -0.2787  0.1679  0.0042
  811POPS   C1B11551   4.159   5.102   6.377 -0.1062  0.0605  0.3769
  811POPS   C2B11552   4.105   4.832   6.770 -0.1939 -0.2790  0.2838
  811POPS   C3B11553   4.196   4.599   7.173  0.2942 -0.2657  0.1125
  811POPS   C4B11554   4.173   4.173   7.418  0.3166  0.0117  0.0004
  812YOPS   CNO11555  16.977  16.268   5.040  0.0980  0.0776 -0.0912
  812YOPS   PO411556  17.316  16.068   5.055  0.3674  0.2377  0.1214
  812YOPS   GL111557  17.250  16.262   5.509  0.1329 -0.3577 -0.1466
  812YOPS   GL211558  16.936  16.323   5.580 -0.0995  0.1760 -0.1079
  812YOPS   C1A11559  17.408  16.315   5.900  0.0027  0.0218 -0.3224
  812YOPS   D2A11560  17.393  16.343   6.290  0.4120 -0.0707 -0.0210
  812YOPS   C3A11561  17.128  16.544   6.608 -0.3372  0.1552 -0.0662
  812YOPS   C4A11562  17.240  16.931   6.809  0.1842 -0.1255  0.2038
  812YOPS   C1B11563  16.955  16.456   6.097 -0.2695  0.1057  0.0717
  812YOPS   C2B11564  16.670  16.418   6.430  0.3944 -0.1582 -0.1295
  812YOPS   D3B11565  16.727  16.102   6.795  0.0094 -0.0413  0.2661
  812YOPS   C4B11566  16.368  15.945   7.046  0.4065  0.1880  0.0754
  813YOPS   CNO11567  17.868   0.769   5.304 -0.3497 -0.1061 -0.1512
  813YOPS   PO411568  17.698   0.549   5.572  0.2267  0.1218  0.3107
  813YOPS   GL111569  17.715   0.390   5.987  0.0305 -0.0452 -0.0973
  813YOPS   GL211570  17.438   0.155   5.979 -0.1483  0.4669  0.0376
  813YOPS   C1A11571  17.849   0.387   6.410  0.3144  0.0718 -0.3568
  813YOPS   D2A11572  17.953   0.387   6.796 -0.2954  0.1050  0.0991
  813YOPS   C3A11573  18.075   0.154   7.169  0.1734  0.0763 -0.3663
  813YOPS   C4A11574  18.373   0.209   7.478  0.2539 -0.3669  0.0700
  813YOPS   C1B11575  17.435   0.013   6.472  0.3208  0.1759  0.0031
  813YOPS   C2B11576  17.544   0.058   6.842 -0.1568 -0.1413 -0.1663
  813YOPS   D3B11577  17.607   0.342   7.178  0.0610  0.0660  0.1042
  813YOPS   C4B11578  17.777   0.196   7.562  0.0449  0.0204 -0.3430
  814YOPS   CNO11579   9.584   1.302   5.420 -0.0811  0.0184  0.2005
  814YOPS   PO411580   9.583   1.540   5.688  0.2259  0.0447 -0.0352
  814YOPS   GL111581   9.590   1.564   6.090  0.3955  0.1783  0.0869
  814YOPS   GL211582   9.299   1.743   6.143 -0.1822 -0.0457  0.0702
  814YOPS   C1A11583   9.583   1.542   6.444 -0.0690  0.0428 -0.0994
  814YOPS   D2A11584   9.495   1.573   6.897 -0.1707 -0.2743 -0.1462
  814YOPS   C3A11585   9.583   1.584   7.308  0.2499 -0.0252 -0.2491
  814YOPS   C4A11586   9.826   1.261   7.345 -0.1314  0.0240  0.3182
  814YOPS   C1B11587   9.655   2.035   6.303  0.1297 -0.0176  0.1099
  814YOPS   C2B11588   9.665   2.069   6.701 -0.1327  0.3519  0.1472
  814YOPS   D3B11589   9.632   2.056   7.181 -0.1980 -0.0529 -0.0805
  814YOPS   C4B11590   9.708   2.401   7.389 -0.1763 -0.1651  0.2577
  815YOPS   CNO11591  15.590   7.535   5.495 -0.2727  0.0439 -0.1233
  815YOPS   PO411592  15.890   7.401   5.714 -0.1662 -0.0286 -0.0880
  815YOPS   GL111593  15.945   7.415   6.195  0.2057  0.0432  0.4831
  815YOPS   GL211594  15.811   7.511   6.298  0.1749 -0.2031 -0.1200
  815YOPS   C1A11595  16.265   7.367   6.480 -0.0552 -0.0558 -0.0907
  815YOPS   D2A11596  16.517   7.048   6.830 -0.0063  0.1889 -0.0869
  815YOPS   C3A11597  16.556   6.831   7.256  0.0301  0.3114 -0.4172
  815YOPS   C4A11598  16.273   6.914   7.508 -0.2573  0.3524 -0.2099
  815YOPS   C1B11599  15.621   7.318   6.626  0.0693 -0.2191  0.2404
  815YOPS   C2B11600  15.433   7.426   6.971  0.1182  0.4490  0.1236
  815YOPS   D3B11601  15.139   7.294   7.244 -0.0556  0.2507 -0.1945
  815YOPS   C4B11602  14.996   6.840   7.157  0.0989 -0.2813 -0.3225
  816YOPS   CNO11603   8.944  13.698   5.348  0.2800 -0.1133  0.1430
  816YOPS   PO411604   8.954  13.952   5.715 -0.0571  0.1710 -0.3493
  816YOPS   GL111605   9.040  14.272   5.919  0.0865  0.3281  0.0358
  816YOPS   GL211606   8.877  14.479   5.798  0.0900  0.1122 -0.3043
  816YOPS   C1A11607   9.191  14.412   6.296 -0.1388 -0.2206  0.0132
  816YOPS   D2A11608   9.269  14.293   6.783 -0.3308 -0.0312  0.0290
  816YOPS   C3A11609   9.129  14.051   7.020  0.0080  0.2243 -0.0305
  816YOPS   C4A11610   9.018  13.760   6.775  0.0131 -0.0856 -0.1098
  816YOPS   C1B11611   8.745  14.794   6.177  0.1988  0.0849 -0.2364
  816YOPS   C2B11612   8.917  14.832   6.557  0.1116 -0.1710 -0.3797
  816YOPS   D3B11613   9.359  14.728   6.665  0.3079 -0.0102  0.3177
  816YOPS   C4B11614   9.681  15.008   6.801 -0.3533 -0.2708  0.3079
  817YOPS   CNO11615   0.397   3.666   5.414 -0.2095 -0.1647 -0.1067
  817YOPS   PO411616   0.345   3.791   5.767 -0.2721  0.0940 -0.0557
  817YOPS   GL111617   0.297   3.616   6.169  0.5199  0.0861 -0.1843
  817YOPS   GL211618   0.027   3.346   6.192 -0.0541 -0.2695  0.1782
  817YOPS   C1A11619   0.243   3.628   6.623 -0.1581 -0.1171  0.0424
  817YOPS   D2A11620  -0.006   3.680   6.957  0.2594 -0.0794 -0.0986
  817YOPS   C3A11621  -0.097   3.739   7.379 -0.0012  0.2297  0.2046
  817YOPS   C4A11622  -0.258   3.927   7.640  0.1489 -0.1252 -0.1635
  817YOPS   C1B11623  -0.134   3.356   6.663  0.6736 -0.0192  0.1680
  817YOPS   C2B11624  -0.361   3.369   7.092 -0.0386  0.2176 -0.1413
  817YOPS   D3B11625  -0.587   3.194   7.483  0.1047  0.1241  0.0272
  817YOPS   C4B11626  -0.741   2.887   7.551  0.3593  0.1661  0.0947
  818YOPS   CNO11627  11.817  10.815   5.461  0.0146 -0.0081 -0.0106
  818YOPS   PO411628  11.565  11.109   5.691 -0.1195 -0.1595  0.0636
  818YOPS   GL111629  11.497  11.132   6.113 -0.1195  0.4375 -0.1590
  818YOPS   GL211630  11.741  11.243   6.431  0.0704 -0.2438  0.2187
  818YOPS   C1A11631  11.348  10.973   6.516 -0.1261 -0.0420  0.0131
  818YOPS   D2A11632  11.061  10.754   6.744 -0.0838  0.0981 -0.2071
  818YOPS   C3A11633  10.786  10.832   7.210 -0.1216 -0.3566 -0.1152
  818YOPS   C4A11634  10.935  11.037   7.569 -0.2001  0.2787 -0.0696
  818YOPS   C1B11635  11.955  10.836   6.420 -0.3866 -0.2768 -0.1419
  818YOPS   C2B11636  12.367  10.835   6.206 -0.0938  0.1430 -0.0947
  818YOPS   D3B11637  12.603  11.207   6.008 -0.0994 -0.0249 -0.4073
  818YOPS   C4B11638  12.937  11.114   5.845 -0.1658 -0.2104  0.1301
  819YOPS   CNO11639  12.363   5.532   5.633 -0.0531  0.1097  0.2204
  819YOPS   PO411640  12.372   5.171   5.628  0.0920 -0.0539 -0.3022
  819YOPS   GL111641  12.187   5.219   6.047  0.1019 -0.1069 -0.1226
  819YOPS   GL211642  11.995   5.423   5.939 -0.0439 -0.2351 -0.1653
  819YOPS   C1A11643  12.221   5.204   6.472  0.0608 -0.4507  0.0562
  819YOPS   D2A11644  12.444   5.002   6.806  0.3736  0.0021  0.0828
  819YOPS   C3A11645  12.912   4.915   6.959 -0.1605  0.4571  0.0803
  819YOPS   C4A11646  13.206   4.749   6.741  0.2910  0.1187 -0.0525
  819YOPS   C1B11647  12.179   5.869   6.048 -0.0355 -0.0259  0.0530
  819YOPS   C2B11648  12.435   6.097   6.357 -0.0351  0.1273 -0.0602
  819YOPS   D3B11649  12.398   6.241   6.726 -0.0429 -0.1649  0.0256
  819YOPS   C4B11650  12.375   6.188   7.228 -0.2344 -0.0760  0.0250
  820YOPS   CNO11651   6.090  10.395   5.767 -0.0520  0.2262  0.2033
  820YOPS   PO411652   5.650  10.519   5.879  0.0953 -0.1152 -0.2432
  820YOPS   GL111653   5.558  10.849   6.018 -0.0370 -0.1768 -0.1846
  820YOPS   GL211654   5.836  10.863   6.179 -0.0269 -0.1443  0.0921
  820YOPS   C1A11655   5.305  11.073   6.280  0.1271 -0.1902 -0.0365
  820YOPS   D2A11656   5.273  11.271   6.699 -0.3515 -0.1511 -0.0653
  820YOPS   C3A11657   5.320  11.429   7.146 -0.1574 -0.0080 -0.0309
  820YOPS   C4A11658   5.095  11.750   7.343 -0.0703  0.0135  0.0816
  820YOPS   C1B11659   5.870  10.655   6.587  0.1141  0.0883 -0.0465
  820YOPS   C2B11660   5.827  10.288   6.723 -0.0029  0.1515 -0.1055
  820YOPS   D3B11661   5.928   9.906   6.859  0.1021 -0.1578  0.0215
  820YOPS   C4B11662   5.924  10.083   7.184  0.0965  0.3166 -0.0621
  821YOPS   CNO11663   9.462  17.540   5.480 -0.1104 -0.1053  0.2760
  821YOPS   PO411664   9.399  17.163   5.507  0.0655  0.0136  0.3455
  821YOPS   GL111665   9.691  17.161   5.868  0.0581 -0.1179 -0.1069
  821YOPS   GL211666   9.805  17.411   5.890  0.0182  0.0966  0.0847
  821YOPS   C1A11667   9.698  16.994   6.201  0.0563  0.2315 -0.0588
  821YOPS   D2A11668   9.760  16.863   6.632  0.5307 -0.0318 -0.1927
  821YOPS   C3A11669   9.894  16.637   7.020 -0.3031  0.1647  0.2527
  821YOPS   C4A11670   9.669  16.341   7.365 -0.2366  0.0132  0.0721
  821YOPS   C1B11671  10.030  17.473   6.219 -0.1554 -0.2194  0.0820
  821YOPS   C2B11672  10.037  17.518   6.705  0.1381  0.0009  0.0349
  821YOPS   D3B11673  10.187  17.275   7.047 -0.1134 -0.1347 -0.2084
  821YOPS   C4B11674  10.304  16.972   7.382  0.0582  0.1211  0.0620
  822YOPS   CNO11675  14.818   1.459   4.534  0.4494 -0.1499  0.0115
  822YOPS   PO411676  14.898   1.562   5.024  0.0265 -0.4858  0.1019
  822YOPS   GL111677  14.923   1.270   5.338 -0.1038  0.0428  0.1156
  822YOPS   GL211678  14.707   1.333   5.621 -0.2014 -0.0123  0.2272
  822YOPS   C1A11679  15.072   0.939   5.630 -0.0379  0.1595  0.2331
  822YOPS   D2A11680  15.216   0.865   5.942 -0.4812  0.1502 -0.3373
  822YOPS   C3A11681  15.403   0.589   6.114 -0.0388  0.1027 -0.1525
  822YOPS   C4A11682  15.695   0.595   5.838 -0.3518 -0.0079 -0.1037
  822YOPS   C1B11683  14.343   1.161   5.942  0.1144  0.0227 -0.0669
  822YOPS   C2B11684  14.448   1.007   6.362 -0.0629  0.0497  0.1465
  822YOPS   D3B11685  14.426   1.062   6.770  0.3435 -0.0222 -0.2093
  822YOPS   C4B11686  13.994   1.056   6.989 -0.0273 -0.1178  0.0902
  823YOPS   CNO11687   0.358   7.111   6.211 -0.0358  0.1511 -0.1847
  823YOPS   PO411688   0.447   7.460   6.381  0.2964 -0.0509 -0.0575
  823YOPS   GL111689   0.270   7.586   6.636  0.2598  0.2590 -0.4165
  823YOPS   GL211690   0.490   7.801   6.805  0.1433 -0.2193 -0.2171
  823YOPS   C1A11691   0.135   7.648   7.073  0.2415  0.4078  0.0492
  823YOPS   D2A11692   0.192   7.751   7.422  0.0292  0.1859  0.0686
  823YOPS   C3A11693   0.272   7.578   7.825 -0.1233  0.0026 -0.1548
  823YOPS   C4A11694   0.629   7.647   8.024 -0.1126  0.0450 -0.0701
  823YOPS   C1B11695   0.863   7.737   6.957 -0.2010 -0.0466  0.0153
  823YOPS   C2B11696   1.259   7.673   7.408 -0.1325 -0.0081  0.1613
  823YOPS   D3B11697   1.447   7.734   7.814  0.0853  0.1053  0.0366
  823YOPS   C4B11698   1.108   7.499   7.960  0.0559  0.1304  0.3746
  824YOPS   CNO11699   0.529  18.499   5.954  0.1136  0.3425  0.3455
  824YOPS   PO411700   0.939  18.430   5.835 -0.1681 -0.2324  0.4182
  824YOPS   GL111701   0.872  18.100   6.156  0.1193  0.4167  0.1216
  824YOPS   GL211702   1.183  17.838   6.139 -0.2507  0.0060 -0.0349
  824YOPS   C1A11703   0.768  17.869   6.430  0.0344 -0.3299  0.0560
  824YOPS   D2A11704   0.724  17.817   6.791 -0.1519  0.1010 -0.3330
  824YOPS   C3A11705   0.686  17.872   7.276 -0.0056  0.1752 -0.0365
  824YOPS   C4A11706   0.576  18.194   7.380  0.0495 -0.0110  0.1550
  824YOPS   C1B11707   1.083  17.530   6.450  0.0177 -0.1653 -0.0461
  824YOPS   C2B11708   0.694  17.366   6.591 -0.1645  0.2970 -0.0553
  824YOPS   D3B11709   0.439  17.263   6.899  0.1876 -0.0993  0.1128
  824YOPS   C4B11710   0.261  16.959   7.037 -0.0087 -0.0166  0.1150
  825YOPS   CNO11711  11.158  11.613   5.532 -0.0014  0.0841  0.0223
  825YOPS   PO411712  10.939  11.561   5.932  0.1440 -0.2575  0.0298
  825YOPS   GL111713  10.914  11.486   6.315 -0.2658  0.1755 -0.3271
  825YOPS   GL211714  10.650  11.692   6.423 -0.0161 -0.3760  0.0683
  825YOPS   C1A11715  10.906  11.221   6.702 -0.1227  0.0075  0.2738
  825YOPS   D2A11716  10.936  11.326   7.129 -0.1395 -0.1915  0.0033
  825YOPS   C3A11717  10.766  11.527   7.508  0.3408 -0.1451 -0.0290
  825YOPS   C4A11718  10.529  11.273   7.725  0.3849  0.0684 -0.1812
  825YOPS   C1B11719  10.633  11.671   6.843  0.0849 -0.0926  0.0235
  825YOPS   C2B11720  10.587  11.964   7.158  0.0111  0.1322 -0.0645
  825YOPS   D3B11721  10.329  12.169   7.323  0.0707  0.1147 -0.0384
  825YOPS   C4B11722  10.208  12.514   7.267  0.0293 -0.1600 -0.0666
  826YOPS   CNO11723  12.741  11.146   5.325  0.0948  0.1691 -0.2313
  826YOPS   PO411724  12.735  11.605   5.389 -0.0722  0.3235 -0.0090
  826YOPS   GL111725  12.908  11.632   5.753 -0.2643  0.1342 -0.1102
  826YOPS   GL211726  13.183  11.776   5.779  0.4535 -0.0409 -0.0910
  826YOPS   C1A11727  12.940  11.531   6.198  0.4482 -0.1126  0.0464
  826YOPS   D2A11728  12.712  11.319   6.634 -0.0007  0.2067 -0.3613
  826YOPS   C3A11729  12.381  11.601   6.867  0.2291  0.2258 -0.0574
  826YOPS   C4A11730  12.301  11.940   6.701  0.0574  0.0704 -0.1654
  826YOPS   C1B11731  13.395  11.546   6.160  0.3130  0.0228 -0.4255
  826YOPS   C2B11732  13.209  11.333   6.533  0.0358  0.1075  0.2148
  826YOPS   D3B11733  13.368  11.135   6.983  0.2070 -0.3124 -0.0622
  826YOPS   C4B11734  13.480  11.320   7.330  0.0095  0.1366 -0.2831
  827YOPS   CNO11735   0.797  13.509   6.166 -0.0418  0.0329  0.2715
  827YOPS   PO411736   0.683  13.136   6.338  0.1028  0.0668  0.1688
  827YOPS   GL111737   0.360  13.230   6.565 -0.0275  0.0081  0.0167
  827YOPS   GL211738   0.472  13.536   6.693  0.3401  0.0066  0.2399
  827YOPS   C1A11739   0.140  13.337   7.016 -0.0002  0.1070  0.0427
  827YOPS   D2A11740  -0.022  13.175   7.344  0.1972  0.0313  0.0963
  827YOPS   C3A11741  -0.005  13.120   7.644 -0.2290  0.2262  0.1681
  827YOPS   C4A11742   0.158  12.752   7.687  0.1826 -0.1577 -0.0683
  827YOPS   C1B11743   0.537  13.604   7.096 -0.1190  0.0960 -0.0276
  827YOPS   C2B11744   0.574  13.957   7.308 -0.1065  0.1329 -0.0045
  827YOPS   D3B11745   0.894  14.016   7.674 -0.2665  0.2037  0.5574
  827YOPS   C4B11746   0.755  13.713   8.091 -0.0043 -0.0557 -0.2408
  828YOPS   CNO11747   5.398   4.711   5.605 -0.0226 -0.0303  0.3598
  828YOPS   PO411748   5.386   4.274   5.436  0.2333  0.2144  0.1467
  828YOPS   GL111749   5.117   4.037   5.793 -0.2167  0.1055 -0.1844
  828YOPS   GL211750   4.827   3.933   5.804  0.1929  0.4074  0.1424
  828YOPS   C1A11751   4.959   3.706   6.196 -0.1454 -0.0645  0.1226
  828YOPS   D2A11752   4.647   3.337   6.204  0.1146 -0.0828 -0.0345
  828YOPS   C3A11753   4.480   2.937   6.393  0.0523 -0.1241 -0.0339
  828YOPS   C4A11754   4.083   2.901   6.531 -0.2239 -0.0006  0.0918
  828YOPS   C1B11755   4.712   4.187   6.123  0.1626  0.0326 -0.0089
  828YOPS   C2B11756   4.809   4.321   6.495 -0.0539 -0.0439 -0.1113
  828YOPS   D3B11757   5.002   4.389   6.909  0.2872  0.0730 -0.1115
  828YOPS   C4B11758   5.070   4.580   7.331 -0.1750 -0.5332 -0.1323
  829YOPS   CNO11759   3.875  17.863   5.725  0.0466 -0.0531  0.1051
  829YOPS   PO411760   3.355  17.881   5.698  0.1702  0.0531  0.2050
  829YOPS   GL111761   3.486  17.757   6.128 -0.0121  0.1924 -0.0137
  829YOPS   GL211762   3.716  17.517   6.052  0.0077  0.0417  0.4295
  829YOPS   C1A11763   3.379  17.609   6.557  0.2366 -0.1205  0.0961
  829YOPS   D2A11764   3.037  17.362   6.705 -0.0917  0.1597  0.0723
  829YOPS   C3A11765   2.722  17.221   6.488  0.1469 -0.0945  0.0525
  829YOPS   C4A11766   2.303  17.252   6.470 -0.1394  0.1726 -0.1018
  829YOPS   C1B11767   3.758  17.321   6.455  0.1141  0.0164  0.2517
  829YOPS   C2B11768   4.030  17.192   6.703  0.1931  0.1658 -0.0502
  829YOPS   D3B11769   4.170  17.238   7.123  0.1995 -0.1526  0.0450
  829YOPS   C4B11770   4.401  17.575   7.315  0.1584  0.1964 -0.0502
  830YOPS   CNO11771   0.295  11.780   5.638  0.0751 -0.1649  0.0206
  830YOPS   PO411772   0.481  12.130   5.816  0.0154  0.1208 -0.0841
  830YOPS   GL111773   0.677  12.155   6.221  0.1020 -0.2730  0.0615
  830YOPS   GL211774   0.903  11.971   6.286  0.1551 -0.2797 -0.4422
  830YOPS   C1A11775   0.785  12.470   6.574  0.1361 -0.0626  0.1230
  830YOPS   D2A11776   1.018  12.898   6.876  0.0283  0.0834 -0.0398
  830YOPS   C3A11777   1.060  12.926   7.305 -0.0387  0.3313  0.0818
  830YOPS   C4A11778   1.341  13.108   7.444 -0.0701  0.2392 -0.3105
  830YOPS   C1B11779   0.783  11.868   6.658  0.1301 -0.0908  0.0051
  830YOPS   C2B11780   0.895  12.016   7.068 -0.1632 -0.2663 -0.0296
  830YOPS   D3B11781   0.755  12.488   7.126 -0.0768  0.3105 -0.4256
  830YOPS   C4B11782   0.340  12.472   7.295 -0.2699  0.0435  0.1113
  831YOPS   CNO11783  17.958   2.177   5.441 -0.1613 -0.2775 -0.0323
  831YOPS   PO411784  18.125   2.493   5.512  0.1857  0.0257  0.1688
  831YOPS   GL111785  18.332   2.468   5.971  0.3091  0.2156 -0.2649
  831YOPS   GL211786  18.106   2.435   6.169 -0.2149  0.2371  0.3022
  831YOPS   C1A11787  18.568   2.072   6.093  0.0712  0.1146  0.1907
  831YOPS   D2A11788  18.221   1.910   6.186 -0.0304 -0.0603  0.0746
  831YOPS   C3A11789  18.105   1.550   6.180 -0.1241  0.0409  0.1565
  831YOPS   C4A11790  17.997   1.195   6.396  0.0151  0.2146 -0.0284
  831YOPS   C1B11791  18.359   2.374   6.496  0.1686 -0.0410  0.1769
  831YOPS   C2B11792  18.422   2.323   6.905 -0.0655  0.3035 -0.2700
  831YOPS   D3B11793  18.246   2.416   7.219  0.0012  0.0287  0.0687
  831YOPS   C4B11794  18.470   2.541   7.598 -0.1128  0.1151  0.1682
  832YOPS   CNO11795  15.577  12.229   5.431 -0.2588  0.3717  0.1811
  832YOPS   PO411796  15.496  12.019   5.682  0.3559 -0.0965 -0.0078
  832YOPS   GL111797  15.374  12.039   6.102 -0.5306  0.0554  0.0160
  832YOPS   GL211798  15.144  11.810   6.197 -0.0279 -0.0829 -0.0502
  832YOPS   C1A11799  15.371  12.354   6.356 -0.2498  0.4841  0.2985
  832YOPS   D2A11800  15.393  12.723   6.616  0.1639 -0.1604  0.4041
  832YOPS   C3A11801  15.076  12.799   6.904 -0.0263  0.1852  0.0056
  832YOPS   C4A11802  15.172  12.914   7.374  0.0172  0.1165 -0.1137
  832YOPS   C1B11803  15.162  11.930   6.601 -0.1042 -0.3641 -0.0202
  832YOPS   C2B11804  15.198  11.868   7.033 -0.0733 -0.0510 -0.3455
  832YOPS   D3B11805  15.025  11.824   7.427  0.0833 -0.2206  0.0413
  832YOPS   C4B11806  15.032  11.475   7.640  0.0067 -0.1723  0.2924
  833YOPS   CNO11807   7.959   6.014   5.181  0.0456 -0.0858  0.1553
  833YOPS   PO411808   8.213   5.951   5.579 -0.1113 -0.1426  0.0140
  833YOPS   GL111809   8.089   5.841   6.066  0.0904  0.0015  0.0164
  833YOPS   GL211810   8.283   5.601   6.008  0.0361 -0.3462  0.1442
  833YOPS   C1A11811   8.015   5.579   6.455 -0.0109 -0.1413 -0.0990
  833YOPS   D2A11812   8.244   5.495   6.799  0.0373  0.0492  0.0554
  833YOPS   C3A11813   8.244   5.345   7.170  0.1379 -0.0185  0.1645
  833YOPS   C4A11814   8.315   4.931   7.172  0.0486  0.1547  0.2442
  833YOPS   C1B11815   8.536   5.551   6.371  0.1499 -0.0611 -0.0233
  833YOPS   C2B11816   8.800   5.603   6.745 -0.4725 -0.3538  0.0454
  833YOPS   D3B11817   8.666   5.540   7.129  0.2308  0.0266  0.1883
  833YOPS   C4B11818   8.750   5.170   7.373  0.1775 -0.0914  0.1133
  834YOPS   CNO11819   2.297   1.581   5.639  0.0122 -0.3135 -0.0158
  834YOPS   PO411820   2.116   1.951   5.489 -0.0619 -0.4141 -0.1961
  834YOPS   GL111821   1.947   1.849   5.936 -0.1017 -0.1055 -0.3040
  834YOPS   GL211822   2.153   1.641   6.113  0.1705  0.1754  0.2292
  834YOPS   C1A11823   1.522   1.682   6.223 -0.0002 -0.1472 -0.0704
  834YOPS   D2A11824   1.218   1.673   6.486  0.1390  0.1445 -0.1580
  834YOPS   C3A11825   1.051   1.848   6.876  0.0870  0.2734 -0.1414
  834YOPS   C4A11826   0.739   1.706   7.126 -0.0150  0.0737 -0.3670
  834YOPS   C1B11827   2.063   1.493   6.488 -0.3907  0.0765  0.0440
  834YOPS   C2B11828   2.231   1.296   6.824  0.3103  0.0530 -0.1133
  834YOPS   D3B11829   2.387   1.254   7.302 -0.1500 -0.0840 -0.3032
  834YOPS   C4B11830   2.643   1.410   7.573  0.3287  0.1944 -0.2815
  835YOPS   CNO11831  11.022  15.934   5.440  0.0379  0.1576 -0.2532
  835YOPS   PO411832  10.628  15.714   5.591 -0.0344 -0.0411 -0.1475
  835YOPS   GL111833  10.808  15.977   5.881  0.1235 -0.2067  0.2983
  835YOPS   GL211834  10.786  16.339   5.853  0.0408 -0.0716 -0.1155
  835YOPS   C1A11835  10.758  16.085   6.307 -0.1623  0.0519  0.2454
  835YOPS   D2A11836  10.974  16.406   6.569 -0.0112  0.3965  0.0119
  835YOPS   C3A11837  11.224  16.387   6.981  0.1604 -0.0243  0.5532
  835YOPS   C4A11838  11.075  16.357   7.381  0.1530 -0.0722 -0.3694
  835YOPS   C1B11839  11.068  16.582   6.107  0.0424  0.1135  0.0374
  835YOPS   C2B11840  11.550  16.804   6.183  0.3486 -0.1215  0.1479
  835YOPS   D3B11841  11.661  17.120   6.474  0.2339  0.0463 -0.1114
  835YOPS   C4B11842  11.551  17.605   6.522 -0.3337 -0.1867  0.1394
  836YOPS   CNO11843   4.399  14.338   5.112 -0.3841  0.2640  0.1107
  836YOPS   PO411844   4.230  14.384   5.607 -0.2385  0.0311 -0.0330
  836YOPS   GL111845   4.057  14.217   6.072  0.1773 -0.1972 -0.0811
  836YOPS   GL211846   3.719  14.161   6.101  0.3845 -0.1094 -0.0160
  836YOPS   C1A11847   4.328  14.108   6.464  0.1369 -0.3225 -0.3187
  836YOPS   D2A11848   4.366  14.031   6.882 -0.2168 -0.1760  0.2073
  836YOPS   C3A11849   4.016  13.826   7.000  0.1762 -0.0293  0.0716
  836YOPS   C4A11850   3.808  13.875   7.336  0.0077 -0.0812 -0.1102
  836YOPS   C1B11851   3.446  14.320   6.355  0.1810 -0.1874 -0.0858
  836YOPS   C2B11852   3.249  14.489   6.793  0.0920  0.1318 -0.2634
  836YOPS   D3B11853   2.893  14.385   6.927 -0.1178  0.0688  0.0102
  836YOPS   C4B11854   2.652  14.089   7.205 -0.1421 -0.1062 -0.1600
  837YOPS   CNO11855  16.477   4.501   5.592  0.2745 -0.0118 -0.0317
  837YOPS   PO411856  16.074   4.429   5.846 -0.0263  0.0686  0.2207
  837YOPS   GL111857  16.356   4.652   6.093 -0.2318 -0.0431 -0.0529
  837YOPS   GL211858  16.586   4.574   6.064 -0.0864  0.0129 -0.2087
  837YOPS   C1A11859  16.198   4.967   6.391  0.2121 -0.2141  0.1378
  837YOPS   D2A11860  16.299   5.085   6.805 -0.1198  0.1852  0.2723
  837YOPS   C3A11861  16.680   5.378   6.870  0.1106 -0.0049 -0.1185
  837YOPS   C4A11862  17.090   5.213   7.092 -0.0097  0.1563 -0.3063
  837YOPS   C1B11863  16.471   4.476   6.546  0.1803  0.0548 -0.0984
  837YOPS   C2B11864  16.628   4.351   6.873 -0.0708 -0.1365 -0.0972
  837YOPS   D3B11865  16.680   4.390   7.304  0.0716  0.3080 -0.2875
  837YOPS   C4B11866  17.108   4.357   7.517 -0.0667  0.1802  0.0119
  838YOPS   CNO11867  12.402   7.767   5.781  0.0826 -0.1746 -0.3902
  838YOPS   PO411868  12.546   8.222   5.842  0.2261 -0.0278 -0.0455
  838YOPS   GL111869  12.516   8.084   6.188  0.1241  0.0842  0.0433
  838YOPS   GL211870  12.279   8.310   6.369 -0.0446  0.2893  0.1183
  838YOPS   C1A11871  12.453   7.883   6.583  0.1367 -0.2395 -0.0701
  838YOPS   D2A11872  12.617   7.721   6.953 -0.3124  0.0708 -0.0761
  838YOPS   C3A11873  12.806   7.324   7.186  0.3129  0.2829 -0.3765
  838YOPS   C4A11874  13.026   7.489   7.542  0.2638  0.1496 -0.1133
  838YOPS   C1B11875  12.363   8.310   6.844  0.2338 -0.1861 -0.1617
  838YOPS   C2B11876  12.500   8.122   7.243  0.1247 -0.2299  0.4467
  838YOPS   D3B11877  12.488   8.123   7.671 -0.0876 -0.2001  0.0839
  838YOPS   C4B11878  12.360   8.445   7.893  0.0318  0.2007 -0.0488
  839YOPS   CNO11879  13.637   9.107   5.453  0.1482  0.0239 -0.0378
  839YOPS   PO411880  13.500   9.478   5.683  0.2004 -0.0253 -0.2500
  839YOPS   GL111881  13.320   9.490   6.006 -0.0686 -0.0740 -0.2360
  839YOPS   GL211882  13.265   9.255   6.225  0.1297 -0.1336  0.0279
  839YOPS   C1A11883  13.157   9.724   6.411 -0.1067  0.0673  0.2308
  839YOPS   D2A11884  12.886   9.800   6.620  0.2719  0.2350 -0.1203
  839YOPS   C3A11885  12.660  10.111   6.802 -0.1166 -0.3434  0.2797
  839YOPS   C4A11886  12.577   9.871   7.132 -0.0288 -0.0075 -0.0955
  839YOPS   C1B11887  13.190   9.269   6.599  0.2527 -0.0837 -0.3501
  839YOPS   C2B11888  13.096   9.125   7.030  0.2506 -0.1865 -0.1442
  839YOPS   D3B11889  13.350   9.372   7.440 -0.1296  0.0686 -0.1124
  839YOPS   C4B11890  13.111   9.606   7.681 -0.2397 -0.1543 -0.2247
  840YOPS   CNO11891   8.645   3.307   5.176  0.0276  0.2541  0.1789
  840YOPS   PO411892   8.528   3.115   5.488 -0.0719 -0.1384 -0.3009
  840YOPS   GL111893   8.497   3.304   5.901  0.1840  0.1523  0.0967
  840YOPS   GL211894   8.251   3.348   6.095  0.0291 -0.1852 -0.0949
  840YOPS   C1A11895   8.676   3.292   6.321 -0.0304  0.1742  0.2120
  840YOPS   D2A11896   8.582   3.245   6.726 -0.4313  0.2353  0.1152
  840YOPS   C3A11897   8.327   3.441   7.012  0.0363  0.1104 -0.1391
  840YOPS   C4A11898   8.515   3.225   7.339  0.2650  0.0999 -0.0366
  840YOPS   C1B11899   8.148   3.309   6.510 -0.0037  0.2318 -0.2498
  840YOPS   C2B11900   7.836   3.432   6.638 -0.0442  0.0259  0.0044
  840YOPS   D3B11901   7.718   3.249   6.979 -0.1222  0.0013  0.1110
  840YOPS   C4B11902   8.005   3.361   7.385  0.1771 -0.0363  0.1185
  841YOPS   CNO11903   2.127   7.629   5.888 -0.1908  0.0537  0.2536
  841YOPS   PO411904   1.960   7.944   6.146 -0.0152 -0.1322  0.0198
  841YOPS   GL111905   2.028   7.777   6.527  0.0873 -0.2362 -0.0387
  841YOPS   GL211906   1.680   7.772   6.622 -0.0471 -0.0389  0.4210
  841YOPS   C1A11907   2.090   7.693   6.921 -0.0535 -0.3606 -0.0289
  841YOPS   D2A11908   2.161   7.710   7.294  0.0683 -0.0332 -0.1801
  841YOPS   C3A11909   2.178   7.999   7.641 -0.4804  0.1859 -0.1257
  841YOPS   C4A11910   1.883   8.050   7.870  0.1174 -0.0162  0.0395
  841YOPS   C1B11911   1.643   7.800   7.068 -0.1990  0.0744 -0.4418
  841YOPS   C2B11912   1.693   7.954   7.461 -0.3056 -0.3290 -0.0304
  841YOPS   D3B11913   1.468   8.231   7.742 -0.2256  0.1394 -0.2262
  841YOPS   C4B11914   1.406   8.609   7.660  0.2362  0.3014  0.1715
  842POPE   NH311915   7.691  10.173   5.633  0.4203 -0.2573  0.0880
  842POPE   PO411916   7.930   9.888   5.737  0.1047 -0.2542  0.3220
  842POPE   GL111917   7.989   9.928   6.157 -0.2400 -0.1990 -0.0352
  842POPE   GL211918   8.161   9.612   6.339  0.0294  0.0326  0.0062
  842POPE   C1A11919   8.045  10.234   6.578 -0.0499  0.0908 -0.2154
  842POPE   D2A11920   8.175  10.434   7.001 -0.1079  0.1641 -0.0995
  842POPE   C3A11921   7.803  10.358   7.299  0.0621  0.1894 -0.0909
  842POPE   C4A11922   7.593  10.063   7.687  0.0703  0.1742  0.0622
  842POPE   C1B11923   8.229   9.530   6.779  0.1782 -0.0142  0.0685
  842POPE   C2B11924   8.520   9.370   7.018  0.2130  0.0394  0.1816
  842POPE   C3B11925   8.521   9.090   7.390  0.1129  0.2854  0.0118
  842POPE   C4B11926   8.454   8.720   7.546  0.2686  0.0882 -0.1709
  843POPE   NH311927   1.361   8.569   6.010  0.0886  0.0481  0.0648
  843POPE   PO411928   1.573   8.180   6.004 -0.3062  0.0567  0.0286
  843POPE   GL111929   1.268   8.136   6.348  0.3005  0.0441  0.1684
  843POPE   GL211930   1.189   8.457   6.458 -0.3620 -0.0011 -0.1932
  843POPE   C1A11931   1.321   8.087   6.806 -0.1534  0.2568 -0.3136
  843POPE   D2A11932   1.313   8.166   7.200  0.3255 -0.0274  0.2063
  843POPE   C3A11933   1.022   8.176   7.578 -0.0318 -0.1691  0.1169
  843POPE   C4A11934   1.003   7.954   7.902  0.1339  0.0596  0.0306
  843POPE   C1B11935   1.048   8.619   6.859  0.0793 -0.0393  0.0531
  843POPE   C2B11936   0.886   8.933   7.049 -0.1413 -0.0597 -0.0404
  843POPE   C3B11937   0.746   9.122   7.297  0.1759  0.0303  0.1534
  843POPE   C4B11938   0.430   9.287   7.606 -0.1914  0.2213 -0.2036
  844POPE   NH311939   1.289   4.152   5.843  0.0164 -0.1037 -0.0624
  844POPE   PO411940   1.273   4.463   6.167 -0.2823 -0.0634  0.1398
  844POPE   GL111941   1.120   4.318   6.474 -0.0935  0.0456  0.0191
  844POPE   GL211942   0.888   4.436   6.467  0.0912 -0.0785 -0.1255
  844POPE   C1A11943   1.085   3.950   6.784  0.0400  0.0822  0.1228
  844POPE   D2A11944   1.238   3.724   6.999 -0.0280  0.0830 -0.0588
  844POPE   C3A11945   1.659   3.874   7.183  0.3403  0.0654 -0.3810
  844POPE   C4A11946   2.069   3.607   7.294 -0.0693  0.1699 -0.1026
  844POPE   C1B11947   0.565   4.549   6.704 -0.3677  0.1750  0.1834
  844POPE   C2B11948   0.667   4.809   7.074 -0.0871 -0.2370 -0.0168
  844POPE   C3B11949   0.978   4.828   7.387 -0.0954 -0.3847  0.1976
  844POPE   C4B11950   1.245   4.594   7.722 -0.0582  0.0412  0.1946
  845POPE   NH311951  10.923  14.370   5.000  0.0373 -0.0666 -0.1410
  845POPE   PO411952  10.372  14.365   5.074  0.1037 -0.1406  0.2077
  845POPE   GL111953  10.326  14.245   5.461  0.0086  0.0108  0.2263
  845POPE   GL211954  10.181  14.487   5.574 -0.0667  0.2419  0.2262
  845POPE   C1A11955  10.562  14.026   5.908  0.3586  0.0821 -0.0448
  845POPE   D2A11956  10.923  13.740   6.068 -0.0549 -0.0442  0.2050
  845POPE   C3A11957  10.996  13.693   6.566 -0.1541  0.3352 -0.2522
  845POPE   C4A11958  11.115  13.492   6.938 -0.0776 -0.1687  0.2273
  845POPE   C1B11959   9.892  14.391   5.868  0.4903  0.5171  0.4941
  845POPE   C2B11960   9.920  14.396   6.318  0.0614 -0.1199 -0.1653
  845POPE   C3B11961   9.751  14.421   6.807  0.1183 -0.1308  0.2616
  845POPE   C4B11962   9.946  14.378   7.154  0.0840  0.2673  0.1528
  846POPE   NH311963   3.211  17.433   5.845 -0.0798 -0.2003 -0.1480
  846POPE   PO411964   2.851  17.655   5.648  0.1706 -0.0856 -0.1303
  846POPE   GL111965   2.951  17.851   6.027 -0.2187  0.0615 -0.0437
  846POPE   GL211966   2.976  17.555   6.276  0.0206 -0.0251 -0.1199
  846POPE   C1A11967   3.197  18.127   6.362 -0.0048  0.1991 -0.1040
  846POPE   D2A11968   3.109  18.078   6.859  0.1211 -0.2512 -0.0569
  846POPE   C3A11969   3.181  17.738   7.045  0.1104 -0.1944  0.0611
  846POPE   C4A11970   3.119  17.522   7.490  0.2877 -0.1274 -0.0006
  846POPE   C1B11971   2.815  17.795   6.639  0.3768  0.0495  0.0616
  846POPE   C2B11972   2.512  17.498   6.830  0.0554 -0.0452  0.0187
  846POPE   C3B11973   2.330  17.089   6.945  0.0629 -0.0030  0.1849
  846POPE   C4B11974   2.137  16.876   7.313  0.2068  0.0664 -0.4237
  847POPE   NH311975  16.656   5.471   5.475 -0.1259  0.1920 -0.0534
  847POPE   PO411976  16.291   5.436   5.646 -0.1759 -0.1360 -0.0059
  847POPE   GL111977  16.016   5.430   6.009  0.0617  0.2282  0.0149
  847POPE   GL211978  15.888   5.639   6.164  0.3491 -0.2668  0.0995
  847POPE   C1A11979  15.903   5.332   6.555  0.0678 -0.3675  0.1834
  847POPE   D2A11980  15.771   5.072   6.982 -0.4550  0.0375  0.1890
  847POPE   C3A11981  16.117   5.224   7.331  0.1726  0.0011  0.2522
  847POPE   C4A11982  16.367   5.514   7.332 -0.1100 -0.1968 -0.2089
  847POPE   C1B11983  15.756   5.832   6.525  0.3600  0.2620  0.0051
  847POPE   C2B11984  15.839   6.050   6.951  0.2114  0.2090 -0.3286
  847POPE   C3B11985  16.119   5.990   7.269  0.1269  0.0233  0.1041
  847POPE   C4B11986  16.266   5.915   7.699  0.3681  0.0419  0.2899
  848POPE   NH311987  10.837   6.861   5.246  0.1715  0.1932 -0.1093
  848POPE   PO411988  11.080   7.136   5.279 -0.0947 -0.0824 -0.2995
  848POPE   GL111989  11.041   7.053   5.694 -0.0302  0.3137 -0.2412
  848POPE   GL211990  10.894   7.285   5.951 -0.0667 -0.1814 -0.1229
  848POPE   C1A11991  11.305   6.954   6.050  0.5833 -0.0462  0.2748
  848POPE   D2A11992  11.257   6.872   6.497 -0.2340  0.0215 -0.1518
  848POPE   C3A11993  11.224   7.081   6.852  0.2709 -0.0203 -0.1305
  848POPE   C4A11994  10.862   7.122   7.092 -0.0094 -0.0989  0.0411
  848POPE   C1B11995  10.808   6.921   6.102 -0.1654  0.2239 -0.2840
  848POPE   C2B11996  10.849   6.518   6.328  0.0101  0.0066 -0.2244
  848POPE   C3B11997  11.151   6.254   6.194  0.2994  0.1836  0.2381
  848POPE   C4B11998  11.256   6.134   5.737  0.2049 -0.1048 -0.2196
  849POPE   NH311999  10.170   2.949   5.692  0.0471 -0.1475  0.1541
  849POPE   PO412000   9.747   3.005   5.637  0.1806 -0.0097 -0.0558
  849POPE   GL112001   9.791   3.042   6.092  0.2147  0.0229  0.0689
  849POPE   GL212002  10.019   2.818   6.202  0.0141  0.2073  0.3343
  849POPE   C1A12003   9.733   3.186   6.538 -0.0870 -0.2817 -0.0133
  849POPE   D2A12004   9.626   3.400   6.993  0.0426  0.0898 -0.0010
  849POPE   C3A12005   9.779   3.488   7.461 -0.0417 -0.1791 -0.1741
  849POPE   C4A12006  10.093   3.439   7.828 -0.1561  0.2056  0.0961
  849POPE   C1B12007  10.181   2.883   6.689  0.0831 -0.1068  0.2040
  849POPE   C2B12008  10.328   2.697   7.044  0.1042  0.0264  0.0597
  849POPE   C3B12009  10.476   2.805   7.397  0.0910 -0.1253 -0.0626
  849POPE   C4B12010  10.539   2.600   7.863 -0.1380 -0.2631 -0.1090
  850POPE   NH312011   0.816   1.427   5.479  0.0354  0.1963  0.2831
  850POPE   PO412012   0.750   1.239   5.751 -0.0285 -0.1510  0.1276
  850POPE   GL112013   0.466   0.937   5.939  0.1791 -0.2038  0.0776
  850POPE   GL212014   0.235   1.225   6.023  0.2213  0.0499 -0.0217
  850POPE   C1A12015   0.188   0.758   6.181  0.3844 -0.3388 -0.0615
  850POPE   D2A12016   0.217   0.521   6.470  0.4031 -0.2154 -0.5244
  850POPE   C3A12017   0.394   0.209   6.835  0.1188  0.1138 -0.1145
  850POPE   C4A12018   0.568   0.050   7.115  0.1375  0.1282  0.0306
  850POPE   C1B12019   0.325   1.235   6.364 -0.2280 -0.0494  0.1006
  850POPE   C2B12020   0.122   0.992   6.652 -0.1653 -0.0206 -0.1232
  850POPE   C3B12021  -0.145   1.091   7.103 -0.1692  0.2233 -0.2077
  850POPE   C4B12022  -0.473   1.095   7.383  0.1960  0.1024 -0.0546
  851POPE   NH312023   3.817   9.542   5.848  0.3445 -0.2687 -0.1795
  851POPE   PO412024   4.119   9.994   5.851 -0.1070 -0.2374  0.1044
  851POPE   GL112025   4.298  10.037   6.219 -0.0599  0.0148 -0.3245
  851POPE   GL212026   4.326  10.410   6.157 -0.0173 -0.1245 -0.3472
  851POPE   C1A12027   4.538   9.923   6.548  0.0286 -0.3460  0.2182
  851POPE   D2A12028   4.691  10.028   7.015  0.0768  0.1023 -0.0208
  851POPE   C3A12029   4.675   9.727   7.361  0.2152 -0.2249  0.0749
  851POPE   C4A12030   4.740   9.625   7.815 -0.2599 -0.0491 -0.4939
  851POPE   C1B12031   4.473  10.485   6.512  0.0454 -0.0078  0.0060
  851POPE   C2B12032   4.726  10.407   6.744 -0.2027 -0.1041 -0.0822
  851POPE   C3B12033   4.914  10.514   7.105 -0.1531 -0.0495  0.2379
  851POPE   C4B12034   5.200  10.582   7.464 -0.1200  0.0814  0.1228
  852POPE   NH312035  15.526   7.137   5.828  0.0964  0.0694 -0.0955
  852POPE   PO412036  15.096   6.865   5.802  0.1218  0.1893  0.1818
  852POPE   GL112037  15.010   7.030   6.215 -0.3300  0.0508 -0.0366
  852POPE   GL212038  15.284   7.274   6.251  0.2459 -0.0916 -0.1031
  852POPE   C1A12039  14.886   6.955   6.698 -0.1069 -0.2832 -0.0087
  852POPE   D2A12040  14.456   6.746   6.712  0.2736 -0.0157 -0.4478
  852POPE   C3A12041  14.265   6.403   6.420 -0.0392  0.0405 -0.2759
  852POPE   C4A12042  13.913   6.058   6.622  0.1027  0.0598 -0.0851
  852POPE   C1B12043  15.037   7.422   6.612 -0.0059 -0.0024  0.1913
  852POPE   C2B12044  14.783   7.550   7.012  0.0699 -0.1190  0.0062
  852POPE   C3B12045  14.615   7.342   7.360 -0.0158 -0.0524  0.1642
  852POPE   C4B12046  14.648   7.097   7.676 -0.0333  0.1876  0.2352
  853POPE   NH312047  13.271  17.661   4.788  0.2762  0.0886 -0.1362
  853POPE   PO412048  13.712  17.500   4.927  0.4325 -0.0083  0.1707
  853POPE   GL112049  13.830  17.586   5.317 -0.0939  0.1388  0.2569
  853POPE   GL212050  13.874  17.299   5.430 -0.1912  0.0001  0.0093
  853POPE   C1A12051  13.850  17.856   5.643  0.0551 -0.4035 -0.1295
  853POPE   D2A12052  13.599  18.104   5.930 -0.0893  0.1424 -0.1220
  853POPE   C3A12053  13.557  17.963   6.281 -0.3888 -0.2459 -0.0132
  853POPE   C4A12054  13.628  17.990   6.776 -0.1202 -0.4094  0.0988
  853POPE   C1B12055  13.813  17.042   5.732 -0.1150 -0.0986  0.0918
  853POPE   C2B12056  13.752  16.827   6.074 -0.1299  0.2095 -0.1562
  853POPE   C3B12057  13.698  16.802   6.464 -0.0918 -0.0948 -0.2061
  853POPE   C4B12058  13.609  16.558   6.831 -0.1290 -0.0023  0.0484
  854POPE   NH312059   9.519   5.980   5.474  0.0499  0.0341 -0.3686
  854POPE   PO412060   9.182   5.635   5.615  0.0528  0.0287  0.2710
  854POPE   GL112061   9.510   5.680   5.952 -0.1442  0.1910 -0.0742
  854POPE   GL212062   9.504   5.948   6.036  0.0715  0.1536  0.0151
  854POPE   C1A12063   9.750   5.575   6.303 -0.0185 -0.0526  0.1464
  854POPE   D2A12064   9.953   5.407   6.662  0.2324 -0.1528  0.1159
  854POPE   C3A12065   9.693   5.068   6.979  0.0344 -0.3203  0.5689
  854POPE   C4A12066   9.284   4.752   6.798  0.0780 -0.1131 -0.0470
  854POPE   C1B12067   9.533   5.977   6.519  0.1385 -0.3218  0.0584
  854POPE   C2B12068   9.676   5.829   6.902  0.0833  0.2647 -0.1451
  854POPE   C3B12069   9.857   5.626   7.310 -0.0712 -0.0518  0.0383
  854POPE   C4B12070   9.805   5.290   7.573  0.0173 -0.0279  0.0445
  855POPE   NH312071   6.240   9.375   5.980 -0.1339  0.2351 -0.1365
  855POPE   PO412072   6.733   9.233   5.980 -0.1421 -0.1224  0.4285
  855POPE   GL112073   6.844   9.312   6.333  0.2385  0.0036 -0.0862
  855POPE   GL212074   6.947   9.626   6.531 -0.3634 -0.1905 -0.0419
  855POPE   C1A12075   6.735   9.185   6.778  0.1947  0.0213 -0.3388
  855POPE   D2A12076   6.893   9.057   7.134 -0.1833 -0.2474  0.0670
  855POPE   C3A12077   6.685   9.116   7.426 -0.0727 -0.0208  0.2034
  855POPE   C4A12078   6.700   9.209   7.906  0.1030 -0.1159  0.0713
  855POPE   C1B12079   6.893   9.631   6.978  0.0921 -0.0686 -0.0137
  855POPE   C2B12080   6.916   9.563   7.458 -0.0612  0.4030  0.1217
  855POPE   C3B12081   7.148   9.795   7.642  0.1484  0.2146 -0.2203
  855POPE   C4B12082   7.392   9.738   7.986 -0.0622  0.2856 -0.1061
  856POPE   NH312083   2.162  16.389   6.010  0.2025  0.1101  0.3889
  856POPE   PO412084   2.573  16.342   6.012  0.0672  0.3575  0.3346
  856POPE   GL112085   2.528  16.136   6.351  0.1246  0.0653 -0.2051
  856POPE   GL212086   2.210  16.245   6.519  0.1486 -0.3044 -0.1275
  856POPE   C1A12087   2.498  15.824   6.692 -0.1168  0.0305 -0.2256
  856POPE   D2A12088   2.424  15.522   7.055  0.3145  0.4314 -0.3559
  856POPE   C3A12089   2.684  15.552   7.455 -0.0505 -0.0063  0.1834
  856POPE   C4A12090   2.518  15.521   7.862  0.1316  0.2053  0.2311
  856POPE   C1B12091   2.101  16.468   6.982  0.0289  0.1583  0.3030
  856POPE   C2B12092   2.294  16.430   7.372  0.1827 -0.0951 -0.0483
  856POPE   C3B12093   2.696  16.402   7.559  0.2408  0.1696 -0.0015
  856POPE   C4B12094   3.035  16.232   7.350 -0.0642 -0.2403 -0.1185
  857POPE   NH312095   3.158  15.064   5.721  0.0224 -0.0610  0.1748
  857POPE   PO412096   3.272  14.605   5.731  0.2608 -0.0253 -0.1022
  857POPE   GL112097   3.145  14.677   6.159 -0.0846  0.2067 -0.2389
  857POPE   GL212098   3.429  14.851   6.156  0.2199  0.0750  0.0189
  857POPE   C1A12099   3.178  14.896   6.590  0.0473  0.0279 -0.2086
  857POPE   D2A12100   3.174  14.886   7.039  0.2130  0.2969 -0.1701
  857POPE   C3A12101   3.091  14.594   7.377 -0.2453  0.2041  0.1344
  857POPE   C4A12102   3.074  14.297   7.675  0.1020 -0.1946 -0.2094
  857POPE   C1B12103   3.934  14.813   6.094  0.2384  0.0032  0.2909
  857POPE   C2B12104   4.353  14.569   6.380 -0.0441 -0.1066 -0.2484
  857POPE   C3B12105   4.641  14.480   6.801  0.0519  0.1893 -0.0034
  857POPE   C4B12106   4.566  14.720   7.133 -0.2333 -0.2820 -0.0030
  858POPE   NH312107   6.388  17.338   5.326 -0.2061 -0.1045  0.0051
  858POPE   PO412108   6.040  17.165   5.610 -0.1522 -0.1913 -0.0222
  858POPE   GL112109   6.276  17.268   5.913 -0.2137  0.0158  0.3345
  858POPE   GL212110   6.262  16.883   5.969  0.1341  0.2603  0.2732
  858POPE   C1A12111   6.418  17.219   6.405  0.0819 -0.2140 -0.0253
  858POPE   D2A12112   6.645  17.145   6.744 -0.0904  0.0140 -0.0462
  858POPE   C3A12113   6.743  17.516   7.065 -0.1189 -0.2196  0.1616
  858POPE   C4A12114   6.885  17.729   7.515 -0.0310 -0.1711  0.0063
  858POPE   C1B12115   5.939  16.980   6.203 -0.0047 -0.1447  0.2505
  858POPE   C2B12116   5.806  17.017   6.655 -0.2620 -0.1266 -0.1795
  858POPE   C3B12117   5.663  17.320   7.022  0.3133 -0.2157 -0.2110
  858POPE   C4B12118   5.415  17.630   7.198 -0.1334  0.0085  0.0157
  859POPE   NH312119  11.746   1.673   5.153 -0.0950  0.0467  0.1060
  859POPE   PO412120  11.578   1.977   5.584 -0.0060 -0.0428 -0.1688
  859POPE   GL112121  11.613   1.863   6.017 -0.1080  0.2136 -0.1126
  859POPE   GL212122  11.430   2.020   6.249  0.1880  0.0590 -0.0194
  859POPE   C1A12123  11.851   2.052   6.409  0.1085  0.0520  0.3134
  859POPE   D2A12124  12.008   1.982   6.861 -0.1922  0.0780 -0.0132
  859POPE   C3A12125  12.094   1.652   6.971 -0.0600  0.0660 -0.0701
  859POPE   C4A12126  11.933   1.179   7.100 -0.2577  0.1135  0.0655
  859POPE   C1B12127  11.466   2.303   6.570 -0.2341  0.0782  0.2630
  859POPE   C2B12128  11.375   2.344   6.993  0.0228 -0.1544  0.0116
  859POPE   C3B12129  11.408   2.411   7.417  0.3094  0.0510 -0.1166
  859POPE   C4B12130  11.917   2.459   7.474 -0.2400 -0.1367 -0.1169
  860POPE   NH312131  10.221   5.573   5.434  0.1503  0.1586 -0.0157
  860POPE   PO412132  10.342   5.934   5.355 -0.1208 -0.1514 -0.0288
  860POPE   GL112133  10.528   5.883   5.843  0.3820  0.3044  0.1490
  860POPE   GL212134  10.761   6.049   5.896 -0.1602  0.0631 -0.1509
  860POPE   C1A12135  10.532   6.149   6.306 -0.1826  0.0131 -0.2456
  860POPE   D2A12136  10.661   6.284   6.712 -0.0687  0.1195  0.0734
  860POPE   C3A12137  10.757   6.274   7.196  0.0304 -0.0626  0.2757
  860POPE   C4A12138  10.757   6.424   7.641 -0.0462  0.0203 -0.0750
  860POPE   C1B12139  10.968   5.799   6.246 -0.2279 -0.0524  0.2850
  860POPE   C2B12140  11.097   5.463   6.552 -0.0565  0.3148  0.0305
  860POPE   C3B12141  11.109   5.234   6.991  0.0420  0.1445  0.0646
  860POPE   C4B12142  11.495   5.018   7.044 -0.0419  0.1240  0.2230
  861POPE   NH312143  16.597   9.224   5.557 -0.0859  0.3783  0.1232
  861POPE   PO412144  16.339   8.762   5.620  0.1971 -0.0947  0.0383
  861POPE   GL112145  16.631   8.846   5.926 -0.0327  0.1681 -0.3249
  861POPE   GL212146  16.553   9.109   6.197  0.1998 -0.3704 -0.3613
  861POPE   C1A12147  16.846   8.653   6.330 -0.0582 -0.2153 -0.0655
  861POPE   D2A12148  17.025   8.619   6.738  0.0860 -0.3312  0.0300
  861POPE   C3A12149  16.880   8.378   7.085 -0.0781 -0.1397  0.0004
  861POPE   C4A12150  16.605   8.186   7.298 -0.3158 -0.2396 -0.0262
  861POPE   C1B12151  16.745   9.154   6.589  0.0298  0.3170 -0.1578
  861POPE   C2B12152  16.864   9.024   6.973  0.1582  0.2411 -0.2639
  861POPE   C3B12153  16.797   8.831   7.385  0.0966 -0.0360  0.0385
  861POPE   C4B12154  16.975   8.503   7.553 -0.0205  0.1611 -0.1153
  862POPE   NH312155   7.781   7.068   5.883 -0.0038  0.2357  0.3346
  862POPE   PO412156   7.804   6.600   5.967  0.0464 -0.2435  0.2664
  862POPE   GL112157   7.795   6.374   6.296 -0.2098 -0.3605  0.3233
  862POPE   GL212158   7.906   6.173   6.331  0.1822  0.2633  0.0719
  862POPE   C1A12159   7.924   6.459   6.717 -0.0273 -0.1557 -0.0452
  862POPE   D2A12160   7.956   6.347   7.159 -0.1812  0.2799 -0.4172
  862POPE   C3A12161   8.224   6.542   7.447  0.0401 -0.1204 -0.3061
  862POPE   C4A12162   8.398   6.667   7.892  0.0704  0.3716 -0.1216
  862POPE   C1B12163   7.868   5.996   6.647  0.2849  0.1881  0.0689
  862POPE   C2B12164   7.833   5.759   7.032  0.2084  0.0522 -0.1642
  862POPE   C3B12165   7.808   5.659   7.453  0.0245 -0.1578 -0.3075
  862POPE   C4B12166   7.887   5.829   7.844  0.0043  0.0362  0.1469
  863POPE   NH312167  10.546  12.553   5.528 -0.3072  0.2380 -0.0382
  863POPE   PO412168  10.282  12.325   5.749 -0.2183 -0.2700  0.1456
  863POPE   GL112169  10.241  12.178   6.225 -0.0951  0.1044 -0.3254
  863POPE   GL212170  10.500  12.175   6.462 -0.2419  0.2231 -0.0279
  863POPE   C1A12171  10.175  11.786   6.466 -0.1429 -0.0526  0.0021
  863POPE   D2A12172  10.104  11.817   6.889  0.2590 -0.4495  0.1603
  863POPE   C3A12173   9.856  12.096   7.155  0.1609  0.2033  0.1263
  863POPE   C4A12174   9.605  12.285   7.211  0.1644  0.2940 -0.1096
  863POPE   C1B12175  10.337  12.244   6.794  0.3985  0.1355 -0.0600
  863POPE   C2B12176  10.004  12.527   6.865  0.2622 -0.4956  0.1410
  863POPE   C3B12177   9.681  12.755   7.081  0.2191  0.0845  0.0438
  863POPE   C4B12178   9.322  12.727   6.886  0.1057 -0.0276 -0.2723
  864POPE   NH312179   5.252  10.598   5.613  0.2271 -0.1370  0.5444
  864POPE   PO412180   4.785  10.894   5.560 -0.0908  0.0968  0.1346
  864POPE   GL112181   4.601  11.095   5.950 -0.3273 -0.2208  0.1614
  864POPE   GL212182   4.843  11.201   6.125  0.0483  0.0750 -0.0658
  864POPE   C1A12183   4.428  10.936   6.247 -0.3187 -0.2824 -0.0052
  864POPE   D2A12184   4.060  10.817   6.309 -0.1086  0.2068 -0.0316
  864POPE   C3A12185   4.005  10.854   6.692  0.2044  0.0447 -0.3654
  864POPE   C4A12186   4.054  10.877   7.178 -0.0334  0.3327  0.1306
  864POPE   C1B12187   4.656  11.373   6.511  0.0894  0.1268 -0.0210
  864POPE   C2B12188   4.819  11.376   6.906 -0.0899 -0.3203  0.0678
  864POPE   C3B12189   4.944  11.062   7.258  0.4569 -0.0466  0.2658
  864POPE   C4B12190   5.060  11.108   7.673  0.0523  0.1512 -0.1573
  865POPE   NH312191   4.855   6.799   5.986  0.2134 -0.2107  0.3044
  865POPE   PO412192   4.977   7.187   6.063 -0.0076 -0.1286  0.0085
  865POPE   GL112193   5.082   6.885   6.396  0.0093  0.0925  0.1389
  865POPE   GL212194   5.357   7.181   6.386  0.1783  0.0508 -0.2974
  865POPE   C1A12195   4.954   6.642   6.756  0.0529 -0.0389  0.0845
  865POPE   D2A12196   4.956   6.399   7.107  0.0639 -0.0431  0.2278
  865POPE   C3A12197   5.276   6.112   7.415  0.1721  0.0378 -0.0290
  865POPE   C4A12198   5.115   6.014   7.741  0.0054  0.0454  0.1349
  865POPE   C1B12199   5.576   6.884   6.639  0.0146  0.1025  0.2240
  865POPE   C2B12200   5.909   6.638   6.691 -0.0294 -0.1974 -0.1034
  865POPE   C3B12201   6.111   6.331   6.969 -0.5028 -0.0226  0.0124
  865POPE   C4B12202   6.175   6.038   7.312 -0.3871 -0.1739  0.0939
  866POPE   NH312203   7.531  18.386   5.487  0.2049 -0.1276  0.1525
  866POPE   PO412204   7.807  18.668   5.418  0.2897 -0.0224 -0.1261
  866POPE   GL112205   7.918  18.550   5.863  0.1393  0.2397  0.0475
  866POPE   GL212206   8.136  18.223   5.828  0.0176  0.3942 -0.3403
  866POPE   C1A12207   7.830  18.582   6.210  0.2579  0.1310  0.1413
  866POPE   D2A12208   7.623  18.858   6.613 -0.2684  0.0848  0.1061
  866POPE   C3A12209   7.235  18.803   6.773  0.3394 -0.2943 -0.0337
  866POPE   C4A12210   6.914  18.718   6.984  0.0917 -0.3137 -0.2506
  866POPE   C1B12211   8.340  18.407   6.145 -0.1354 -0.2191 -0.0084
  866POPE   C2B12212   8.230  18.559   6.611 -0.0133 -0.0331 -0.2178
  866POPE   C3B12213   8.084  18.884   6.934 -0.0430  0.0935 -0.1140
  866POPE   C4B12214   7.841  19.254   6.950  0.2214  0.0879  0.2667
  867POPE   NH312215  17.845  14.853   5.682  0.0177 -0.3221 -0.1143
  867POPE   PO412216  17.530  14.914   5.586  0.2813 -0.0588 -0.2650
  867POPE   GL112217  17.560  15.221   6.001  0.0481 -0.2827 -0.4624
  867POPE   GL212218  17.323  15.271   6.083  0.1316 -0.1506  0.3646
  867POPE   C1A12219  17.756  15.264   6.366  0.1950  0.1633 -0.0357
  867POPE   D2A12220  17.544  15.421   6.744  0.0484  0.3225 -0.1488
  867POPE   C3A12221  17.190  15.534   6.654 -0.1325 -0.1264 -0.4205
  867POPE   C4A12222  16.833  15.629   6.448  0.2165 -0.1117  0.1486
  867POPE   C1B12223  17.242  15.074   6.487  0.0440 -0.0942 -0.1123
  867POPE   C2B12224  17.163  15.132   6.979  0.2197  0.0051 -0.0698
  867POPE   C3B12225  16.955  14.872   7.285 -0.1674  0.3100 -0.0767
  867POPE   C4B12226  16.993  14.451   7.532  0.1963  0.2135 -0.4583
  868POPE   NH312227   3.274   5.985   5.669 -0.1746 -0.2434  0.0752
  868POPE   PO412228   2.871   5.822   5.717 -0.1699  0.0676  0.0627
  868POPE   GL112229   2.751   5.867   6.184 -0.1790  0.1950 -0.2061
  868POPE   GL212230   3.101   5.909   6.240 -0.1303  0.0011  0.0821
  868POPE   C1A12231   2.714   5.894   6.591  0.2739 -0.0850  0.0587
  868POPE   D2A12232   2.790   6.033   6.867 -0.0180 -0.1495  0.1016
  868POPE   C3A12233   2.754   5.922   7.275 -0.2537  0.1697 -0.0258
  868POPE   C4A12234   3.009   5.699   7.624 -0.1413 -0.0413  0.1539
  868POPE   C1B12235   3.538   5.828   6.402  0.0079 -0.0465  0.1853
  868POPE   C2B12236   3.702   5.689   6.773 -0.0760 -0.1485  0.1971
  868POPE   C3B12237   3.974   5.549   7.084  0.1461  0.0323  0.3517
  868POPE   C4B12238   4.055   5.127   7.347  0.0052 -0.3405  0.2231
  869POPE   NH312239  12.262   0.998   5.226  0.0415  0.2445 -0.0996
  869POPE   PO412240  11.842   1.113   5.292 -0.4167 -0.3391  0.2232
  869POPE   GL112241  11.969   1.145   5.721 -0.0864 -0.1569 -0.0765
  869POPE   GL212242  11.870   0.920   5.942  0.0930  0.0172 -0.0852
  869POPE   C1A12243  11.818   1.369   6.092 -0.4309  0.0628  0.1847
  869POPE   D2A12244  12.132   1.711   6.137  0.0076  0.4486 -0.0824
  869POPE   C3A12245  12.294   2.069   6.130 -0.1670  0.0704 -0.0430
  869POPE   C4A12246  12.301   2.423   6.449  0.1567  0.0025  0.1875
  869POPE   C1B12247  11.926   0.904   6.291  0.1844 -0.0828 -0.1113
  869POPE   C2B12248  11.937   0.536   6.404  0.1779 -0.1773  0.0343
  869POPE   C3B12249  11.825   0.275   6.698  0.0877 -0.3363  0.1683
  869POPE   C4B12250  11.910  -0.013   7.116 -0.2132 -0.0075 -0.1409
  870POPE   NH312251  11.846   8.097   5.513  0.0074 -0.0199  0.1753
  870POPE   PO412252  11.569   8.384   5.760  0.1668  0.1357  0.2692
  870POPE   GL112253  11.516   7.993   6.013  0.0443  0.0285  0.0873
  870POPE   GL212254  11.303   7.991   6.258  0.1442 -0.0719  0.3678
  870POPE   C1A12255  11.783   7.869   6.336  0.4028 -0.2581 -0.2949
  870POPE   D2A12256  11.938   7.977   6.822 -0.0382  0.0847  0.3682
  870POPE   C3A12257  12.170   7.777   7.184  0.0248  0.3289  0.2675
  870POPE   C4A12258  12.479   7.648   7.415  0.2161  0.2618 -0.0225
  870POPE   C1B12259  10.984   7.805   6.514 -0.0499 -0.0012 -0.0879
  870POPE   C2B12260  10.715   7.683   6.872  0.0918  0.4493  0.2546
  870POPE   C3B12261  10.510   7.974   7.206  0.0695 -0.2575  0.1034
  870POPE   C4B12262  10.240   8.221   7.501 -0.0523  0.0228 -0.3484
  871POPE   NH312263  10.696  12.020   6.042  0.1600 -0.1573  0.2928
  871POPE   PO412264  10.638  12.534   6.052  0.0777  0.1586 -0.1214
  871POPE   GL112265  10.649  12.651   6.491 -0.2575  0.2544  0.0534
  871POPE   GL212266  10.339  12.708   6.498 -0.2131 -0.1103  0.5374
  871POPE   C1A12267  10.577  12.806   6.997 -0.2062 -0.0467  0.2757
  871POPE   D2A12268  10.549  13.051   7.339  0.2508 -0.3183  0.4610
  871POPE   C3A12269  10.352  12.920   7.751  0.1713 -0.1200  0.0761
  871POPE   C4A12270   9.960  12.735   8.001 -0.2042 -0.0141 -0.3668
  871POPE   C1B12271  10.259  13.175   6.330  0.3054  0.1477  0.4472
  871POPE   C2B12272  10.347  13.638   6.257  0.2093 -0.1022 -0.2961
  871POPE   C3B12273  10.030  13.891   6.051 -0.0243 -0.4251  0.1441
  871POPE   C4B12274   9.581  14.071   6.096  0.1595 -0.0772 -0.2352
  872YOPE   NH312275   3.845  16.371   5.551  0.0792 -0.0805  0.0292
  872YOPE   PO412276   3.381  16.356   5.641  0.0956  0.0353  0.2410
  872YOPE   GL112277   3.458  16.529   5.976 -0.0506 -0.1258 -0.1330
  872YOPE   GL212278   3.703  16.432   6.113 -0.2429  0.0336  0.0525
  872YOPE   C1A12279   3.319  16.377   6.389  0.4899  0.2659 -0.0143
  872YOPE   D2A12280   2.831  16.485   6.436  0.0392 -0.2932  0.1210
  872YOPE   C3A12281   2.541  16.785   6.617  0.0195  0.2683  0.0294
  872YOPE   C4A12282   2.081  16.789   6.479  0.0559 -0.0902  0.0283
  872YOPE   C1B12283   3.794  16.161   6.458 -0.1584 -0.0062 -0.3488
  872YOPE   C2B12284   3.834  16.012   6.872 -0.2234 -0.0483 -0.3552
  872YOPE   D3B12285   4.190  15.793   7.086 -0.1229  0.2806  0.1374
  872YOPE   C4B12286   4.158  15.654   7.531  0.2362  0.4759  0.2307
  873YOPE   NH312287  12.457   1.998   5.327 -0.0374 -0.3846 -0.0092
  873YOPE   PO412288  12.855   1.937   5.349 -0.1042 -0.0370 -0.0492
  873YOPE   GL112289  12.803   2.097   5.707  0.3617  0.1657 -0.2902
  873YOPE   GL212290  13.106   1.986   5.887 -0.0621  0.3025 -0.1865
  873YOPE   C1A12291  12.786   2.292   6.136  0.1229  0.3766  0.1360
  873YOPE   D2A12292  12.774   2.292   6.592 -0.1659 -0.2176  0.0639
  873YOPE   C3A12293  12.462   2.060   6.815 -0.1345 -0.0042  0.2484
  873YOPE   C4A12294  12.341   2.010   7.272  0.0611 -0.0264 -0.1000
  873YOPE   C1B12295  13.095   1.979   6.300  0.5230  0.1743  0.0119
  873YOPE   C2B12296  13.142   1.832   6.696 -0.0764  0.0049  0.1421
  873YOPE   D3B12297  13.395   1.589   7.027 -0.0167 -0.1704  0.0468
  873YOPE   C4B12298  13.657   1.413   7.259  0.0283 -0.2695 -0.1565
  874YOPE   NH312299  12.224  11.440   5.572 -0.2748  0.0357  0.2748
  874YOPE   PO412300  11.906  11.805   5.529  0.2144  0.3463 -0.1902
  874YOPE   GL112301  12.030  11.741   5.952 -0.0904 -0.1496  0.2674
  874YOPE   GL212302  11.945  11.431   6.037 -0.1209  0.2478 -0.0074
  874YOPE   C1A12303  12.458  11.645   6.258  0.0325 -0.0506  0.4620
  874YOPE   D2A12304  12.779  11.919   6.533 -0.0870  0.0731  0.0090
  874YOPE   C3A12305  12.830  11.868   6.964  0.4447  0.1397 -0.4672
  874YOPE   C4A12306  13.194  11.752   7.276  0.0976 -0.3032 -0.0666
  874YOPE   C1B12307  11.916  11.678   6.474  0.1278  0.0170  0.1075
  874YOPE   C2B12308  11.781  11.712   6.886 -0.0061 -0.3747  0.1800
  874YOPE   D3B12309  11.909  11.747   7.264  0.2181 -0.0338  0.3435
  874YOPE   C4B12310  12.142  11.656   7.604 -0.1621  0.2326  0.0529
  875YOPE   NH312311  10.120  15.491   5.647 -0.0673  0.1240 -0.3663
  875YOPE   PO412312   9.761  15.295   5.841  0.0506 -0.0328  0.3994
  875YOPE   GL112313  10.093  15.302   6.139  0.1393 -0.1545 -0.2183
  875YOPE   GL212314  10.051  15.404   6.465  0.0605  0.2101 -0.0849
  875YOPE   C1A12315  10.335  14.880   6.177 -0.1288 -0.0876  0.2098
  875YOPE   D2A12316  10.479  14.477   6.034  0.0273 -0.3646 -0.2909
  875YOPE   C3A12317  10.449  14.198   6.430  0.3901  0.2104 -0.1776
  875YOPE   C4A12318  10.052  13.976   6.549 -0.0900 -0.0690  0.1437
  875YOPE   C1B12319   9.874  15.447   6.942  0.1466 -0.2680 -0.0171
  875YOPE   C2B12320  10.127  15.375   7.323  0.1337 -0.2153 -0.1977
  875YOPE   D3B12321  10.301  15.639   7.700  0.0374  0.0759 -0.0849
  875YOPE   C4B12322  10.110  15.729   8.093 -0.2674 -0.1630  0.0282
  876YOPE   NH312323   9.389  12.126   5.669 -0.0750 -0.1631  0.0055
  876YOPE   PO412324   8.955  12.360   5.653  0.5305 -0.1920 -0.1054
  876YOPE   GL112325   8.808  12.499   6.095  0.0195 -0.1954  0.0298
  876YOPE   GL212326   8.644  12.173   6.115 -0.0850  0.2861  0.0896
  876YOPE   C1A12327   8.564  12.494   6.449  0.0514  0.1797 -0.0150
  876YOPE   D2A12328   8.471  12.447   6.857 -0.3098  0.1840 -0.0647
  876YOPE   C3A12329   8.177  12.396   7.086 -0.1288 -0.0853 -0.0183
  876YOPE   C4A12330   7.890  12.664   7.158 -0.1741 -0.2516 -0.0757
  876YOPE   C1B12331   8.627  11.988   6.588 -0.0516 -0.0085 -0.2493
  876YOPE   C2B12332   8.586  11.993   7.124  0.1723  0.1831  0.1229
  876YOPE   D3B12333   8.351  12.029   7.527 -0.0499 -0.0841  0.1895
  876YOPE   C4B12334   7.895  12.239   7.543 -0.3542 -0.0949 -0.0127
  877YOPE   NH312335  14.116   0.165   5.347 -0.1330 -0.1556  0.1919
  877YOPE   PO412336  14.548   0.168   5.326 -0.3628 -0.0334 -0.3459
  877YOPE   GL112337  14.526   0.367   5.636  0.1804 -0.4122  0.0837
  877YOPE   GL212338  14.310   0.297   5.804 -0.1130  0.0282 -0.1314
  877YOPE   C1A12339  14.658   0.729   5.921  0.1374  0.0928 -0.0913
  877YOPE   D2A12340  14.881   0.749   6.361  0.1776  0.0715  0.0883
  877YOPE   C3A12341  14.808   0.369   6.619  0.1887 -0.0173  0.1481
  877YOPE   C4A12342  15.043  -0.039   6.787  0.0971 -0.3587  0.2117
  877YOPE   C1B12343  14.015   0.195   6.188  0.0605 -0.0944 -0.0179
  877YOPE   C2B12344  13.798   0.202   6.484 -0.2379  0.2995  0.0552
  877YOPE   D3B12345  13.923   0.042   6.868  0.2266  0.4817 -0.1904
  877YOPE   C4B12346  13.853  -0.270   7.021  0.1089 -0.3180 -0.1286
  878YOPE   NH312347   4.439  13.015   5.599 -0.0109  0.0013 -0.2134
  878YOPE   PO412348   4.079  12.783   5.559 -0.2367 -0.0673  0.0499
  878YOPE   GL112349   4.289  12.808   6.033  0.0757 -0.0186 -0.2477
  878YOPE   GL212350   4.511  12.916   6.230  0.0892  0.1123  0.1289
  878YOPE   C1A12351   4.073  12.825   6.412  0.1823 -0.1962  0.0967
  878YOPE   D2A12352   4.204  13.122   6.699  0.2594  0.2955 -0.0086
  878YOPE   C3A12353   4.194  13.171   7.024  0.1769 -0.0043 -0.1688
  878YOPE   C4A12354   4.472  13.079   7.314  0.1003 -0.2966 -0.1043
  878YOPE   C1B12355   4.671  13.054   6.454 -0.0879  0.2633  0.3718
  878YOPE   C2B12356   4.751  13.050   6.861  0.1817  0.1440 -0.2612
  878YOPE   D3B12357   4.828  12.689   7.016 -0.0720 -0.1338 -0.4312
  878YOPE   C4B12358   4.796  12.708   7.408 -0.3305  0.2206  0.3469
  879YOPE   NH312359   7.426  15.046   5.636  0.0354 -0.0525  0.2444
  879YOPE   PO412360   7.670  14.677   5.661  0.2591  0.1005  0.1261
  879YOPE   GL112361   7.772  14.674   6.058  0.1339 -0.0315 -0.0260
  879YOPE   GL212362   7.739  15.039   6.151  0.2747 -0.3619 -0.1776
  879YOPE   C1A12363   7.849  14.596   6.483  0.0969  0.2724  0.0848
  879YOPE   D2A12364   7.993  14.715   6.814 -0.1283 -0.0087  0.0342
  879YOPE   C3A12365   7.992  14.621   7.220  0.1378 -0.4209  0.1753
  879YOPE   C4A12366   7.833  15.111   7.508  0.0347 -0.1501 -0.2673
  879YOPE   C1B12367   7.490  14.940   6.493 -0.1091  0.2650  0.0283
  879YOPE   C2B12368   7.528  14.973   7.020  0.2013  0.0728 -0.2197
  879YOPE   D3B12369   7.325  14.977   7.336  0.2139  0.0700  0.0286
  879YOPE   C4B12370   7.109  14.744   7.612  0.2104 -0.2029 -0.2921
  880YOPE   NH312371   6.037  15.289   5.581  0.2811  0.1769  0.1591
  880YOPE   PO412372   5.669  15.591   5.427 -0.1855 -0.4730 -0.2414
  880YOPE   GL112373   5.759  15.654   5.874 -0.0816 -0.1398 -0.0267
  880YOPE   GL212374   5.979  15.921   5.981  0.1193 -0.1629 -0.2819
  880YOPE   C1A12375   5.771  15.335   6.267  0.0565 -0.0823  0.2297
  880YOPE   D2A12376   5.628  15.099   6.739 -0.3760 -0.2038 -0.0725
  880YOPE   C3A12377   5.869  14.866   7.058 -0.0178 -0.0861  0.0494
  880YOPE   C4A12378   6.225  14.910   7.262 -0.0033  0.0604 -0.0850
  880YOPE   C1B12379   5.915  15.831   6.373 -0.0203 -0.3121 -0.0295
  880YOPE   C2B12380   5.792  15.769   6.856 -0.1672  0.0006 -0.3223
  880YOPE   D3B12381   5.529  15.719   7.230 -0.2485 -0.3389 -0.1419
  880YOPE   C4B12382   5.165  15.828   7.500 -0.2022  0.2768 -0.1614
  881YOPE   NH312383  12.796   9.220   5.569  0.1193  0.1748  0.0101
  881YOPE   PO412384  12.432   9.104   5.797  0.1441  0.1317  0.1645
  881YOPE   GL112385  12.778   9.118   6.133 -0.2693  0.0265 -0.0762
  881YOPE   GL212386  12.766   9.496   6.185  0.0931  0.0222  0.1309
  881YOPE   C1A12387  12.751   9.021   6.494 -0.0630  0.2932 -0.0578
  881YOPE   D2A12388  12.740   8.781   6.885  0.0891 -0.2377 -0.1203
  881YOPE   C3A12389  12.478   8.904   6.994  0.3385  0.2138 -0.2238
  881YOPE   C4A12390  12.447   9.192   7.226  0.1174 -0.2797 -0.0294
  881YOPE   C1B12391  12.367   9.581   6.420  0.2480  0.0131  0.0978
  881YOPE   C2B12392  12.234   9.913   6.643  0.4084  0.0148  0.1427
  881YOPE   D3B12393  12.144  10.211   7.013 -0.0745 -0.0348  0.0851
  881YOPE   C4B12394  12.122  10.650   7.106  0.1474  0.0092  0.0112
  882YOPE   NH312395  15.878   7.867   5.894  0.3182 -0.1367  0.1474
  882YOPE   PO412396  15.391   7.681   5.945  0.0464 -0.1095 -0.1937
  882YOPE   GL112397  15.160   7.741   6.261 -0.0368  0.1274 -0.2521
  882YOPE   GL212398  14.756   7.898   6.295 -0.1348 -0.0003  0.3104
  882YOPE   C1A12399  15.196   7.908   6.653  0.1267 -0.0050  0.3438
  882YOPE   D2A12400  15.214   7.898   6.969  0.0294  0.1893  0.1538
  882YOPE   C3A12401  15.341   8.239   7.246 -0.1478  0.0601 -0.2444
  882YOPE   C4A12402  15.667   8.546   7.625 -0.4985  0.1252 -0.0525
  882YOPE   C1B12403  14.657   7.985   6.631  0.0079 -0.1781 -0.2694
  882YOPE   C2B12404  14.735   8.049   7.089  0.1877 -0.0677  0.2467
  882YOPE   D3B12405  14.966   7.881   7.482 -0.1029 -0.1900 -0.1706
  882YOPE   C4B12406  15.049   7.517   7.703 -0.2332 -0.2082  0.2555
  883YOPE   NH312407   8.860  11.876   5.659  0.2192  0.3224  0.0501
  883YOPE   PO412408   9.249  11.645   5.757  0.4251  0.0966 -0.0194
  883YOPE   GL112409   8.861  11.575   6.061 -0.1686  0.1443  0.2621
  883YOPE   GL212410   8.624  11.490   5.881  0.1644  0.0246 -0.2128
  883YOPE   C1A12411   9.016  11.684   6.519  0.1317  0.1365  0.0276
  883YOPE   D2A12412   8.943  11.708   6.969 -0.1996  0.1902  0.1316
  883YOPE   C3A12413   9.186  11.524   7.276  0.2303 -0.1259  0.2097
  883YOPE   C4A12414   9.561  11.318   7.542 -0.0495 -0.0906 -0.0013
  883YOPE   C1B12415   8.442  11.549   6.367 -0.1770  0.0936 -0.0453
  883YOPE   C2B12416   8.128  11.572   6.594  0.2391 -0.1331  0.2247
  883YOPE   D3B12417   7.686  11.599   6.925  0.1807 -0.2819 -0.0763
  883YOPE   C4B12418   7.590  11.411   7.305 -0.0498 -0.1334 -0.0535
  884YOPE   NH312419   8.923  14.329   5.339 -0.1167 -0.0725 -0.2746
  884YOPE   PO412420   9.217  14.707   5.539  0.2765 -0.3162  0.1061
  884YOPE   GL112421   9.307  14.778   5.947  0.1517  0.1796  0.2346
  884YOPE   GL212422   9.596  14.786   5.969 -0.2020 -0.0023 -0.1860
  884YOPE   C1A12423   9.203  15.076   6.180  0.2965  0.1312  0.1963
  884YOPE   D2A12424   9.413  15.260   6.466 -0.0704  0.1386 -0.1672
  884YOPE   C3A12425   9.198  15.160   6.854  0.0510 -0.0193 -0.1256
  884YOPE   C4A12426   8.849  15.165   7.101 -0.0958  0.1779  0.2455
  884YOPE   C1B12427   9.876  14.899   6.278 -0.0048  0.1388  0.0328
  884YOPE   C2B12428  10.166  14.949   6.667  0.1960 -0.0851 -0.1821
  884YOPE   D3B12429  10.108  14.901   7.175 -0.1569 -0.1162 -0.1778
  884YOPE   C4B12430  10.331  14.718   7.548 -0.2678 -0.0587 -0.3129
  885YOPE   NH312431  17.245  17.310   5.693 -0.1136  0.2209  0.4233
  885YOPE   PO412432  16.901  17.333   5.941 -0.0925  0.3884 -0.0823
  885YOPE   GL112433  17.077  17.160   6.306 -0.0201 -0.1628  0.0394
  885YOPE   GL212434  16.929  16.959   6.366  0.1293 -0.3387 -0.1237
  885YOPE   C1A12435  17.443  17.319   6.537 -0.0921 -0.1281 -0.0605
  885YOPE   D2A12436  17.734  17.313   6.864 -0.1643  0.0460 -0.0120
  885YOPE   C3A12437  17.693  17.589   7.308  0.3773 -0.0685  0.0040
  885YOPE   C4A12438  17.670  18.055   7.428 -0.0324 -0.0477  0.4114
  885YOPE   C1B12439  16.845  17.233   6.778  0.0048  0.2385  0.3651
  885YOPE   C2B12440  16.753  17.566   6.994 -0.1833 -0.0084 -0.1956
  885YOPE   D3B12441  16.912  18.027   6.937 -0.1978 -0.4143  0.1921
  885YOPE   C4B12442  17.243  18.330   6.950  0.1483 -0.1869  0.1214
  886YOPE   NH312443   0.414   2.769   5.416  0.2934  0.0703  0.1791
  886YOPE   PO412444   0.591   2.434   5.464 -0.1506 -0.0117 -0.0860
  886YOPE   GL112445   0.626   2.519   5.936  0.1539  0.0156 -0.2693
  886YOPE   GL212446   0.698   2.830   5.844  0.1864  0.0988 -0.1624
  886YOPE   C1A12447   1.074   2.480   6.159 -0.0476  0.2748 -0.0311
  886YOPE   D2A12448   1.254   2.489   6.423 -0.0644 -0.2467  0.2043
  886YOPE   C3A12449   1.177   2.369   6.856 -0.1736 -0.2194 -0.2279
  886YOPE   C4A12450   1.233   2.110   7.252 -0.3184  0.3064 -0.2822
  886YOPE   C1B12451   0.363   3.032   6.205  0.0572  0.1177 -0.0607
  886YOPE   C2B12452   0.327   3.069   6.551  0.2142 -0.2975  0.1064
  886YOPE   D3B12453   0.153   3.087   6.986 -0.4143  0.1334 -0.2486
  886YOPE   C4B12454  -0.144   2.973   7.319  0.2731 -0.0615 -0.0686
  887YOPE   NH312455   7.650   0.586   5.431 -0.1717 -0.4462 -0.2091
  887YOPE   PO412456   8.029   0.389   5.642  0.0239 -0.1526 -0.1516
  887YOPE   GL112457   8.418   0.342   5.963 -0.1803  0.3041 -0.0038
  887YOPE   GL212458   8.649   0.589   6.017  0.1905 -0.3630 -0.0814
  887YOPE   C1A12459   8.794   0.231   6.330  0.3058 -0.0688  0.1752
  887YOPE   D2A12460   9.231   0.087   6.428  0.2829  0.0289  0.0106
  887YOPE   C3A12461   9.283  -0.198   6.733 -0.1934  0.4448 -0.1333
  887YOPE   C4A12462   9.096  -0.641   6.710  0.1880 -0.1587  0.1393
  887YOPE   C1B12463   8.541   0.854   6.313  0.0236  0.2629 -0.3296
  887YOPE   C2B12464   8.703   1.083   6.729 -0.1030 -0.0979 -0.0492
  887YOPE   D3B12465   8.623   1.316   7.157  0.1232  0.1502 -0.0899
  887YOPE   C4B12466   8.737   1.298   7.530  0.0382  0.0855  0.0488
  888YOPE   NH312467  15.886   6.235   5.869  0.0450 -0.3875 -0.0263
  888YOPE   PO412468  15.821   6.651   5.858  0.0423  0.0629  0.1239
  888YOPE   GL112469  15.780   6.846   6.197  0.1393 -0.1266  0.0115
  888YOPE   GL212470  15.424   6.724   6.178 -0.1391 -0.3580 -0.0331
  888YOPE   C1A12471  15.970   6.968   6.554  0.1061 -0.2750 -0.3098
  888YOPE   D2A12472  16.042   7.022   7.003 -0.0643 -0.2014 -0.2180
  888YOPE   C3A12473  16.303   7.317   7.217  0.0213 -0.0384  0.0755
  888YOPE   C4A12474  16.609   7.665   7.379  0.1314  0.2736  0.0621
  888YOPE   C1B12475  15.477   6.728   6.536  0.1123  0.0087  0.1365
  888YOPE   C2B12476  15.418   6.863   6.899  0.1315 -0.1238 -0.1322
  888YOPE   D3B12477  15.563   6.971   7.357 -0.2716  0.2312 -0.0144
  888YOPE   C4B12478  15.693   6.942   7.804  0.1296  0.0955 -0.0956
  889YOPE   NH312479   2.526   7.771   6.130  0.0691 -0.3245 -0.2749
  889YOPE   PO412480   2.436   8.146   5.988 -0.0730  0.0736  0.1878
  889YOPE   GL112481   2.500   8.206   6.470  0.1848 -0.0192 -0.1136
  889YOPE   GL212482   2.504   7.924   6.693  0.0511  0.0379 -0.2690
  889YOPE   C1A12483   2.735   8.407   6.775 -0.3519 -0.0441 -0.0515
  889YOPE   D2A12484   3.200   8.524   6.961 -0.3481  0.0899 -0.0600
  889YOPE   C3A12485   3.352   8.329   7.379  0.0980  0.1290 -0.2003
  889YOPE   C4A12486   3.232   8.114   7.738 -0.1366 -0.0762 -0.0758
  889YOPE   C1B12487   2.479   8.080   7.109  0.1864 -0.1056  0.2046
  889YOPE   C2B12488   2.455   8.398   7.466  0.3050 -0.1987  0.1726
  889YOPE   D3B12489   2.591   8.871   7.661 -0.0893 -0.1947  0.1886
  889YOPE   C4B12490   2.771   9.163   7.492 -0.0498 -0.0378 -0.1013
  890YOPE   NH312491  16.426  11.368   5.609  0.1831 -0.0417 -0.0286
  890YOPE   PO412492  16.098  11.467   5.715 -0.2773  0.1324 -0.2011
  890YOPE   GL112493  16.059  11.573   6.098  0.0205  0.0377  0.0202
  890YOPE   GL212494  15.739  11.690   6.105  0.0034 -0.0842  0.0768
  890YOPE   C1A12495  16.091  11.495   6.542  0.2132 -0.1784 -0.1299
  890YOPE   D2A12496  15.997  11.485   7.051 -0.1139  0.1931 -0.0781
  890YOPE   C3A12497  15.677  11.818   7.119  0.1044 -0.1689 -0.2118
  890YOPE   C4A12498  15.649  12.070   7.425  0.0077 -0.1419 -0.0810
  890YOPE   C1B12499  15.652  11.755   6.520 -0.1440  0.1165  0.0720
  890YOPE   C2B12500  15.607  12.119   6.702 -0.0085  0.1453  0.1162
  890YOPE   D3B12501  15.429  12.331   6.952 -0.0586  0.1442  0.3523
  890YOPE   C4B12502  15.519  12.673   7.102  0.3251  0.1165  0.1107
  891YOPE   NH312503   9.574   4.943   5.564  0.1797  0.2700 -0.3554
  891YOPE   PO412504  10.086   5.096   5.316  0.2591  0.3167 -0.3134
  891YOPE   GL112505  10.053   5.090   5.709 -0.2044  0.1471  0.0208
  891YOPE   GL212506   9.898   5.323   5.844  0.0248 -0.1740  0.1309
  891YOPE   C1A12507   9.848   4.999   6.165 -0.1508 -0.1667  0.1803
  891YOPE   D2A12508   9.475   5.125   6.488 -0.0201 -0.1318  0.1519
  891YOPE   C3A12509   9.383   5.438   6.814  0.1356  0.0937  0.1137
  891YOPE   C4A12510   9.206   5.596   7.126  0.1013  0.0303 -0.0787
  891YOPE   C1B12511  10.226   5.404   6.170  0.2834  0.1167 -0.1970
  891YOPE   C2B12512  10.464   5.648   6.422 -0.1358 -0.0511 -0.1584
  891YOPE   D3B12513  10.615   5.677   6.743  0.4253 -0.1325  0.0141
  891YOPE   C4B12514  10.886   5.701   7.048 -0.0280 -0.1537  0.0460
  892YOPE   NH312515   5.656   2.783   5.928 -0.0628  0.3948 -0.1351
  892YOPE   PO412516   5.358   2.737   5.736  0.0059 -0.0242 -0.0138
  892YOPE   GL112517   5.159   2.570   6.114  0.2484 -0.0882  0.3892
  892YOPE   GL212518   5.392   2.376   6.224 -0.0597  0.1761 -0.0923
  892YOPE   C1A12519   5.062   2.749   6.476  0.1674 -0.0509  0.0431
  892YOPE   D2A12520   4.837   2.978   6.767 -0.2537 -0.1674 -0.3198
  892YOPE   C3A12521   4.411   2.797   6.995 -0.2012 -0.0061  0.0515
  892YOPE   C4A12522   4.189   2.595   7.237 -0.0303 -0.0428  0.0900
  892YOPE   C1B12523   5.545   2.562   6.570  0.1629 -0.0156 -0.1076
  892YOPE   C2B12524   5.265   2.721   6.991  0.2651  0.1017  0.2144
  892YOPE   D3B12525   4.922   2.849   7.231  0.4557  0.4176  0.3295
  892YOPE   C4B12526   4.613   2.708   7.454  0.0102  0.0183  0.0271
  893YOPE   NH312527  12.880   5.820   5.498  0.4614 -0.2793 -0.0255
  893YOPE   PO412528  12.540   6.002   5.303  0.0162 -0.0662 -0.0225
  893YOPE   GL112529  12.575   6.223   5.710 -0.0109  0.2093 -0.0289
  893YOPE   GL212530  12.707   5.929   5.928 -0.0121  0.2018  0.0518
  893YOPE   C1A12531  12.307   6.490   6.003  0.2664 -0.0347  0.4450
  893YOPE   D2A12532  12.212   6.874   6.058  0.0783 -0.0296 -0.1424
  893YOPE   C3A12533  12.189   7.210   6.428 -0.2214 -0.0800  0.0155
  893YOPE   C4A12534  12.140   7.494   6.682  0.1642 -0.0815 -0.0620
  893YOPE   C1B12535  13.111   6.071   6.308  0.0701  0.0502 -0.0873
  893YOPE   C2B12536  13.447   5.789   6.505  0.3921  0.2025 -0.2509
  893YOPE   D3B12537  13.627   5.734   6.980 -0.3427 -0.4441 -0.0096
  893YOPE   C4B12538  13.934   5.874   7.143 -0.0033 -0.1165 -0.0339
  894YOPE   NH312539   8.891  11.407   5.431 -0.2653  0.1482  0.0201
  894YOPE   PO412540   8.687  11.061   5.529  0.2563  0.1912 -0.1384
  894YOPE   GL112541   8.652  10.973   5.947 -0.2797  0.1685 -0.1580
  894YOPE   GL212542   8.276  10.831   5.916 -0.3429 -0.1587  0.0472
  894YOPE   C1A12543   8.896  11.102   6.247 -0.2235  0.2863  0.1611
  894YOPE   D2A12544   8.863  11.272   6.698  0.5105 -0.0533 -0.0084
  894YOPE   C3A12545   8.794  11.189   7.084 -0.0337 -0.1133  0.0364
  894YOPE   C4A12546   8.897  10.953   7.469 -0.0979 -0.4958 -0.2006
  894YOPE   C1B12547   8.380  10.595   6.293  0.1051  0.0530  0.0356
  894YOPE   C2B12548   8.563  10.364   6.651 -0.2407  0.0936 -0.0251
  894YOPE   D3B12549   8.583   9.976   6.973 -0.3423 -0.1189 -0.3289
  894YOPE   C4B12550   8.418   9.771   7.235 -0.0054  0.0977  0.2630
  895YOPE   NH312551  13.591  18.006   4.990  0.1118 -0.2506 -0.0662
  895YOPE   PO412552  13.167  18.141   4.838 -0.4020  0.0380  0.1354
  895YOPE   GL112553  13.201  18.147   5.329  0.1964 -0.2034 -0.2339
  895YOPE   GL212554  13.393  18.363   5.547 -0.0884 -0.4135 -0.3079
  895YOPE   C1A12555  13.154  17.952   5.759  0.1260 -0.3597 -0.1925
  895YOPE   D2A12556  13.147  17.639   6.092 -0.3328  0.4184  0.0337
  895YOPE   C3A12557  13.204  17.742   6.484 -0.1430 -0.1243  0.2074
  895YOPE   C4A12558  13.256  17.603   6.838 -0.0663  0.0780  0.1196
  895YOPE   C1B12559  13.366  18.584   5.827  0.0788  0.1345 -0.0413
  895YOPE   C2B12560  13.602  18.491   6.258  0.1925 -0.0023  0.2052
  895YOPE   D3B12561  13.461  18.401   6.596  0.0004 -0.3241 -0.3688
  895YOPE   C4B12562  13.031  18.331   6.573 -0.4491  0.2854 -0.1191
  896YOPE   NH312563  13.055   8.335   5.791 -0.1558  0.1753  0.0714
  896YOPE   PO412564  12.765   8.739   5.798 -0.4174  0.1139  0.1335
  896YOPE   GL112565  12.617   8.624   6.200  0.0791 -0.3210 -0.0694
  896YOPE   GL212566  12.320   8.723   6.077 -0.0737  0.1859 -0.1747
  896YOPE   C1A12567  12.262   8.719   6.575 -0.1342 -0.3068 -0.0241
  896YOPE   D2A12568  11.883   8.572   6.802 -0.2111  0.1249  0.0178
  896YOPE   C3A12569  11.892   8.321   7.184  0.0703  0.0698  0.0126
  896YOPE   C4A12570  11.877   8.284   7.652 -0.2414  0.2522  0.4099
  896YOPE   C1B12571  12.052   9.060   6.323  0.2457 -0.1974 -0.1179
  896YOPE   C2B12572  12.052   9.123   6.767 -0.0041  0.0288  0.2939
  896YOPE   D3B12573  12.008   8.951   7.237 -0.2016  0.2370 -0.1802
  896YOPE   C4B12574  11.702   8.747   7.549 -0.1337 -0.1760  0.3130
  897YOPE   NH312575   9.597  11.293   5.794  0.1859 -0.0664 -0.1026
  897YOPE   PO412576   9.678  11.620   5.541  0.1309 -0.3361  0.2029
  897YOPE   GL112577   9.810  11.827   6.029  0.0427  0.0043  0.0731
  897YOPE   GL212578   9.650  12.109   6.218  0.3519 -0.1032 -0.3394
  897YOPE   C1A12579   9.550  11.697   6.467  0.0466  0.1714  0.0174
  897YOPE   D2A12580   9.315  11.381   6.748 -0.2548  0.3432 -0.1517
  897YOPE   C3A12581   9.314  11.006   6.644  0.0099  0.1378 -0.2188
  897YOPE   C4A12582   9.470  10.654   6.658  0.0208 -0.1376 -0.1266
  897YOPE   C1B12583   9.722  12.069   6.664  0.1769  0.0939  0.0627
  897YOPE   C2B12584   9.434  11.909   6.932  0.5145 -0.2011 -0.1143
  897YOPE   D3B12585   9.142  12.085   7.332  0.3813  0.1261  0.1859
  897YOPE   C4B12586   8.899  11.857   7.525 -0.3032 -0.6913 -0.0181
  898YOPE   NH312587   7.232   7.137   5.881 -0.3409  0.3333  0.0741
  898YOPE   PO412588   7.109   6.824   5.660  0.2562  0.0104  0.0366
  898YOPE   GL112589   7.126   6.701   6.159  0.0347  0.1245  0.2263
  898YOPE   GL212590   7.453   6.739   6.319  0.1499 -0.1492 -0.0710
  898YOPE   C1A12591   7.098   6.457   6.516 -0.0824 -0.2726 -0.2207
  898YOPE   D2A12592   7.091   6.367   6.948 -0.3446 -0.0824  0.1688
  898YOPE   C3A12593   7.026   6.059   7.224 -0.2521  0.2144 -0.5323
  898YOPE   C4A12594   6.884   5.850   7.580 -0.1019 -0.0364 -0.2654
  898YOPE   C1B12595   7.498   6.677   6.765  0.1164  0.0644 -0.5080
  898YOPE   C2B12596   7.495   6.547   7.129  0.1257 -0.1585  0.0761
  898YOPE   D3B12597   7.428   6.652   7.492 -0.1855 -0.1604 -0.1283
  898YOPE   C4B12598   7.352   6.679   7.901  0.1000 -0.1654  0.0499
  899YOPE   NH312599   0.694  18.217   5.443  0.0628  0.0312 -0.2456
  899YOPE   PO412600   0.296  17.947   5.393  0.0900 -0.0509  0.2628
  899YOPE   GL112601   0.152  18.130   5.761 -0.1907  0.0381  0.1537
  899YOPE   GL212602  -0.003  18.345   5.975 -0.2264 -0.0757 -0.1045
  899YOPE   C1A12603   0.361  18.028   6.245 -0.0964 -0.0672 -0.1657
  899YOPE   D2A12604   0.251  18.002   6.709 -0.1468 -0.0127 -0.0514
  899YOPE   C3A12605   0.149  17.653   6.746  0.1767  0.3555  0.0793
  899YOPE   C4A12606  -0.063  17.489   7.043 -0.0871 -0.0117 -0.2714
  899YOPE   C1B12607  -0.045  18.298   6.372  0.3362  0.3202 -0.0417
  899YOPE   C2B12608   0.118  18.453   6.779 -0.1046  0.2077  0.1135
  899YOPE   D3B12609   0.115  18.509   7.240 -0.2594 -0.5010  0.0410
  899YOPE   C4B12610  -0.041  18.371   7.630 -0.2002 -0.0051  0.1197
  900YOPE   NH312611   1.775  14.272   5.871 -0.0036  0.2498 -0.0091
  900YOPE   PO412612   1.260  14.337   5.812 -0.0376  0.1104 -0.0810
  900YOPE   GL112613   1.364  14.241   6.256 -0.0973 -0.0952  0.2493
  900YOPE   GL212614   1.573  14.110   6.362 -0.0383  0.0620 -0.0209
  900YOPE   C1A12615   1.075  14.168   6.539  0.4625  0.3034  0.2938
  900YOPE   D2A12616   1.198  14.228   6.919 -0.0828  0.0715 -0.0760
  900YOPE   C3A12617   1.565  14.226   7.266 -0.1245 -0.2712  0.1665
  900YOPE   C4A12618   1.848  14.454   7.585  0.3920  0.1517  0.0311
  900YOPE   C1B12619   1.553  13.908   6.773 -0.2737 -0.0053  0.0858
  900YOPE   C2B12620   1.724  13.628   7.171  0.0925 -0.1918  0.1463
  900YOPE   D3B12621   1.762  13.513   7.659  0.0454  0.0450  0.2896
  900YOPE   C4B12622   1.870  13.318   8.109 -0.2090 -0.1251  0.0398
  901YOPE   NH312623  10.530   1.905   5.342 -0.1471  0.5012  0.0432
  901YOPE   PO412624  10.435   1.989   5.746 -0.2185 -0.0757 -0.2738
  901YOPE   GL112625  10.520   1.675   5.919  0.1472  0.4037  0.1435
  901YOPE   GL212626  10.586   1.409   5.760  0.0156  0.0830  0.0578
  901YOPE   C1A12627  10.795   1.551   6.301  0.3715  0.0371 -0.2253
  901YOPE   D2A12628  10.757   1.673   6.807  0.0517 -0.0614 -0.1226
  901YOPE   C3A12629  10.678   1.326   7.051 -0.1511 -0.0237 -0.2796
  901YOPE   C4A12630  10.572   1.079   7.386 -0.0495 -0.0766 -0.0434
  901YOPE   C1B12631  10.301   1.238   6.107 -0.4591 -0.0264 -0.2404
  901YOPE   C2B12632  10.341   1.271   6.638 -0.0040 -0.2731  0.1427
  901YOPE   D3B12633  10.185   1.180   7.005  0.0683 -0.0419  0.0211
  901YOPE   C4B12634  10.090   0.858   7.387 -0.1518 -0.1748  0.1654
  902YOPE   NH312635   7.850   1.041   5.574 -0.0868 -0.2569  0.0155
  902YOPE   PO412636   8.210   1.256   5.634  0.0139 -0.1833  0.1100
  902YOPE   GL112637   8.370   1.323   5.965  0.1398  0.1520  0.3327
  902YOPE   GL212638   8.636   1.408   6.116 -0.1902  0.2248 -0.2197
  902YOPE   C1A12639   8.194   1.362   6.354  0.1146 -0.2890 -0.2240
  902YOPE   D2A12640   8.197   1.392   6.803  0.1571  0.1943  0.0781
  902YOPE   C3A12641   8.125   1.178   7.241  0.0743  0.1804  0.1902
  902YOPE   C4A12642   7.884   0.744   7.434  0.3443 -0.0515  0.0668
  902YOPE   C1B12643   8.574   1.513   6.540 -0.1353 -0.1799  0.2009
  902YOPE   C2B12644   8.720   1.790   6.776 -0.2159 -0.1335 -0.1591
  902YOPE   D3B12645   8.594   1.852   7.135 -0.0445  0.2570 -0.0662
  902YOPE   C4B12646   8.638   1.753   7.558 -0.1230  0.0734  0.3492
  903YOPE   NH312647  17.234   3.185   5.104 -0.1835  0.1105  0.0313
  903YOPE   PO412648  17.161   2.850   5.342 -0.2547 -0.2258 -0.2227
  903YOPE   GL112649  17.222   3.049   5.655  0.1808 -0.2010 -0.2964
  903YOPE   GL212650  17.408   2.909   5.888 -0.3187  0.0754  0.4738
  903YOPE   C1A12651  17.441   3.379   5.920  0.1363 -0.5549  0.0873
  903YOPE   D2A12652  17.683   3.438   6.269 -0.2861  0.2918 -0.0605
  903YOPE   C3A12653  17.639   3.663   6.649  0.0637 -0.0935  0.1699
  903YOPE   C4A12654  17.689   3.935   6.941  0.1442  0.1699  0.1497
  903YOPE   C1B12655  17.574   2.639   6.280  0.0690 -0.0535  0.0216
  903YOPE   C2B12656  17.455   2.353   6.554 -0.1834  0.2868  0.2555
  903YOPE   D3B12657  17.401   2.151   6.972 -0.3781  0.1465 -0.1387
  903YOPE   C4B12658  17.042   2.215   7.178 -0.1904  0.2075 -0.2997
  904YOPE   NH312659   8.759   1.445   5.608 -0.0271 -0.1204  0.0279
  904YOPE   PO412660   9.093   1.445   5.834  0.1483  0.0493 -0.2204
  904YOPE   GL112661   9.286   1.252   6.225  0.0576  0.2019  0.0694
  904YOPE   GL212662   9.011   1.313   6.399  0.1731  0.0289  0.0709
  904YOPE   C1A12663   9.436   1.066   6.560 -0.1761  0.2024 -0.2093
  904YOPE   D2A12664   9.603   1.074   6.904 -0.0560  0.1217  0.3721
  904YOPE   C3A12665   9.640   0.737   7.053  0.0753 -0.3553 -0.0987
  904YOPE   C4A12666   9.512   0.437   7.259  0.0445  0.0834  0.0270
  904YOPE   C1B12667   9.071   1.425   6.786 -0.0404 -0.3306  0.3332
  904YOPE   C2B12668   9.036   1.608   7.189 -0.1976 -0.0087  0.3092
  904YOPE   D3B12669   9.115   1.624   7.603 -0.4746 -0.0119 -0.1883
  904YOPE   C4B12670   9.085   1.542   8.013 -0.0554  0.0797 -0.0131
  905YOPE   NH312671  14.233  13.549   5.532  0.1203 -0.0376 -0.0486
  905YOPE   PO412672  13.957  13.436   5.339 -0.0448 -0.1145 -0.3155
  905YOPE   GL112673  13.765  13.688   5.590  0.1933 -0.1538  0.0117
  905YOPE   GL212674  13.961  13.965   5.688  0.0483 -0.0848 -0.1656
  905YOPE   C1A12675  13.628  13.772   5.989 -0.4811 -0.0970 -0.2982
  905YOPE   D2A12676  13.499  14.162   6.161  0.0096  0.2899  0.0454
  905YOPE   C3A12677  13.402  14.610   5.883 -0.0494  0.0163 -0.2234
  905YOPE   C4A12678  13.451  15.087   5.888  0.0634  0.0153 -0.0745
  905YOPE   C1B12679  13.901  14.338   5.907  0.0218 -0.0089  0.0163
  905YOPE   C2B12680  13.843  14.580   6.297 -0.0427  0.2245  0.3460
  905YOPE   D3B12681  13.902  14.952   6.402 -0.2109  0.0680  0.0996
  905YOPE   C4B12682  13.882  15.253   6.775 -0.1541  0.2241  0.1420
  906YOPE   NH312683   1.448   4.902   6.043  0.0116 -0.0421 -0.3443
  906YOPE   PO412684   1.518   5.330   5.950  0.1380  0.2125  0.0297
  906YOPE   GL112685   1.750   5.501   6.268  0.2776 -0.0816 -0.0930
  906YOPE   GL212686   1.723   5.154   6.435 -0.2790 -0.0177  0.0772
  906YOPE   C1A12687   1.835   5.598   6.685  0.1844 -0.1100  0.1825
  906YOPE   D2A12688   1.657   5.520   7.180  0.2567  0.0116 -0.2078
  906YOPE   C3A12689   1.809   5.224   7.403  0.0124  0.0788 -0.0965
  906YOPE   C4A12690   1.689   4.970   7.808 -0.2985  0.1987 -0.1704
  906YOPE   C1B12691   1.430   5.238   6.743 -0.1653  0.0919  0.0422
  906YOPE   C2B12692   1.212   5.227   7.136  0.0389  0.0042 -0.0794
  906YOPE   D3B12693   1.182   5.431   7.448  0.2688 -0.2050  0.0767
  906YOPE   C4B12694   1.171   5.854   7.784  0.1982 -0.0202 -0.1313
  907YOPE   NH312695  13.873   2.611   5.238 -0.0633  0.0774 -0.1521
  907YOPE   PO412696  14.226   2.788   5.209 -0.0069  0.2624 -0.1143
  907YOPE   GL112697  14.368   2.793   5.628  0.0389 -0.0078 -0.2156
  907YOPE   GL212698  14.641   2.863   5.807 -0.1204 -0.2680  0.3561
  907YOPE   C1A12699  14.444   2.433   5.952  0.0310 -0.1681  0.0263
  907YOPE   D2A12700  14.651   2.306   6.205 -0.1130  0.1596  0.1461
  907YOPE   C3A12701  14.394   2.113   6.496 -0.0557  0.2816  0.2136
  907YOPE   C4A12702  14.339   1.940   6.882 -0.0294 -0.0219 -0.3377
  907YOPE   C1B12703  14.954   2.735   6.052  0.1921 -0.1090  0.2602
  907YOPE   C2B12704  14.934   2.638   6.490 -0.0397  0.0185  0.1193
  907YOPE   D3B12705  14.839   2.284   6.657 -0.0452  0.1035 -0.1086
  907YOPE   C4B12706  14.694   2.179   7.100 -0.1941 -0.2756  0.4686
  908YOPE   NH312707   3.263  12.243   5.852  0.0050 -0.2250 -0.1768
  908YOPE   PO412708   3.488  11.888   5.818  0.0489 -0.0925 -0.2138
  908YOPE   GL112709   3.556  11.854   6.303 -0.0259 -0.1031  0.1385
  908YOPE   GL212710   3.879  11.676   6.221 -0.1955  0.0853  0.0324
  908YOPE   C1A12711   3.860  11.864   6.694 -0.1549 -0.1997 -0.0295
  908YOPE   D2A12712   4.101  11.804   6.998  0.3251  0.1880 -0.1153
  908YOPE   C3A12713   4.162  12.001   7.251 -0.2442 -0.1391 -0.0826
  908YOPE   C4A12714   4.330  12.157   7.640  0.0056  0.5263  0.0914
  908YOPE   C1B12715   4.105  11.351   6.470  0.2431 -0.1410 -0.1967
  908YOPE   C2B12716   4.233  11.278   6.856  0.1496 -0.0582  0.2544
  908YOPE   D3B12717   4.471  11.236   7.230  0.1682 -0.1318  0.2655
  908YOPE   C4B12718   4.700  11.377   7.520 -0.2205 -0.0259 -0.1899
  909YOPE   NH312719   9.311  15.328   5.634 -0.1190  0.2772 -0.3263
  909YOPE   PO412720   9.073  15.702   5.671 -0.3132  0.0728  0.3315
  909YOPE   GL112721   9.177  15.587   6.072  0.0211 -0.2508 -0.2956
  909YOPE   GL212722   9.472  15.689   6.238 -0.1336 -0.2141  0.0116
  909YOPE   C1A12723   9.036  15.589   6.472  0.0168  0.1209  0.0998
  909YOPE   D2A12724   8.898  15.863   6.786  0.2631 -0.1568 -0.1739
  909YOPE   C3A12725   8.685  16.143   7.143 -0.0246  0.1602  0.1778
  909YOPE   C4A12726   8.342  16.397   6.979  0.1745  0.1658  0.1705
  909YOPE   C1B12727   9.484  15.753   6.721  0.3528 -0.3621 -0.3852
  909YOPE   C2B12728   9.309  15.559   7.135 -0.4148 -0.2222 -0.1407
  909YOPE   D3B12729   8.943  15.806   7.320  0.0858  0.0495 -0.1033
  909YOPE   C4B12730   9.110  16.108   7.470 -0.0933  0.2642  0.0680
  910YOPE   NH312731  16.561   0.296   5.420 -0.1102  0.1221  0.1714
  910YOPE   PO412732  16.780  -0.044   5.482  0.0570 -0.1381 -0.1480
  910YOPE   GL112733  16.877   0.098   5.852 -0.1974 -0.4071 -0.2268
  910YOPE   GL212734  16.726   0.380   5.931 -0.0442 -0.2582 -0.1464
  910YOPE   C1A12735  16.991   0.129   6.313 -0.0561 -0.1157 -0.4321
  910YOPE   D2A12736  16.984   0.072   6.780 -0.1683 -0.0774  0.1362
  910YOPE   C3A12737  17.103   0.246   7.061  0.1466  0.1663  0.0238
  910YOPE   C4A12738  17.017   0.428   7.378  0.0680  0.3272  0.0450
  910YOPE   C1B12739  16.515   0.257   6.390  0.0732 -0.1025 -0.2837
  910YOPE   C2B12740  16.719   0.472   6.785 -0.2403  0.2686 -0.3244
  910YOPE   D3B12741  16.787   0.678   7.046  0.0455 -0.1168 -0.0377
  910YOPE   C4B12742  16.748   0.904   7.513 -0.2523 -0.0598  0.0511
  911YOPE   NH312743  15.812   8.748   5.792  0.0491 -0.1411  0.1539
  911YOPE   PO412744  15.407   8.807   5.694 -0.2655  0.1280 -0.1508
  911YOPE   GL112745  15.295   8.694   6.072 -0.1082  0.0420  0.1719
  911YOPE   GL212746  15.589   8.770   6.252 -0.0766  0.0153 -0.0921
  911YOPE   C1A12747  15.064   8.926   6.520 -0.0347  0.0232  0.0815
  911YOPE   D2A12748  15.231   8.986   6.885  0.2277 -0.1302  0.0502
  911YOPE   C3A12749  15.685   9.127   6.781 -0.1714  0.4547  0.0320
  911YOPE   C4A12750  15.932   9.374   6.863  0.1293 -0.1932 -0.2532
  911YOPE   C1B12751  15.481   8.587   6.746 -0.0993 -0.2069  0.0262
  911YOPE   C2B12752  15.478   8.698   7.232 -0.0480  0.0708 -0.1111
  911YOPE   D3B12753  15.239   8.772   7.668 -0.1046  0.2700  0.2793
  911YOPE   C4B12754  15.085   9.143   7.811 -0.2285  0.1173 -0.2422
  912YOPE   NH312755  15.740  10.200   5.618 -0.0798 -0.1066 -0.0955
  912YOPE   PO412756  15.752  10.202   6.074 -0.5254 -0.1305  0.0871
  912YOPE   GL112757  15.974  10.001   6.352 -0.2985  0.1863 -0.0864
  912YOPE   GL212758  16.309  10.103   6.460 -0.1440 -0.2535  0.0856
  912YOPE   C1A12759  15.943   9.879   6.724 -0.1549 -0.4111  0.0072
  912YOPE   D2A12760  15.574   9.713   6.936  0.2852  0.3618 -0.0959
  912YOPE   C3A12761  15.432   9.721   7.370  0.0948 -0.0867 -0.4039
  912YOPE   C4A12762  15.241   9.623   7.828  0.0355  0.3653  0.1639
  912YOPE   C1B12763  16.439  10.105   6.868  0.0802  0.0432 -0.0327
  912YOPE   C2B12764  16.172   9.996   7.164  0.2070 -0.0168 -0.1531
  912YOPE   D3B12765  15.932   9.648   7.317  0.0024 -0.1286  0.3530
  912YOPE   C4B12766  15.808   9.330   7.447 -0.0781 -0.0139 -0.1782
  913YOPE   NH312767  13.431  15.354   5.274  0.0283 -0.3630 -0.2707
  913YOPE   PO412768  13.672  15.554   5.064  0.0435  0.0524  0.0794
  913YOPE   GL112769  13.886  15.731   5.394 -0.0706  0.1349  0.2548
  913YOPE   GL212770  14.021  15.971   5.522 -0.1344  0.0286  0.3250
  913YOPE   C1A12771  13.878  15.597   5.857  0.1012 -0.1733  0.1277
  913YOPE   D2A12772  13.882  15.413   6.266  0.0573 -0.0024 -0.1290
  913YOPE   C3A12773  14.257  15.493   6.578  0.0746  0.1604 -0.2157
  913YOPE   C4A12774  14.801  15.439   6.722 -0.1356  0.0407 -0.0200
  913YOPE   C1B12775  14.165  16.012   5.912  0.1332 -0.4320 -0.3129
  913YOPE   C2B12776  14.017  15.903   6.291  0.0201  0.2303  0.0543
  913YOPE   D3B12777  13.819  15.723   6.658  0.1355 -0.2783  0.0930
  913YOPE   C4B12778  13.601  15.573   7.011 -0.0971 -0.1162 -0.0087
  914YOPE   NH312779   6.161   0.443   5.641 -0.0611  0.0771  0.6165
  914YOPE   PO412780   6.687   0.439   5.569  0.3300 -0.0678  0.0591
  914YOPE   GL112781   6.620   0.636   5.994 -0.0853  0.2450 -0.2455
  914YOPE   GL212782   6.346   0.377   6.085 -0.2272  0.2165 -0.1351
  914YOPE   C1A12783   6.759   0.879   6.347  0.1729  0.3534  0.1514
  914YOPE   D2A12784   6.775   1.240   6.443  0.0065 -0.1468 -0.0050
  914YOPE   C3A12785   6.608   1.544   6.734 -0.2921 -0.1977  0.0264
  914YOPE   C4A12786   6.560   1.856   6.977  0.1223  0.1366 -0.3659
  914YOPE   C1B12787   6.370   0.211   6.509 -0.0562 -0.2860 -0.0543
  914YOPE   C2B12788   6.447   0.170   6.859 -0.1646  0.0272 -0.1601
  914YOPE   D3B12789   6.414   0.041   7.349 -0.0511  0.2725 -0.1861
  914YOPE   C4B12790   6.123   0.154   7.647 -0.1568  0.2655 -0.0805
  915YOPE   NH312791   3.146  15.927   5.638  0.0687 -0.3041  0.0692
  915YOPE   PO412792   3.311  15.569   5.492 -0.0017  0.4016  0.2731
  915YOPE   GL112793   3.425  15.560   5.906 -0.3146 -0.0614 -0.0259
  915YOPE   GL212794   3.535  15.967   5.949 -0.1324  0.0783  0.0745
  915YOPE   C1A12795   3.431  15.367   6.243 -0.2326  0.0956  0.0108
  915YOPE   D2A12796   3.400  15.340   6.725  0.0898 -0.0217 -0.2816
  915YOPE   C3A12797   3.364  15.813   6.845  0.0008 -0.0375  0.2165
  915YOPE   C4A12798   3.398  16.220   6.995 -0.1274 -0.0595  0.0613
  915YOPE   C1B12799   3.298  15.852   6.335  0.2380  0.0574  0.2571
  915YOPE   C2B12800   2.995  15.984   6.573  0.0975  0.1246 -0.2885
  915YOPE   D3B12801   2.802  16.299   6.861  0.1633 -0.2506 -0.2166
  915YOPE   C4B12802   2.738  16.613   7.161  0.0541 -0.0081 -0.1008
  916YOPE   NH312803  14.049   3.593   5.654 -0.1469 -0.1381 -0.2181
  916YOPE   PO412804  13.803   3.275   5.418  0.1748  0.1339 -0.1518
  916YOPE   GL112805  13.901   3.073   5.767  0.0862  0.0799  0.3223
  916YOPE   GL212806  13.869   3.291   6.008  0.1579  0.2402 -0.1837
  916YOPE   C1A12807  14.036   2.868   6.193  0.1415  0.0719  0.1115
  916YOPE   D2A12808  13.996   2.851   6.642 -0.0979 -0.2871  0.2723
  916YOPE   C3A12809  14.053   2.968   7.061 -0.1392 -0.1426 -0.1933
  916YOPE   C4A12810  13.937   2.796   7.514  0.1735  0.3088  0.0179
  916YOPE   C1B12811  13.641   3.209   6.369  0.2294 -0.0251  0.0043
  916YOPE   C2B12812  13.843   3.294   6.685 -0.0367 -0.0923 -0.1154
  916YOPE   D3B12813  14.015   3.587   6.931  0.1269  0.0137 -0.0234
  916YOPE   C4B12814  14.280   3.643   7.322 -0.1939  0.2273  0.0834
  917YOPE   NH312815  13.290   3.260   5.595 -0.2306  0.2012  0.4856
  917YOPE   PO412816  13.100   3.071   5.870 -0.1216 -0.2783 -0.0021
  917YOPE   GL112817  13.343   2.883   6.125 -0.0691 -0.0210  0.1343
  917YOPE   GL212818  13.434   2.661   5.958 -0.2611 -0.1667 -0.0015
  917YOPE   C1A12819  13.460   2.767   6.553 -0.0120 -0.1201  0.1842
  917YOPE   D2A12820  13.578   2.800   6.913 -0.1711 -0.0689 -0.1438
  917YOPE   C3A12821  13.333   2.531   7.185  0.1417  0.1132 -0.4069
  917YOPE   C4A12822  12.900   2.252   7.062 -0.1895  0.0097  0.0728
  917YOPE   C1B12823  13.334   2.390   6.212  0.0853  0.0046  0.1515
  917YOPE   C2B12824  13.351   2.303   6.662  0.4195 -0.0385  0.2077
  917YOPE   D3B12825  13.356   2.051   7.122  0.0778 -0.0227  0.1526
  917YOPE   C4B12826  13.506   1.963   7.511  0.1764 -0.2501  0.1473
  918YOPE   NH312827   9.312   2.748   5.682 -0.2786  0.0279  0.1468
  918YOPE   PO412828   9.132   2.395   5.553 -0.2605  0.1854 -0.0120
  918YOPE   GL112829   9.362   2.326   5.960 -0.1623  0.1581 -0.0044
  918YOPE   GL212830   9.591   2.558   6.125  0.0791 -0.1476 -0.0171
  918YOPE   C1A12831   9.161   2.434   6.357 -0.1196 -0.0323 -0.2732
  918YOPE   D2A12832   9.268   2.462   6.729  0.1867 -0.1533 -0.0722
  918YOPE   C3A12833   9.638   2.485   6.900  0.1760 -0.2863  0.0261
  918YOPE   C4A12834   9.886   2.905   7.042 -0.0841  0.2049 -0.0325
  918YOPE   C1B12835   9.453   2.809   6.413  0.0030 -0.0806  0.2222
  918YOPE   C2B12836   9.394   2.936   6.918  0.0541  0.1060  0.1282
  918YOPE   D3B12837   9.500   3.024   7.392  0.1213 -0.1355 -0.1956
  918YOPE   C4B12838   9.549   2.732   7.833  0.2089 -0.2334  0.0346
  919YOPE   NH312839   7.153   5.524   5.349  0.1733 -0.0835  0.0964
  919YOPE   PO412840   7.105   5.819   5.685  0.0395 -0.1730 -0.2803
  919YOPE   GL112841   7.211   5.852   6.038 -0.0595 -0.1528 -0.1500
  919YOPE   GL212842   7.312   6.248   6.047 -0.1777 -0.4300 -0.0720
  919YOPE   C1A12843   7.572   5.721   6.279  0.2080 -0.0155  0.1549
  919YOPE   D2A12844   7.509   5.510   6.670  0.0218 -0.1474 -0.1822
  919YOPE   C3A12845   7.684   5.268   6.952  0.1097 -0.0172 -0.1265
  919YOPE   C4A12846   7.764   4.981   7.222  0.0904 -0.0488  0.1111
  919YOPE   C1B12847   7.408   6.120   6.491 -0.3259  0.4381  0.2499
  919YOPE   C2B12848   7.450   6.053   6.891  0.0607  0.2022 -0.1661
  919YOPE   D3B12849   7.545   6.099   7.315  0.1884  0.1565  0.0036
  919YOPE   C4B12850   7.296   6.204   7.606  0.0838  0.1958 -0.1747
  920YOPE   NH312851   5.157   6.022   5.940 -0.0692  0.0446  0.0337
  920YOPE   PO412852   5.557   5.981   5.898  0.0846 -0.1875 -0.4314
  920YOPE   GL112853   5.635   5.757   6.243 -0.3467  0.0754  0.1519
  920YOPE   GL212854   5.488   5.727   6.528  0.0776  0.1823 -0.0759
  920YOPE   C1A12855   5.931   5.578   6.438  0.1894 -0.0275 -0.1896
  920YOPE   D2A12856   6.317   5.435   6.389  0.0646 -0.4259  0.0601
  920YOPE   C3A12857   6.518   5.410   6.742  0.2052  0.0080  0.1011
  920YOPE   C4A12858   6.618   5.221   7.041 -0.4260 -0.1769  0.0966
  920YOPE   C1B12859   5.501   5.465   6.882 -0.0593 -0.0445 -0.2588
  920YOPE   C2B12860   5.329   5.573   7.275 -0.1543 -0.3588  0.0864
  920YOPE   D3B12861   5.081   5.544   7.513  0.0596  0.1923 -0.0436
  920YOPE   C4B12862   4.834   5.861   7.381  0.0925 -0.1687 -0.1242
  921YOPE   NH312863   9.374   0.989   5.766  0.2076 -0.2972  0.1862
  921YOPE   PO412864   9.065   0.623   5.673  0.1661  0.0835  0.1701
  921YOPE   GL112865   9.164   0.560   6.092 -0.4345  0.1261 -0.0874
  921YOPE   GL212866   9.425   0.747   6.164  0.2599  0.0201  0.1349
  921YOPE   C1A12867   9.032   0.778   6.430 -0.0517 -0.0403 -0.1801
  921YOPE   D2A12868   9.118   0.862   6.903  0.0253 -0.0201 -0.0114
  921YOPE   C3A12869   8.854   0.775   7.201 -0.0425 -0.0127 -0.0792
  921YOPE   C4A12870   8.447   0.898   7.551 -0.3921 -0.1982 -0.0726
  921YOPE   C1B12871   9.501   0.613   6.583  0.2736  0.0905 -0.1652
  921YOPE   C2B12872   9.615   0.195   6.799  0.2715  0.4034  0.1665
  921YOPE   D3B12873   9.782  -0.182   6.994 -0.0632 -0.0386 -0.0980
  921YOPE   C4B12874   9.886  -0.400   7.337 -0.0627 -0.2928 -0.2205
  922YOPE   NH312875  16.297   1.491   5.526 -0.1401  0.2666 -0.2386
  922YOPE   PO412876  16.236   1.068   5.336 -0.1216  0.2595  0.5296
  922YOPE   GL112877  16.444   0.845   5.636 -0.1788 -0.0619  0.2984
  922YOPE   GL212878  16.332   0.632   5.705 -0.0014 -0.0201  0.0260
  922YOPE   C1A12879  16.753   0.938   6.046 -0.1250  0.1448 -0.2376
  922YOPE   D2A12880  16.764   0.720   6.389 -0.0738  0.2787  0.0052
  922YOPE   C3A12881  16.870   1.016   6.702 -0.0985  0.4148  0.0784
  922YOPE   C4A12882  16.894   1.286   6.985  0.0892 -0.0786  0.3374
  922YOPE   C1B12883  16.269   0.740   6.142 -0.1253  0.1461  0.2208
  922YOPE   C2B12884  16.237   0.652   6.597  0.1993 -0.3728 -0.1259
  922YOPE   D3B12885  16.165   0.702   7.033 -0.1526 -0.1376 -0.0023
  922YOPE   C4B12886  16.342   0.912   7.170  0.0406  0.1643 -0.1990
  923YOPE   NH312887  17.973   0.133   5.650  0.1351 -0.0163 -0.1474
  923YOPE   PO412888  18.406   0.030   5.677  0.1665 -0.3020 -0.1636
  923YOPE   GL112889  18.279   0.015   6.048 -0.0673  0.2520 -0.0513
  923YOPE   GL212890  18.065   0.085   6.155 -0.3665  0.0902 -0.1706
  923YOPE   C1A12891  18.571   0.151   6.413  0.1025  0.3104 -0.1654
  923YOPE   D2A12892  18.961   0.043   6.333  0.1364 -0.0081  0.0331
  923YOPE   C3A12893  19.231  -0.244   6.525  0.2178 -0.0467 -0.1322
  923YOPE   C4A12894  19.395  -0.367   6.906  0.1121  0.0301  0.3696
  923YOPE   C1B12895  18.180  -0.082   6.602 -0.2262  0.0357 -0.0945
  923YOPE   C2B12896  18.452   0.118   6.893  0.0991  0.0196 -0.2224
  923YOPE   D3B12897  18.756   0.359   7.191 -0.2222 -0.0331  0.0814
  923YOPE   C4B12898  18.852   0.743   7.068 -0.4645  0.0712  0.1616
  924YOPE   NH312899  15.924   9.533   5.026  0.0221  0.3071  0.1114
  924YOPE   PO412900  15.713   9.754   5.476 -0.1155 -0.1168  0.1308
  924YOPE   GL112901  15.450   9.588   5.826  0.3856 -0.1358  0.2848
  924YOPE   GL212902  15.299   9.918   5.773 -0.2928  0.2032  0.0911
  924YOPE   C1A12903  15.228   9.481   6.120  0.0212  0.1687  0.1551
  924YOPE   D2A12904  15.316   9.343   6.540  0.1618  0.0496 -0.3610
  924YOPE   C3A12905  15.038   9.427   6.917  0.0386 -0.1752  0.4428
  924YOPE   C4A12906  14.657   9.673   6.900  0.1387 -0.0585  0.1013
  924YOPE   C1B12907  15.134  10.009   6.098  0.0998  0.1456  0.2160
  924YOPE   C2B12908  15.126   9.812   6.643 -0.0757  0.0961  0.4739
  924YOPE   D3B12909  14.984  10.008   7.038  0.1256 -0.1305 -0.1385
  924YOPE   C4B12910  15.093  10.098   7.525 -0.0558 -0.2300  0.1698
  925YOPE   NH312911  13.802  16.985   4.999 -0.1330 -0.0127 -0.0954
  925YOPE   PO412912  13.339  17.074   4.944  0.1620  0.0186 -0.1920
  925YOPE   GL112913  13.214  17.341   5.310 -0.2645 -0.0297 -0.1250
  925YOPE   GL212914  13.315  17.659   5.338 -0.1926 -0.0449 -0.2575
  925YOPE   C1A12915  13.035  17.414   5.651  0.0392  0.1701  0.0301
  925YOPE   D2A12916  12.647  17.634   5.866 -0.4918  0.2743 -0.1484
  925YOPE   C3A12917  12.714  18.028   6.020 -0.1457 -0.0507 -0.1514
  925YOPE   C4A12918  13.048  18.340   6.096  0.1634 -0.2655 -0.1882
  925YOPE   C1B12919  13.515  17.525   5.716 -0.0458 -0.4468 -0.0215
  925YOPE   C2B12920  13.707  17.427   6.157 -0.1174  0.1013 -0.1956
  925YOPE   D3B12921  13.714  17.355   6.570 -0.1421  0.0807  0.2957
  925YOPE   C4B12922  13.708  17.502   6.990 -0.1122 -0.0216  0.0250
  926YOPE   NH312923   9.248   7.172   5.753  0.1095 -0.0298  0.3733
  926YOPE   PO412924   9.364   6.751   5.546  0.0996  0.0144  0.1462
  926YOPE   GL112925   9.380   6.420   5.858  0.0620 -0.3138  0.3417
  926YOPE   GL212926   9.210   6.371   6.196 -0.1167  0.2806  0.0251
  926YOPE   C1A12927   9.702   6.390   6.144 -0.1943  0.0013  0.1400
  926YOPE   D2A12928   9.915   6.478   6.603 -0.1737  0.1821  0.1503
  926YOPE   C3A12929   9.697   6.343   6.969 -0.1694 -0.1193 -0.1772
  926YOPE   C4A12930   9.880   6.087   7.400  0.0133  0.2672  0.1167
  926YOPE   C1B12931   9.427   6.582   6.564 -0.2461  0.2058  0.0704
  926YOPE   C2B12932   9.414   6.973   6.824  0.2817 -0.0809  0.0675
  926YOPE   D3B12933   9.496   7.115   7.258  0.1595 -0.0294 -0.2991
  926YOPE   C4B12934   9.470   6.969   7.745  0.1467 -0.1298  0.1373
  927YOPE   NH312935  11.689   9.674   5.868 -0.0254 -0.1278 -0.0368
  927YOPE   PO412936  11.820  10.065   5.689  0.3514 -0.1321 -0.3430
  927YOPE   GL112937  12.053  10.092   5.999  0.1324 -0.0033 -0.1092
  927YOPE   GL212938  11.947   9.882   6.249  0.1005  0.0674  0.1894
  927YOPE   C1A12939  12.377  10.361   6.124  0.0382  0.0968  0.2307
  927YOPE   D2A12940  12.341  10.535   6.641  0.1133  0.0548  0.1889
  927YOPE   C3A12941  12.415  10.915   6.737  0.2485 -0.1822 -0.1251
  927YOPE   C4A12942  12.240  11.249   6.561  0.1324 -0.2662  0.1110
  927YOPE   C1B12943  11.866  10.288   6.429 -0.3618 -0.5201  0.0331
  927YOPE   C2B12944  11.716  10.548   6.808  0.0489  0.0898  0.0087
  927YOPE   D3B12945  11.742  10.947   6.912 -0.2655 -0.1709  0.0092
  927YOPE   C4B12946  11.996  11.283   7.096 -0.1549  0.0742 -0.0058
  928YOPE   NH312947  14.578  16.621   4.823 -0.1273 -0.1867  0.1005
  928YOPE   PO412948  14.308  17.042   4.862  0.4153  0.2083  0.0307
  928YOPE   GL112949  14.223  16.823   5.191  0.3911 -0.3329  0.1009
  928YOPE   GL212950  13.974  16.609   5.285 -0.0509 -0.0920  0.2353
  928YOPE   C1A12951  14.291  16.835   5.562 -0.1561  0.0689 -0.1993
  928YOPE   D2A12952  14.306  17.025   5.963  0.2693  0.1047  0.2010
  928YOPE   C3A12953  14.176  17.240   6.356  0.3404  0.0666  0.0048
  928YOPE   C4A12954  14.176  17.486   6.773  0.1484  0.0407 -0.2311
  928YOPE   C1B12955  13.888  16.489   5.733  0.0766 -0.1355 -0.0427
  928YOPE   C2B12956  13.826  16.335   6.130  0.4190 -0.3609  0.0989
  928YOPE   D3B12957  13.399  16.422   6.226  0.1730  0.1727 -0.3241
  928YOPE   C4B12958  13.146  16.617   6.570 -0.3506 -0.0146  0.3048
  929YOPE   NH312959  18.319  15.569   5.645 -0.0943  0.4398  0.1634
  929YOPE   PO412960  18.224  15.149   5.660 -0.1112 -0.1311 -0.0356
  929YOPE   GL112961  18.348  15.136   6.064 -0.2170 -0.1750  0.2677
  929YOPE   GL212962  18.608  15.025   6.035  0.1189  0.0559  0.0905
  929YOPE   C1A12963  18.244  15.235   6.527  0.1158  0.0877  0.1987
  929YOPE   D2A12964  18.210  15.414   6.903  0.0855 -0.0635  0.0434
  929YOPE   C3A12965  17.905  15.728   7.011 -0.0301  0.1621 -0.0373
  929YOPE   C4A12966  17.583  15.991   7.092 -0.1581  0.0287  0.1351
  929YOPE   C1B12967  18.692  14.934   6.435 -0.0756 -0.2121  0.3439
  929YOPE   C2B12968  18.603  14.975   6.822  0.4062  0.1038 -0.1056
  929YOPE   D3B12969  18.494  15.094   7.252 -0.0720  0.0608 -0.7376
  929YOPE   C4B12970  18.149  15.355   7.366  0.0668 -0.0420 -0.0095
  930YOPE   NH312971   0.895   4.739   6.071  0.1635 -0.1088  0.2175
  930YOPE   PO412972   0.493   4.737   5.958  0.2609 -0.0159  0.5283
  930YOPE   GL112973   0.448   4.447   6.227  0.3408  0.1899 -0.0313
  930YOPE   GL212974   0.269   4.133   6.174  0.1706 -0.1217  0.1458
  930YOPE   C1A12975   0.070   4.550   6.387  0.3522  0.0899 -0.1063
  930YOPE   D2A12976  -0.101   4.533   6.735 -0.1618  0.0418  0.1129
  930YOPE   C3A12977   0.154   4.638   7.036 -0.0202  0.0202 -0.0928
  930YOPE   C4A12978   0.341   4.713   7.475  0.2566 -0.2484 -0.1274
  930YOPE   C1B12979   0.417   4.121   6.559 -0.0830 -0.0065  0.0792
  930YOPE   C2B12980   0.622   3.990   6.825 -0.0915  0.0308  0.0388
  930YOPE   D3B12981   0.806   3.877   7.249  0.1341  0.2494 -0.0160
  930YOPE   C4B12982   0.849   4.129   7.584  0.1698 -0.1883 -0.0413
  931YOPE   NH312983  12.354   3.313   5.931 -0.0811  0.1160  0.1108
  931YOPE   PO412984  12.716   3.352   5.943 -0.1259 -0.4349  0.1069
  931YOPE   GL112985  12.844   3.335   6.239  0.4000 -0.2175  0.1578
  931YOPE   GL212986  13.254   3.418   6.168  0.1078 -0.1141 -0.0515
  931YOPE   C1A12987  12.712   3.371   6.604 -0.1674 -0.1322 -0.0936
  931YOPE   D2A12988  12.915   3.243   7.062 -0.2320 -0.2784  0.0426
  931YOPE   C3A12989  12.782   3.263   7.454 -0.1758  0.0270  0.0661
  931YOPE   C4A12990  12.549   3.027   7.845  0.0464  0.0499 -0.1362
  931YOPE   C1B12991  13.174   3.223   6.623  0.1428 -0.1116  0.0024
  931YOPE   C2B12992  13.417   3.260   6.949 -0.1750 -0.0999 -0.2768
  931YOPE   D3B12993  13.707   3.273   7.196 -0.0130  0.0124  0.0625
  931YOPE   C4B12994  13.943   3.348   7.574 -0.0215  0.0332  0.0775
  932YOPE   NH312995  15.411  13.934   4.895 -0.5400 -0.3874  0.0721
  932YOPE   PO412996  15.520  14.433   4.973  0.2394 -0.0809  0.3052
  932YOPE   GL112997  15.621  14.569   5.423  0.0513 -0.0143  0.0429
  932YOPE   GL212998  15.712  14.401   5.674 -0.2740  0.3622  0.0909
  932YOPE   C1A12999  15.900  14.876   5.760 -0.3304 -0.0037 -0.0049
  932YOPE   D2A13000  16.259  14.915   5.924 -0.0977  0.1876 -0.0009
  932YOPE   C3A13001  16.300  14.730   6.277  0.1894  0.0879  0.1437
  932YOPE   C4A13002  16.533  14.601   6.558  0.1223  0.0025 -0.2275
  932YOPE   C1B13003  15.868  14.492   6.101  0.1770  0.0194  0.2239
  932YOPE   C2B13004  15.794  14.830   6.407 -0.1548 -0.0020 -0.1602
  932YOPE   D3B13005  15.576  15.339   6.505 -0.1195 -0.0839 -0.3084
  932YOPE   C4B13006  15.332  15.565   6.826 -0.1252 -0.0519 -0.0693
  933YOPE   NH313007   1.821  11.908   5.813  0.1389 -0.1420 -0.2189
  933YOPE   PO413008   1.980  11.581   6.055  0.1593  0.1790 -0.2023
  933YOPE   GL113009   2.019  11.173   6.338  0.0492 -0.0325 -0.2072
  933YOPE   GL213010   1.968  10.834   6.264  0.0357  0.1857  0.2047
  933YOPE   C1A13011   2.089  10.962   6.808  0.0499 -0.2313 -0.1998
  933YOPE   D2A13012   2.127  10.770   7.155 -0.2502 -0.0021  0.0349
  933YOPE   C3A13013   1.877  10.755   7.463 -0.0605  0.2307 -0.0825
  933YOPE   C4A13014   1.568  11.045   7.521 -0.2516 -0.0420 -0.0130
  933YOPE   C1B13015   1.492  10.834   6.361  0.3973 -0.0790  0.1884
  933YOPE   C2B13016   1.259  10.724   6.730  0.1082 -0.1083 -0.1238
  933YOPE   D3B13017   1.279  10.770   7.194  0.1013  0.1352 -0.1237
  933YOPE   C4B13018   1.068  10.926   7.512  0.0143 -0.0610 -0.0162
  934YOPE   NH313019   7.295   7.946   6.068 -0.0066 -0.0708  0.1658
  934YOPE   PO413020   7.361   8.350   6.001 -0.1140  0.0769  0.0213
  934YOPE   GL113021   7.264   8.418   6.420  0.2127  0.1036 -0.0542
  934YOPE   GL213022   6.937   8.206   6.436 -0.1926 -0.0356  0.2449
  934YOPE   C1A13023   7.149   8.398   6.796 -0.1472 -0.0480 -0.1669
  934YOPE   D2A13024   7.113   8.410   7.212  0.2601  0.3111 -0.0377
  934YOPE   C3A13025   7.157   8.755   7.508 -0.0957 -0.2321 -0.3156
  934YOPE   C4A13026   7.470   8.765   7.823  0.1939 -0.1556 -0.3901
  934YOPE   C1B13027   6.713   8.146   6.841  0.0817 -0.3122  0.0282
  934YOPE   C2B13028   6.672   8.166   7.377  0.0464  0.5365  0.2556
  934YOPE   D3B13029   6.681   7.915   7.702  0.0352  0.0614 -0.0435
  934YOPE   C4B13030   6.711   7.674   8.078  0.3211  0.4340  0.0125
  935YOPE   NH313031  18.301  11.256   5.925  0.0622 -0.1001  0.3619
  935YOPE   PO413032  18.652  11.450   5.818 -0.1757  0.3088 -0.2400
  935YOPE   GL113033  18.625  11.506   6.221 -0.1019  0.0939 -0.1795
  935YOPE   GL213034  18.518  11.269   6.376 -0.1067  0.1114 -0.1143
  935YOPE   C1A13035  18.819  11.612   6.626 -0.2047 -0.4704 -0.1577
  935YOPE   D2A13036  18.873  11.609   7.128 -0.2539 -0.2863  0.1480
  935YOPE   C3A13037  18.689  11.960   7.408  0.0213  0.2983  0.0754
  935YOPE   C4A13038  18.589  12.298   7.537 -0.0416  0.3032  0.0225
  935YOPE   C1B13039  18.573  11.181   6.776 -0.4503  0.0760 -0.1203
  935YOPE   C2B13040  18.584  11.098   7.289 -0.1935  0.0298  0.0885
  935YOPE   D3B13041  18.423  10.982   7.629 -0.1473 -0.0773 -0.0710
  935YOPE   C4B13042  18.026  10.954   7.941 -0.1681 -0.1349  0.0353
  936YOPE   NH313043   5.964  18.145   5.505 -0.1289 -0.1681 -0.0523
  936YOPE   PO413044   5.912  17.689   5.319 -0.0545  0.1073  0.0954
  936YOPE   GL113045   5.773  17.574   5.714  0.0363 -0.0215  0.1336
  936YOPE   GL213046   5.797  17.831   5.901  0.0939 -0.4279  0.0505
  936YOPE   C1A13047   5.524  17.302   6.092  0.0316 -0.1268 -0.2544
  936YOPE   D2A13048   5.434  17.361   6.604 -0.0119 -0.3484 -0.0732
  936YOPE   C3A13049   5.125  17.123   6.899  0.1802  0.2324  0.1838
  936YOPE   C4A13050   4.818  16.874   6.903  0.1914  0.0938  0.2085
  936YOPE   C1B13051   5.981  17.588   6.280  0.0887 -0.1607  0.1268
  936YOPE   C2B13052   6.010  17.500   6.663  0.1849 -0.0299 -0.1481
  936YOPE   D3B13053   6.266  17.394   7.032 -0.1739 -0.1156 -0.0043
  936YOPE   C4B13054   6.356  17.271   7.503 -0.1098  0.0276 -0.1742
  937YOPE   NH313055   4.485  12.486   5.639 -0.1763  0.0652 -0.1182
  937YOPE   PO413056   4.688  12.109   5.759 -0.3926  0.0326 -0.0107
  937YOPE   GL113057   4.692  12.398   6.109 -0.1894 -0.0105  0.2020
  937YOPE   GL213058   4.380  12.415   6.308  0.1530 -0.2088  0.1233
  937YOPE   C1A13059   4.800  12.561   6.521  0.0244  0.0515 -0.0468
  937YOPE   D2A13060   4.435  12.679   6.731 -0.1557 -0.1098 -0.0336
  937YOPE   C3A13061   4.282  12.684   7.081 -0.2396  0.1793  0.2907
  937YOPE   C4A13062   4.265  12.636   7.435  0.0784 -0.2265  0.0074
  937YOPE   C1B13063   4.321  12.210   6.743  0.4456  0.3265  0.0152
  937YOPE   C2B13064   4.563  12.296   7.105 -0.1924  0.1834 -0.0371
  937YOPE   D3B13065   4.950  12.224   7.301 -0.0584 -0.1414 -0.0099
  937YOPE   C4B13066   5.236  12.049   7.736  0.2050 -0.0775  0.1222
  938YOPE   NH313067  12.573   2.965   5.637 -0.1377 -0.1214  0.1404
  938YOPE   PO413068  12.139   2.914   5.788  0.0708  0.1620 -0.0483
  938YOPE   GL113069  12.231   2.905   6.220 -0.0881  0.2354  0.2478
  938YOPE   GL213070  12.336   3.154   6.376 -0.1756  0.0769  0.0504
  938YOPE   C1A13071  12.301   2.818   6.714  0.2273 -0.0080 -0.0124
  938YOPE   D2A13072  12.407   3.077   7.022  0.1416 -0.0014  0.1646
  938YOPE   C3A13073  12.188   2.931   7.502  0.0844 -0.1025 -0.0960
  938YOPE   C4A13074  12.177   2.633   7.876 -0.0397 -0.3682 -0.2652
  938YOPE   C1B13075  12.241   3.473   6.700  0.3709  0.0780  0.0756
  938YOPE   C2B13076  12.488   3.599   7.058 -0.1345 -0.0867  0.3142
  938YOPE   D3B13077  12.877   3.698   7.292  0.0506  0.1053 -0.1103
  938YOPE   C4B13078  13.257   3.457   7.376  0.2241 -0.1544  0.1348
  939YOPE   NH313079   8.683   7.182   5.622  0.1745  0.0669  0.3620
  939YOPE   PO413080   8.372   7.314   5.482 -0.0723 -0.0526 -0.0088
  939YOPE   GL113081   8.462   7.492   6.013  0.0310  0.2957  0.1309
  939YOPE   GL213082   8.227   7.312   5.996  0.1468 -0.1169 -0.3266
  939YOPE   C1A13083   8.381   7.688   6.395 -0.2301 -0.1160  0.0810
  939YOPE   D2A13084   8.495   8.090   6.441 -0.2795  0.0356  0.1106
  939YOPE   C3A13085   8.660   8.232   6.751  0.0922 -0.0698  0.3510
  939YOPE   C4A13086   8.965   8.559   6.727  0.3499 -0.0866  0.0059
  939YOPE   C1B13087   8.381   7.211   6.403 -0.1297  0.1756  0.0588
  939YOPE   C2B13088   8.407   7.339   6.786  0.0351  0.0948  0.1588
  939YOPE   D3B13089   8.666   7.257   7.054  0.1006  0.0167  0.2629
  939YOPE   C4B13090   8.629   7.527   7.433 -0.0763  0.3506  0.1590
  940YOPE   NH313091   3.757   4.317   5.306  0.1319  0.1416 -0.0436
  940YOPE   PO413092   4.061   4.039   5.165  0.0427 -0.3262 -0.0386
  940YOPE   GL113093   4.023   3.848   5.504 -0.2100 -0.0493 -0.0600
  940YOPE   GL213094   4.269   3.930   5.581 -0.1197 -0.0588  0.1110
  940YOPE   C1A13095   3.835   3.782   5.896  0.0510  0.0881  0.1725
  940YOPE   D2A13096   3.938   3.826   6.334  0.0327 -0.2467 -0.4068
  940YOPE   C3A13097   3.869   3.566   6.684  0.1972  0.0754 -0.1681
  940YOPE   C4A13098   3.627   3.173   6.668 -0.2583 -0.0375  0.2204
  940YOPE   C1B13099   4.152   4.190   5.917  0.0090  0.0297 -0.0511
  940YOPE   C2B13100   4.173   4.482   6.335 -0.1008 -0.0782 -0.1067
  940YOPE   D3B13101   4.441   4.475   6.725 -0.0288 -0.0871 -0.3195
  940YOPE   C4B13102   4.614   4.219   7.125  0.1070 -0.1271  0.1895
  941YOPE   NH313103   2.190   9.622   5.746  0.0256 -0.1220  0.3498
  941YOPE   PO413104   1.832   9.489   5.963 -0.4604  0.0914  0.0489
  941YOPE   GL113105   1.888   9.361   6.368 -0.1327 -0.1228 -0.2065
  941YOPE   GL213106   1.997   9.056   6.483  0.0827  0.2111 -0.2330
  941YOPE   C1A13107   1.641   9.334   6.824  0.3002 -0.0112 -0.2231
  941YOPE   D2A13108   1.357   9.215   7.097 -0.2301 -0.0347  0.0104
  941YOPE   C3A13109   1.234   9.138   7.446  0.1151  0.0044  0.0870
  941YOPE   C4A13110   1.280   9.082   7.945 -0.2412 -0.1448  0.0243
  941YOPE   C1B13111   1.983   8.947   6.918 -0.0536 -0.0033 -0.1876
  941YOPE   C2B13112   1.726   9.004   7.371  0.2507  0.1895  0.1844
  941YOPE   D3B13113   1.705   9.235   7.741 -0.1072 -0.0066 -0.3008
  941YOPE   C4B13114   1.953   9.225   8.105 -0.0264  0.1970  0.0387
  942POPC   NC313115   7.791   4.167   5.461 -0.2114 -0.1079  0.2388
  942POPC   PO413116   7.425   3.937   5.528 -0.0295  0.0564  0.3248
  942POPC   GL113117   7.523   3.881   6.030 -0.0474 -0.0306 -0.2141
  942POPC   GL213118   7.218   3.919   6.149  0.1450  0.0622  0.0488
  942POPC   C1A13119   7.619   3.884   6.459 -0.3079 -0.0941  0.1446
  942POPC   D2A13120   7.605   3.768   6.864 -0.3854 -0.2551  0.0427
  942POPC   C3A13121   7.575   4.136   7.106 -0.0554  0.2496 -0.1585
  942POPC   C4A13122   7.593   4.273   7.561  0.1963 -0.0347  0.2870
  942POPC   C1B13123   6.846   4.020   6.389  0.3397 -0.0911  0.3646
  942POPC   C2B13124   6.597   4.405   6.654  0.0783 -0.2379 -0.2556
  942POPC   C3B13125   6.399   4.611   7.139  0.1214  0.0606  0.3500
  942POPC   C4B13126   6.020   4.723   7.348  0.1929  0.0454 -0.0947
  943POPC   NC313127  15.608   2.733   5.123 -0.1335 -0.0128 -0.1116
  943POPC   PO413128  15.785   2.880   5.488 -0.4063 -0.2383  0.0352
  943POPC   GL113129  15.880   2.708   5.882 -0.1832  0.1497 -0.1893
  943POPC   GL213130  16.144   2.876   5.904  0.1479  0.0108 -0.1587
  943POPC   C1A13131  16.014   2.580   6.294  0.3155  0.2041  0.1784
  943POPC   D2A13132  15.915   2.720   6.684 -0.2554 -0.0602 -0.1367
  943POPC   C3A13133  16.206   2.749   7.060 -0.0687  0.2214  0.3869
  943POPC   C4A13134  15.991   2.784   7.579 -0.2356  0.1555  0.0853
  943POPC   C1B13135  16.065   3.169   6.237 -0.3069  0.2190  0.0938
  943POPC   C2B13136  15.873   3.233   6.747 -0.0043 -0.3713  0.1025
  943POPC   C3B13137  15.780   3.322   7.157  0.2151  0.1034  0.0132
  943POPC   C4B13138  16.012   3.336   7.564  0.1083 -0.0465  0.3547
  944POPC   NC313139  10.361  14.898   5.208  0.0588  0.0633  0.1816
  944POPC   PO413140  10.619  15.095   5.544  0.0498 -0.0026  0.0110
  944POPC   GL113141  10.554  15.339   5.978 -0.3104 -0.1478 -0.2011
  944POPC   GL213142  10.418  15.705   6.104 -0.1748 -0.1061 -0.0699
  944POPC   C1A13143  10.633  15.180   6.435  0.2947  0.0114 -0.1889
  944POPC   D2A13144  10.448  15.371   6.828 -0.0829  0.0194 -0.0315
  944POPC   C3A13145  10.624  15.173   7.133 -0.0823 -0.0830  0.4585
  944POPC   C4A13146  10.724  15.271   7.560  0.0432  0.0730  0.0122
  944POPC   C1B13147  10.413  15.735   6.510  0.3384 -0.0955 -0.2937
  944POPC   C2B13148  10.195  15.880   6.825 -0.0223 -0.0789  0.0768
  944POPC   C3B13149   9.765  16.132   6.869  0.4540 -0.2348  0.0201
  944POPC   C4B13150   9.332  16.064   7.055  0.1218  0.2542 -0.3001
  945POPC   NC313151  11.459  12.038   5.524  0.0763 -0.1406 -0.2180
  945POPC   PO413152  11.174  12.042   5.908 -0.0081 -0.1404  0.4051
  945POPC   GL113153  11.250  11.847   6.292 -0.0283  0.1284  0.1171
  945POPC   GL213154  11.017  12.027   6.464  0.0724  0.2413 -0.0436
  945POPC   C1A13155  11.367  11.553   6.509 -0.1910 -0.2954 -0.0192
  945POPC   D2A13156  11.408  11.377   6.914  0.1944  0.0655  0.0254
  945POPC   C3A13157  11.381  11.501   7.320  0.2553 -0.2545 -0.2008
  945POPC   C4A13158  11.572  11.606   7.602 -0.2596  0.1233 -0.1530
  945POPC   C1B13159  10.874  12.183   6.779 -0.0967  0.0721  0.0233
  945POPC   C2B13160  10.788  12.419   7.186  0.0493 -0.2403 -0.0966
  945POPC   C3B13161  10.766  12.261   7.623  0.0072  0.0770 -0.2574
  945POPC   C4B13162  10.481  11.897   7.828 -0.1649 -0.0226 -0.0624
  946POPC   NC313163  15.961  14.226   5.227 -0.1733 -0.0178 -0.3575
  946POPC   PO413164  16.101  13.966   5.499  0.1922 -0.1745 -0.2918
  946POPC   GL113165  15.972  14.003   5.834  0.2116  0.0133 -0.1719
  946POPC   GL213166  15.723  13.900   5.805 -0.1176  0.4354 -0.0217
  946POPC   C1A13167  16.033  13.866   6.264 -0.0190 -0.1959  0.2168
  946POPC   D2A13168  15.963  13.843   6.688  0.0189 -0.0312 -0.4167
  946POPC   C3A13169  15.970  13.522   7.013 -0.1140 -0.0266 -0.1273
  946POPC   C4A13170  15.881  13.461   7.490 -0.4992  0.0293 -0.0232
  946POPC   C1B13171  15.729  13.510   6.131  0.1623 -0.1151 -0.0634
  946POPC   C2B13172  15.864  13.253   6.465  0.1053  0.1681  0.0623
  946POPC   C3B13173  15.932  12.931   6.889 -0.1240  0.0688  0.0803
  946POPC   C4B13174  15.989  12.875   7.337 -0.2875  0.2271  0.1103
  947POPC   NC313175  10.247   6.308   5.665 -0.0879  0.0508  0.0100
  947POPC   PO413176  10.537   6.655   5.604  0.0857  0.1826 -0.1989
  947POPC   GL113177  10.338   6.844   6.002  0.0292 -0.2328  0.0348
  947POPC   GL213178  10.135   6.630   6.030 -0.1047  0.3371 -0.0153
  947POPC   C1A13179  10.282   7.142   6.361 -0.3103  0.1300 -0.0240
  947POPC   D2A13180  10.358   7.282   6.773 -0.0618  0.0012 -0.2459
  947POPC   C3A13181  10.337   7.056   7.170 -0.1629  0.1808  0.1385
  947POPC   C4A13182  10.533   6.816   7.406 -0.2440 -0.1395 -0.0664
  947POPC   C1B13183  10.384   6.635   6.439 -0.0893  0.1017 -0.2877
  947POPC   C2B13184  10.384   6.609   6.919  0.4208  0.2007 -0.1232
  947POPC   C3B13185  10.248   6.415   7.335  0.1670  0.1886 -0.2561
  947POPC   C4B13186  10.332   6.109   7.689  0.1587  0.0190 -0.3505
  948POPC   NC313187  10.576  18.103   5.080 -0.0957  0.0217  0.0309
  948POPC   PO413188  10.719  17.736   5.447 -0.0441 -0.3334 -0.0411
  948POPC   GL113189  10.700  18.007   5.765  0.0491 -0.1697  0.1822
  948POPC   GL213190  10.961  18.026   5.792 -0.4552 -0.0261 -0.1407
  948POPC   C1A13191  10.711  18.435   5.831  0.3650  0.0942 -0.0337
  948POPC   D2A13192  11.033  18.745   5.781  0.1368  0.1263 -0.0515
  948POPC   C3A13193  11.118  18.929   6.141 -0.0982  0.1952  0.1025
  948POPC   C4A13194  10.872  19.228   6.452 -0.3224 -0.3283  0.0487
  948POPC   C1B13195  11.192  17.952   6.196  0.0275  0.2902  0.1912
  948POPC   C2B13196  11.182  18.073   6.547 -0.3470 -0.1718 -0.0676
  948POPC   C3B13197  11.007  18.408   6.801  0.1123 -0.0963  0.2206
  948POPC   C4B13198  10.763  18.608   7.097  0.2148 -0.1416 -0.0268
  949POPC   NC313199   2.453  10.329   5.811  0.1399  0.0873  0.2422
  949POPC   PO413200   2.425   9.980   5.922 -0.2198  0.2139 -0.1966
  949POPC   GL113201   2.523   9.765   6.222 -0.1193  0.1657 -0.3586
  949POPC   GL213202   2.285   9.791   6.376  0.0053 -0.1313 -0.1678
  949POPC   C1A13203   2.769   9.601   6.642 -0.2251 -0.2363  0.1930
  949POPC   D2A13204   2.927   9.527   7.144  0.1247 -0.1933 -0.0233
  949POPC   C3A13205   3.237   9.623   7.518 -0.1567  0.0187  0.1657
  949POPC   C4A13206   3.614   9.727   7.662 -0.1932 -0.1607  0.2987
  949POPC   C1B13207   2.447   9.999   6.768 -0.0948  0.0814 -0.1754
  949POPC   C2B13208   2.251  10.248   7.137  0.2039 -0.0245 -0.0411
  949POPC   C3B13209   1.920  10.268   7.521  0.1581 -0.5351  0.1891
  949POPC   C4B13210   1.635  10.027   7.761  0.2862  0.3008  0.2387
  950POPC   NC313211  13.768  16.079   5.094  0.1004 -0.1345  0.1381
  950POPC   PO413212  14.223  16.239   5.011  0.0464 -0.1584  0.0232
  950POPC   GL113213  14.421  15.967   5.245 -0.0236  0.0770  0.0741
  950POPC   GL213214  14.704  15.986   5.344  0.0699 -0.2951  0.0823
  950POPC   C1A13215  14.449  15.668   5.654 -0.0800  0.0679  0.1828
  950POPC   D2A13216  14.327  15.502   6.046  0.0838  0.1032 -0.1448
  950POPC   C3A13217  14.076  15.149   5.927  0.0006  0.6057  0.3175
  950POPC   C4A13218  14.300  14.707   5.847 -0.0442  0.0049  0.5383
  950POPC   C1B13219  14.727  16.021   5.842  0.3588  0.1571 -0.1358
  950POPC   C2B13220  14.554  16.001   6.281 -0.1010 -0.0322 -0.0685
  950POPC   C3B13221  14.353  16.099   6.668  0.1112 -0.0876 -0.0178
  950POPC   C4B13222  13.921  16.261   6.617  0.0454 -0.0886 -0.1334
  951POPC   NC313223  17.604  15.885   5.430 -0.0305 -0.0475  0.2156
  951POPC   PO413224  17.975  15.855   5.399  0.0239  0.1101  0.0357
  951POPC   GL113225  17.856  15.728   5.862  0.2631  0.1195 -0.0769
  951POPC   GL213226  17.948  15.563   6.034  0.0210  0.0108  0.3245
  951POPC   C1A13227  17.565  15.741   6.263  0.0645  0.0204 -0.2521
  951POPC   D2A13228  17.628  15.941   6.615  0.0001  0.2234 -0.2164
  951POPC   C3A13229  17.970  16.222   6.577 -0.3411  0.0769 -0.1780
  951POPC   C4A13230  18.376  16.353   6.615  0.1993  0.3960 -0.0325
  951POPC   C1B13231  18.035  15.677   6.428 -0.0744 -0.0387  0.0461
  951POPC   C2B13232  18.330  15.867   6.717  0.3424 -0.3084 -0.1141
  951POPC   C3B13233  18.443  15.834   7.115 -0.0686 -0.0507 -0.1247
  951POPC   C4B13234  18.572  15.604   7.437  0.0077  0.2349 -0.0018
  952POPC   NC313235  15.694   0.250   5.066  0.1141 -0.0650  0.0245
  952POPC   PO413236  15.183   0.125   5.117 -0.1720  0.1171  0.4631
  952POPC   GL113237  15.023  -0.105   5.504 -0.2603  0.1021  0.1591
  952POPC   GL213238  14.751  -0.441   5.507  0.0633  0.5798  0.0725
  952POPC   C1A13239  14.988  -0.245   5.931 -0.1648  0.0272 -0.1041
  952POPC   D2A13240  14.660  -0.655   6.095  0.0251 -0.1413 -0.1919
  952POPC   C3A13241  14.346  -0.727   6.411  0.0224  0.2508 -0.0713
  952POPC   C4A13242  13.994  -0.878   6.295  0.0264  0.0773  0.0866
  952POPC   C1B13243  15.036  -0.693   5.753 -0.0721  0.1382  0.2180
  952POPC   C2B13244  15.257  -0.650   6.071  0.1944  0.0197  0.2434
  952POPC   C3B13245  15.511  -0.948   6.280 -0.0951 -0.1151  0.1044
  952POPC   C4B13246  15.735  -1.302   6.405  0.0578 -0.0091 -0.4386
  953POPC   NC313247   8.508  16.417   5.420 -0.0894  0.0895 -0.3314
  953POPC   PO413248   8.241  16.130   5.578 -0.2862 -0.0265  0.3015
  953POPC   GL113249   8.399  15.855   5.893 -0.0247  0.2339  0.1643
  953POPC   GL213250   8.753  15.866   6.034  0.0821 -0.1388  0.1024
  953POPC   C1A13251   8.356  15.668   6.294 -0.0637 -0.2220 -0.1684
  953POPC   D2A13252   8.626  15.379   6.636  0.0626  0.2056 -0.1971
  953POPC   C3A13253   8.574  15.520   6.983 -0.1259  0.4671  0.2209
  953POPC   C4A13254   8.267  15.454   7.283 -0.0211  0.1435  0.2758
  953POPC   C1B13255   8.920  16.067   6.325  0.2620  0.1039 -0.2148
  953POPC   C2B13256   9.041  16.365   6.576  0.3250 -0.0054  0.4145
  953POPC   C3B13257   8.807  16.782   6.687  0.3000  0.0804 -0.0284
  953POPC   C4B13258   8.699  16.960   7.202  0.0408 -0.1320  0.2568
  954POPC   NC313259   1.320   3.698   5.172  0.1010 -0.0713  0.1231
  954POPC   PO413260   1.152   3.375   5.464 -0.3120 -0.2607 -0.4182
  954POPC   GL113261   1.142   3.066   5.863 -0.1187  0.0288 -0.2216
  954POPC   GL213262   1.324   2.714   5.856 -0.0459 -0.2931 -0.2467
  954POPC   C1A13263   1.067   3.125   6.265 -0.3008 -0.2848 -0.2369
  954POPC   D2A13264   0.817   3.018   6.571 -0.1630 -0.1893  0.0097
  954POPC   C3A13265   0.631   2.633   6.433 -0.1116  0.0691 -0.0381
  954POPC   C4A13266   0.457   2.182   6.289 -0.1414  0.1591  0.1154
  954POPC   C1B13267   1.597   2.806   6.295  0.1248  0.0308 -0.0120
  954POPC   C2B13268   1.724   2.771   6.729  0.2183 -0.0023  0.1351
  954POPC   C3B13269   1.443   2.766   7.119  0.0422 -0.1487  0.0720
  954POPC   C4B13270   0.966   2.658   7.215  0.1873 -0.0802  0.0374
  955POPC   NC313271   9.645   7.154   5.359  0.0053 -0.0832  0.0087
  955POPC   PO413272   9.717   7.300   5.680  0.0135  0.1016 -0.0165
  955POPC   GL113273   9.644   7.246   6.072  0.0071 -0.0357 -0.3191
  955POPC   GL213274   9.437   7.474   6.236  0.0736  0.3044  0.2537
  955POPC   C1A13275   9.732   6.974   6.417  0.1317 -0.0371  0.1894
  955POPC   D2A13276  10.005   6.947   6.760  0.4792  0.1219  0.1072
  955POPC   C3A13277   9.899   6.805   7.100 -0.1212 -0.1318  0.1240
  955POPC   C4A13278   9.775   6.652   7.477  0.3271 -0.1451 -0.0284
  955POPC   C1B13279   9.596   7.398   6.664 -0.0919  0.0518  0.3806
  955POPC   C2B13280   9.878   7.382   7.053 -0.0568  0.1166  0.2834
  955POPC   C3B13281  10.251   7.548   7.208  0.3302  0.2037  0.1889
  955POPC   C4B13282  10.586   7.421   7.357  0.1801 -0.2427  0.0391
  956POPC   NC313283   7.255  11.462   5.397 -0.3102 -0.0252 -0.1366
  956POPC   PO413284   6.851  11.549   5.594  0.3285  0.2239  0.0098
  956POPC   GL113285   6.920  11.591   6.007 -0.0367 -0.1488  0.0118
  956POPC   GL213286   7.043  11.869   6.180 -0.0795 -0.0290  0.3038
  956POPC   C1A13287   6.790  11.528   6.422  0.1178  0.0826 -0.2410
  956POPC   D2A13288   6.722  11.535   6.909 -0.1866 -0.0600 -0.1638
  956POPC   C3A13289   6.825  11.922   7.084  0.0636 -0.0379 -0.0339
  956POPC   C4A13290   6.893  12.187   7.339 -0.0025  0.0766 -0.0462
  956POPC   C1B13291   7.068  11.872   6.631 -0.3145  0.0340  0.0940
  956POPC   C2B13292   7.210  12.253   6.953  0.1419 -0.1617 -0.3546
  956POPC   C3B13293   7.361  12.443   7.457 -0.2656 -0.0713  0.0920
  956POPC   C4B13294   7.212  12.756   7.724  0.1891  0.0389  0.1559
  957POPC   NC313295   3.266   4.004   5.195 -0.2503  0.3516 -0.1244
  957POPC   PO413296   3.573   3.588   5.180  0.1442 -0.2874  0.2248
  957POPC   GL113297   3.496   3.528   5.630  0.1173  0.1906 -0.1297
  957POPC   GL213298   3.415   3.676   6.024  0.1263  0.0170 -0.2320
  957POPC   C1A13299   3.690   3.283   6.084 -0.0583 -0.1446 -0.1205
  957POPC   D2A13300   3.659   2.842   6.281 -0.0572 -0.0017  0.4100
  957POPC   C3A13301   3.383   2.703   6.571 -0.0058  0.3307  0.1787
  957POPC   C4A13302   3.255   2.318   6.740 -0.0216  0.0737 -0.1958
  957POPC   C1B13303   3.314   3.379   6.388  0.0864 -0.0248  0.0053
  957POPC   C2B13304   3.095   3.138   6.680  0.0975 -0.3082  0.0968
  957POPC   C3B13305   3.248   2.966   7.034 -0.0598  0.0223 -0.0618
  957POPC   C4B13306   3.359   2.666   7.370  0.0354  0.3151 -0.0089
  958POPC   NC313307  18.172   6.018   5.609 -0.0769 -0.0489  0.1404
  958POPC   PO413308  17.661   6.090   5.545 -0.3575 -0.0015  0.3762
  958POPC   GL113309  17.759   5.808   5.851  0.0184 -0.0108 -0.1989
  958POPC   GL213310  17.382   5.878   6.104 -0.1786 -0.0093 -0.0371
  958POPC   C1A13311  17.821   5.837   6.322 -0.0000 -0.0725  0.0334
  958POPC   D2A13312  17.704   5.956   6.784  0.1743  0.1022  0.2324
  958POPC   C3A13313  18.126   5.891   6.935  0.3226  0.0834 -0.3011
  958POPC   C4A13314  18.556   5.629   6.948 -0.1022  0.0289  0.3109
  958POPC   C1B13315  17.258   5.721   6.467  0.0993 -0.1724 -0.0570
  958POPC   C2B13316  17.103   5.617   6.811 -0.0255 -0.0370  0.2309
  958POPC   C3B13317  17.147   5.679   7.219 -0.1551  0.0969 -0.1426
  958POPC   C4B13318  17.218   5.758   7.632  0.3732 -0.1854  0.1505
  959POPC   NC313319  13.960   8.787   5.719 -0.4023 -0.2873 -0.1660
  959POPC   PO413320  13.503   8.617   5.710 -0.0694  0.0368  0.1924
  959POPC   GL113321  13.717   8.628   6.180 -0.2107  0.1405  0.0307
  959POPC   GL213322  13.772   8.417   6.388  0.0516 -0.3051  0.1405
  959POPC   C1A13323  13.704   8.936   6.517 -0.0609 -0.1669  0.0167
  959POPC   D2A13324  13.580   9.026   6.986  0.1856  0.0980 -0.2155
  959POPC   C3A13325  13.800   9.053   7.346  0.1588  0.0394 -0.0043
  959POPC   C4A13326  14.107   8.934   7.568 -0.0100  0.2592 -0.1368
  959POPC   C1B13327  13.889   8.469   6.711 -0.0483  0.0362  0.2485
  959POPC   C2B13328  13.824   8.609   7.142  0.1132 -0.2605 -0.0712
  959POPC   C3B13329  13.715   8.571   7.587  0.0264  0.2752  0.2585
  959POPC   C4B13330  13.829   8.408   7.882  0.0497 -0.0205 -0.2162
  960POPC   NC313331  17.825   7.733   5.358  0.2138 -0.0989 -0.0706
  960POPC   PO413332  17.819   7.871   5.830 -0.0660 -0.4517  0.0483
  960POPC   GL113333  17.916   8.037   6.217 -0.1162  0.3420 -0.1277
  960POPC   GL213334  17.963   7.860   6.564  0.0365 -0.2620  0.1243
  960POPC   C1A13335  17.742   8.381   6.404  0.1658 -0.1382 -0.0914
  960POPC   D2A13336  17.566   8.610   6.713  0.2853 -0.2871  0.2312
  960POPC   C3A13337  17.239   8.702   7.156 -0.0695 -0.0136 -0.1911
  960POPC   C4A13338  17.273   8.971   7.564  0.1480 -0.0808 -0.0169
  960POPC   C1B13339  17.655   8.106   6.862 -0.0497  0.1105  0.0986
  960POPC   C2B13340  17.367   8.183   7.123  0.0957 -0.2586 -0.3563
  960POPC   C3B13341  17.328   8.085   7.523  0.1663  0.0471  0.1621
  960POPC   C4B13342  17.306   7.938   7.922 -0.0463 -0.1323  0.1130
  961POPC   NC313343   3.560   2.131   5.140  0.1116 -0.2436 -0.0415
  961POPC   PO413344   3.463   2.298   5.463  0.1379 -0.0971  0.0195
  961POPC   GL113345   3.691   2.397   5.851 -0.0782 -0.2217 -0.0363
  961POPC   GL213346   3.913   2.612   5.844 -0.0946  0.2891 -0.1036
  961POPC   C1A13347   3.738   2.379   6.240  0.2480 -0.0762 -0.1664
  961POPC   D2A13348   3.770   2.370   6.661 -0.1445  0.0542 -0.4255
  961POPC   C3A13349   3.753   2.799   6.942  0.3490  0.0458  0.1409
  961POPC   C4A13350   3.803   2.834   7.459 -0.1683 -0.2599 -0.4023
  961POPC   C1B13351   4.271   2.575   6.118  0.0755 -0.1162 -0.1396
  961POPC   C2B13352   4.250   2.420   6.543 -0.0399 -0.2466 -0.0586
  961POPC   C3B13353   4.363   2.132   6.857 -0.0339 -0.0183 -0.1531
  961POPC   C4B13354   4.097   1.827   7.010 -0.0046  0.2240 -0.0289
  962POPC   NC313355   4.770   2.759   5.109  0.1906 -0.0354 -0.0377
  962POPC   PO413356   4.270   2.847   5.205  0.0351  0.1522 -0.1091
  962POPC   GL113357   4.273   3.194   5.465  0.2014 -0.2521 -0.1919
  962POPC   GL213358   3.899   3.237   5.468  0.0502 -0.1148 -0.2366
  962POPC   C1A13359   4.370   3.400   5.747  0.1690  0.1325  0.1369
  962POPC   D2A13360   4.314   3.704   5.985 -0.3441 -0.1690  0.0359
  962POPC   C3A13361   4.439   3.775   6.377  0.1675 -0.2093  0.2382
  962POPC   C4A13362   4.649   3.901   6.673  0.2904  0.0714 -0.4774
  962POPC   C1B13363   4.082   3.058   5.908  0.1128  0.1402  0.2407
  962POPC   C2B13364   4.167   3.315   6.282  0.2940  0.2352 -0.0836
  962POPC   C3B13365   4.329   3.355   6.769 -0.2741  0.3461  0.2635
  962POPC   C4B13366   3.931   3.308   7.119  0.0238 -0.1962  0.1624
  963POPC   NC313367   6.937  10.581   5.840  0.0799  0.1162  0.0289
  963POPC   PO413368   7.438  10.615   5.734 -0.0241  0.1181 -0.0506
  963POPC   GL113369   7.349  10.443   5.980 -0.2402 -0.1005 -0.0505
  963POPC   GL213370   7.388  10.726   6.184 -0.0298 -0.2108 -0.0551
  963POPC   C1A13371   7.581  10.309   6.350  0.0103 -0.4089  0.0228
  963POPC   D2A13372   7.610  10.367   6.847  0.2289  0.0630 -0.2096
  963POPC   C3A13373   7.588  10.743   6.917 -0.0539 -0.3943 -0.0096
  963POPC   C4A13374   7.707  10.949   7.289 -0.0757  0.1572 -0.2253
  963POPC   C1B13375   7.406  11.023   6.440 -0.0242 -0.0196 -0.0054
  963POPC   C2B13376   7.253  11.371   6.658  0.0956  0.3236 -0.3210
  963POPC   C3B13377   7.184  11.492   6.998 -0.0453 -0.1078  0.0038
  963POPC   C4B13378   7.287  11.834   7.189  0.1375  0.3543 -0.1378
  964POPC   NC313379   6.160   3.338   5.256 -0.1760 -0.1206  0.1373
  964POPC   PO413380   6.103   3.113   5.730  0.0789  0.2071 -0.0475
  964POPC   GL113381   5.816   3.274   5.985  0.0032  0.1957  0.0335
  964POPC   GL213382   5.457   3.178   5.890 -0.0564 -0.3175  0.0029
  964POPC   C1A13383   5.492   3.517   6.285 -0.1152 -0.0391  0.0722
  964POPC   D2A13384   5.343   3.711   6.546  0.2395 -0.3425 -0.1068
  964POPC   C3A13385   5.144   3.773   6.953 -0.2318 -0.2101  0.4439
  964POPC   C4A13386   5.153   4.010   7.318 -0.0805  0.1923  0.1551
  964POPC   C1B13387   5.100   3.181   6.209  0.1845  0.1943 -0.0581
  964POPC   C2B13388   4.854   3.481   6.602  0.2813 -0.1292 -0.2058
  964POPC   C3B13389   4.765   3.336   7.082  0.2876 -0.0616 -0.1147
  964POPC   C4B13390   4.664   3.225   7.484 -0.0137 -0.0122 -0.0180
  965POPC   NC313391  12.143   4.760   5.858 -0.1292 -0.1186 -0.0488
  965POPC   PO413392  12.487   4.654   5.729 -0.1535  0.0422  0.1359
  965POPC   GL113393  12.667   4.552   6.140 -0.0818 -0.3599 -0.1603
  965POPC   GL213394  12.585   4.739   6.404  0.2169 -0.1134  0.0144
  965POPC   C1A13395  13.044   4.393   6.349 -0.0240  0.1828  0.1407
  965POPC   D2A13396  13.358   4.216   6.633  0.3234 -0.2810 -0.2202
  965POPC   C3A13397  13.652   4.524   6.703  0.1157 -0.0871 -0.2249
  965POPC   C4A13398  13.924   4.837   6.831 -0.1224  0.0213 -0.0458
  965POPC   C1B13399  12.787   4.511   6.736 -0.0209 -0.1671  0.0480
  965POPC   C2B13400  13.047   4.412   7.052  0.0182  0.1208  0.1399
  965POPC   C3B13401  13.098   4.540   7.551  0.0459  0.0827  0.2094
  965POPC   C4B13402  12.692   4.610   7.833 -0.3240  0.1916  0.0423
  966POPC   NC313403   0.113   8.875   5.634  0.0384  0.2150  0.1643
  966POPC   PO413404   0.438   8.950   5.625 -0.1286 -0.0178 -0.0833
  966POPC   GL113405   0.321   8.962   6.130 -0.1238 -0.0049 -0.0617
  966POPC   GL213406  -0.060   8.883   6.124  0.2250 -0.2456  0.1546
  966POPC   C1A13407   0.256   9.153   6.549 -0.0337 -0.4098  0.0677
  966POPC   D2A13408   0.384   9.204   6.991  0.5242 -0.2661  0.1529
  966POPC   C3A13409   0.392   9.602   7.178 -0.1602  0.0981 -0.1289
  966POPC   C4A13410   0.611   9.927   7.368  0.0822 -0.1183 -0.3807
  966POPC   C1B13411  -0.292   9.042   6.483  0.1405  0.1749 -0.0082
  966POPC   C2B13412  -0.613   8.802   6.694 -0.0527  0.1640  0.1387
  966POPC   C3B13413  -0.776   8.609   7.195 -0.1567  0.0058  0.3493
  966POPC   C4B13414  -0.843   8.559   7.628 -0.0314 -0.0277 -0.2039
  967POPC   NC313415   3.551   6.519   5.452 -0.0826  0.1139 -0.0525
  967POPC   PO413416   3.389   6.436   5.872  0.1399 -0.2326 -0.3763
  967POPC   GL113417   3.086   6.548   6.280  0.1206  0.1500  0.1282
  967POPC   GL213418   2.868   6.344   6.439 -0.1150  0.1954 -0.0875
  967POPC   C1A13419   3.139   6.575   6.769 -0.2246 -0.3067 -0.1618
  967POPC   D2A13420   2.970   6.408   7.117 -0.0518 -0.1222 -0.0011
  967POPC   C3A13421   3.202   6.204   7.394  0.0961  0.1198  0.0028
  967POPC   C4A13422   3.475   6.014   7.752 -0.1579  0.0129 -0.0976
  967POPC   C1B13423   2.667   6.550   6.730  0.2183 -0.0552 -0.1703
  967POPC   C2B13424   2.281   6.762   6.962 -0.2265  0.1070 -0.2511
  967POPC   C3B13425   2.147   6.746   7.406  0.0046  0.0006 -0.1944
  967POPC   C4B13426   2.321   6.918   7.721  0.0733  0.1717 -0.0128
  968POPC   NC313427   2.952  16.649   5.854  0.4279  0.1790 -0.1228
  968POPC   PO413428   2.990  17.015   6.025  0.0303  0.2896  0.0931
  968POPC   GL113429   3.207  16.890   6.416 -0.1253  0.0968 -0.1577
  968POPC   GL213430   3.320  17.135   6.335  0.0254 -0.0928  0.0308
  968POPC   C1A13431   3.168  16.708   6.829  0.0206 -0.1245  0.0503
  968POPC   D2A13432   3.356  16.624   7.288  0.0207 -0.1133  0.2063
  968POPC   C3A13433   3.084  16.740   7.646 -0.2459  0.0634  0.1588
  968POPC   C4A13434   2.897  17.037   7.590 -0.1030  0.1631 -0.0293
  968POPC   C1B13435   3.483  17.070   6.765  0.0521 -0.0429  0.1599
  968POPC   C2B13436   3.337  17.143   7.137  0.1838  0.1209 -0.0721
  968POPC   C3B13437   3.773  17.422   7.386  0.1307  0.0276  0.1118
  968POPC   C4B13438   4.024  17.438   7.591  0.0682  0.5110 -0.2510
  969POPC   NC313439  12.198  13.843   5.404  0.1457  0.0392 -0.0012
  969POPC   PO413440  11.934  14.154   5.241  0.0870  0.0520 -0.2008
  969POPC   GL113441  12.049  14.345   5.653 -0.0652  0.1136 -0.1808
  969POPC   GL213442  11.867  14.499   5.804  0.0299  0.0051  0.2162
  969POPC   C1A13443  12.396  14.459   6.040  0.2686 -0.1305 -0.0067
  969POPC   D2A13444  12.510  14.309   6.425 -0.1985  0.0532 -0.0692
  969POPC   C3A13445  12.565  13.905   6.591  0.1718 -0.1375 -0.1051
  969POPC   C4A13446  12.521  13.797   7.008 -0.0004 -0.1484  0.0447
  969POPC   C1B13447  11.969  14.639   6.187 -0.2668  0.0091  0.0452
  969POPC   C2B13448  12.148  14.639   6.459 -0.2364 -0.1960 -0.3367
  969POPC   C3B13449  12.370  14.592   6.861 -0.3608  0.1628 -0.0066
  969POPC   C4B13450  12.609  14.718   7.234 -0.2770 -0.1528 -0.1286
  970POPC   NC313451   7.562  13.568   5.629 -0.0209  0.1856  0.0277
  970POPC   PO413452   7.274  13.786   5.865  0.1135  0.1771  0.0635
  970POPC   GL113453   7.244  13.566   6.131 -0.2138  0.0973 -0.3183
  970POPC   GL213454   7.075  13.363   6.020  0.3547 -0.0553  0.0656
  970POPC   C1A13455   6.948  13.548   6.516 -0.0425  0.0742 -0.0342
  970POPC   D2A13456   6.711  13.579   6.823 -0.0491  0.0688  0.2644
  970POPC   C3A13457   6.756  13.232   7.177 -0.1280  0.2875  0.3755
  970POPC   C4A13458   7.016  13.153   7.431  0.0332 -0.0439  0.1229
  970POPC   C1B13459   6.901  13.115   6.285  0.1183 -0.2662  0.3282
  970POPC   C2B13460   6.661  12.750   6.378 -0.3339 -0.1922  0.1214
  970POPC   C3B13461   6.373  12.425   6.352 -0.1133 -0.0484  0.0113
  970POPC   C4B13462   6.057  12.320   6.103 -0.2333 -0.0529 -0.2586
  971POPC   NC313463   0.031  10.996   5.543  0.0956 -0.2830 -0.0705
  971POPC   PO413464   0.382  10.564   5.651  0.2632  0.1435  0.1284
  971POPC   GL113465   0.530  10.225   5.964 -0.0098  0.0402  0.1725
  971POPC   GL213466   0.533  10.473   6.301 -0.4974 -0.0997 -0.0324
  971POPC   C1A13467   0.442   9.823   5.954 -0.1192  0.2146  0.0842
  971POPC   D2A13468   0.465   9.519   6.227 -0.0147  0.1810 -0.0784
  971POPC   C3A13469   0.292   9.645   6.570  0.1296  0.0545  0.1064
  971POPC   C4A13470   0.305  10.009   6.808  0.0383  0.0157 -0.1026
  971POPC   C1B13471   0.651  10.365   6.766 -0.0642 -0.1140  0.3948
  971POPC   C2B13472   0.939  10.444   7.084  0.2039 -0.0237  0.1398
  971POPC   C3B13473   1.015  10.461   7.537  0.0164 -0.0765  0.1300
  971POPC   C4B13474   1.127  10.057   7.785  0.0890  0.1348  0.0127
  972POPC   NC313475  12.945   6.986   5.451 -0.5069 -0.0901 -0.1157
  972POPC   PO413476  12.486   6.962   5.270  0.1677 -0.1845  0.0608
  972POPC   GL113477  12.124   6.619   5.433  0.1160  0.0685 -0.0825
  972POPC   GL213478  12.125   6.324   5.557 -0.1045  0.1635 -0.1181
  972POPC   C1A13479  11.810   6.694   5.760 -0.0857 -0.1787 -0.3044
  972POPC   D2A13480  11.601   6.545   6.205 -0.2832 -0.0813  0.0948
  972POPC   C3A13481  11.532   6.409   6.630  0.0232  0.2532 -0.1054
  972POPC   C4A13482  11.552   6.753   7.015  0.0257 -0.1766  0.1963
  972POPC   C1B13483  11.832   6.182   5.895 -0.2432 -0.2122 -0.1102
  972POPC   C2B13484  11.597   5.930   6.141  0.1930  0.1944 -0.2922
  972POPC   C3B13485  11.344   5.915   6.539  0.0596 -0.3544 -0.1261
  972POPC   C4B13486  11.103   6.112   6.864  0.0335  0.0247  0.1718
  973POPC   NC313487   0.274   5.219   5.839 -0.0559 -0.1358  0.0015
  973POPC   PO413488   0.624   5.182   6.111  0.1357 -0.0258 -0.1615
  973POPC   GL113489   0.581   5.368   6.441 -0.1209  0.0968 -0.2645
  973POPC   GL213490   0.897   5.393   6.656  0.0769 -0.2216  0.1907
  973POPC   C1A13491   0.295   5.544   6.566 -0.1845  0.3409 -0.1266
  973POPC   D2A13492  -0.090   5.383   6.440  0.2821  0.2770 -0.1720
  973POPC   C3A13493  -0.265   4.984   6.527 -0.0770 -0.0492  0.2498
  973POPC   C4A13494  -0.628   4.732   6.578 -0.0498 -0.2259 -0.1295
  973POPC   C1B13495   0.694   5.275   7.066 -0.2885  0.0827 -0.0512
  973POPC   C2B13496   0.576   5.160   7.452 -0.0088  0.4261 -0.2613
  973POPC   C3B13497   0.625   4.931   7.859 -0.3846 -0.0403 -0.0287
  973POPC   C4B13498   0.860   4.669   8.038  0.0190 -0.0925 -0.0340
  974POPC   NC313499  14.957   7.462   5.779  0.0640  0.1196 -0.1751
  974POPC   PO413500  14.612   7.581   5.445 -0.0688 -0.0702 -0.1572
  974POPC   GL113501  14.486   7.580   5.939  0.3491  0.0145  0.1909
  974POPC   GL213502  14.691   7.423   6.182 -0.2055  0.2139 -0.1904
  974POPC   C1A13503  14.274   7.873   6.267  0.2140  0.0001 -0.1246
  974POPC   D2A13504  14.117   7.913   6.633 -0.0855  0.0681  0.1928
  974POPC   C3A13505  14.271   7.778   6.930  0.0243  0.1385 -0.1090
  974POPC   C4A13506  14.241   7.933   7.377 -0.3165  0.3344  0.2467
  974POPC   C1B13507  14.525   7.509   6.465  0.0557  0.2335 -0.2908
  974POPC   C2B13508  14.464   7.213   6.914 -0.3026 -0.0821  0.0132
  974POPC   C3B13509  14.394   6.888   7.209 -0.1738  0.0485 -0.3055
  974POPC   C4B13510  14.149   6.558   7.441  0.0401  0.0342 -0.1477
  975POPC   NC313511   8.220   9.493   5.858 -0.0470 -0.0595  0.3300
  975POPC   PO413512   8.474   9.865   5.785  0.6529  0.1008 -0.0845
  975POPC   GL113513   8.739   9.775   6.070 -0.1939 -0.2300  0.1051
  975POPC   GL213514   9.138   9.836   5.915  0.1698 -0.0042 -0.1854
  975POPC   C1A13515   8.877  10.021   6.419  0.0145  0.1940  0.1028
  975POPC   D2A13516   9.207  10.059   6.798 -0.0381  0.3817 -0.0226
  975POPC   C3A13517   9.084   9.999   7.248  0.0238  0.1356  0.1587
  975POPC   C4A13518   8.750  10.029   7.606 -0.1911 -0.0447 -0.2418
  975POPC   C1B13519   9.217   9.562   6.330 -0.2875  0.1014  0.0291
  975POPC   C2B13520   9.478   9.649   6.724 -0.1197  0.1467  0.1898
  975POPC   C3B13521   9.818   9.537   6.803  0.0549  0.1150  0.0746
  975POPC   C4B13522  10.053   9.395   7.126  0.0337  0.0010  0.2396
  976POPC   NC313523   5.136  16.851   5.490  0.2939 -0.3742 -0.0602
  976POPC   PO413524   4.961  17.261   5.241  0.0119 -0.1586  0.2754
  976POPC   GL113525   4.843  17.379   5.592  0.0720  0.0484  0.3549
  976POPC   GL213526   4.684  17.192   5.726  0.0555  0.0510 -0.0682
  976POPC   C1A13527   5.159  17.504   5.879 -0.0693 -0.2588  0.3136
  976POPC   D2A13528   5.285  17.884   5.925 -0.0144  0.1648 -0.0750
  976POPC   C3A13529   5.470  17.776   6.320 -0.2742  0.3922  0.1893
  976POPC   C4A13530   5.609  17.802   6.722  0.1340  0.0505 -0.1411
  976POPC   C1B13531   4.617  17.060   6.104  0.3776 -0.0113  0.0364
  976POPC   C2B13532   4.514  17.194   6.537  0.5488  0.1843 -0.2621
  976POPC   C3B13533   4.453  17.559   6.737  0.2880 -0.0987 -0.0020
  976POPC   C4B13534   4.623  17.945   6.932 -0.0794 -0.2241  0.2483
  977POPC   NC313535  18.389  10.178   5.118 -0.0625 -0.2730 -0.0637
  977POPC   PO413536  18.021   9.995   5.398 -0.1871  0.1638  0.0457
  977POPC   GL113537  18.276  10.084   5.730  0.0724 -0.0507 -0.0263
  977POPC   GL213538  18.274   9.811   5.936 -0.1672  0.0518  0.0893
  977POPC   C1A13539  18.163  10.178   6.251 -0.2418 -0.3627 -0.1961
  977POPC   D2A13540  18.469  10.208   6.595 -0.1138  0.0855 -0.0517
  977POPC   C3A13541  18.438  10.167   7.015  0.1234 -0.1176 -0.0902
  977POPC   C4A13542  18.860  10.223   7.249 -0.0727  0.3464  0.2428
  977POPC   C1B13543  18.620  10.017   6.105 -0.1562  0.0626  0.1236
  977POPC   C2B13544  18.864  10.061   6.332 -0.1197 -0.1550  0.0338
  977POPC   C3B13545  19.322   9.986   6.429  0.0545  0.1071  0.0632
  977POPC   C4B13546  19.618   9.762   6.269  0.1447 -0.0811 -0.0394
  978POPC   NC313547   5.163   8.501   5.967 -0.2182  0.2384 -0.2473
  978POPC   PO413548   5.154   8.008   6.057 -0.0885 -0.0524 -0.2089
  978POPC   GL113549   5.278   7.725   6.399  0.0289  0.1698  0.0288
  978POPC   GL213550   5.508   7.680   6.189 -0.0298  0.2661 -0.5118
  978POPC   C1A13551   5.277   7.674   6.885 -0.2271  0.2023  0.1110
  978POPC   D2A13552   5.286   7.535   7.251 -0.3461  0.0077 -0.1805
  978POPC   C3A13553   5.055   7.592   7.675 -0.0585  0.3567 -0.0657
  978POPC   C4A13554   5.044   7.983   7.945 -0.4941 -0.1107 -0.0192
  978POPC   C1B13555   5.744   7.500   6.576 -0.1109  0.0485  0.0867
  978POPC   C2B13556   5.623   7.312   6.972 -0.2572 -0.0596 -0.1708
  978POPC   C3B13557   5.640   7.200   7.435 -0.1369  0.1050  0.0440
  978POPC   C4B13558   5.368   7.243   7.752 -0.0509  0.1529  0.0030
  979POPC   NC313559   9.798   4.192   5.291  0.1150 -0.0101  0.0586
  979POPC   PO413560   9.621   4.360   5.656 -0.3003  0.0622 -0.0625
  979POPC   GL113561   9.569   4.614   6.066  0.3741 -0.2447 -0.1946
  979POPC   GL213562   9.291   4.754   6.227  0.0634 -0.2915 -0.1481
  979POPC   C1A13563   9.740   4.610   6.538 -0.1091  0.0526  0.1530
  979POPC   D2A13564   9.761   4.364   6.881 -0.1026 -0.1121 -0.0705
  979POPC   C3A13565   9.525   4.476   7.197 -0.1353 -0.0622 -0.2377
  979POPC   C4A13566   9.264   4.319   7.571  0.1506 -0.3716  0.0772
  979POPC   C1B13567   8.869   4.735   6.495 -0.1581 -0.1500 -0.0040
  979POPC   C2B13568   8.548   5.046   6.631  0.2647  0.1060  0.1282
  979POPC   C3B13569   8.061   5.038   6.729 -0.0879 -0.0146 -0.1217
  979POPC   C4B13570   7.748   4.782   6.789 -0.1416  0.2521 -0.1883
  980POPC   NC313571   1.758   3.911   5.820 -0.1088  0.2100  0.1398
  980POPC   PO413572   2.153   3.929   5.841 -0.2282 -0.3135  0.1342
  980POPC   GL113573   2.409   3.887   6.176 -0.0018  0.4806 -0.1150
  980POPC   GL213574   2.376   3.474   6.205 -0.1381 -0.0045 -0.1280
  980POPC   C1A13575   2.489   4.113   6.447  0.1783 -0.0181 -0.2853
  980POPC   D2A13576   2.730   4.170   6.887  0.2739  0.3053 -0.1365
  980POPC   C3A13577   3.229   4.324   6.782  0.2085  0.0597  0.0314
  980POPC   C4A13578   3.670   4.263   7.134  0.1578 -0.3389 -0.1208
  980POPC   C1B13579   2.487   3.607   6.643  0.2561 -0.1633  0.1161
  980POPC   C2B13580   2.589   3.712   7.093  0.2189 -0.0047  0.2352
  980POPC   C3B13581   2.759   4.047   7.380  0.1123  0.4148  0.2879
  980POPC   C4B13582   2.781   4.014   7.813 -0.1017  0.1240  0.1531
  981POPC   NC313583   4.337   1.488   5.055 -0.0650 -0.0702 -0.2334
  981POPC   PO413584   3.942   1.692   5.213 -0.0717 -0.0051 -0.0718
  981POPC   GL113585   3.785   1.592   5.606  0.2056 -0.0188  0.3821
  981POPC   GL213586   3.795   1.297   5.783 -0.2384  0.2858 -0.1632
  981POPC   C1A13587   3.716   1.914   5.992  0.0258  0.0151  0.2256
  981POPC   D2A13588   3.490   1.997   6.465 -0.3469 -0.1780 -0.0285
  981POPC   C3A13589   3.627   1.937   6.860  0.2236  0.0153  0.1716
  981POPC   C4A13590   3.753   2.256   7.218 -0.2309  0.0412  0.0718
  981POPC   C1B13591   3.501   1.448   6.056 -0.2241 -0.0438 -0.0674
  981POPC   C2B13592   3.257   1.558   6.357  0.0575 -0.1717  0.2738
  981POPC   C3B13593   3.169   1.538   6.779  0.1735 -0.0796  0.0528
  981POPC   C4B13594   3.147   1.746   7.183  0.0915  0.0240  0.3647
  982YOPC   NC313595   4.589   5.336   5.580 -0.4472  0.0119 -0.2086
  982YOPC   PO413596   4.194   5.041   5.430  0.0521  0.1614  0.0727
  982YOPC   GL113597   3.972   4.970   5.894  0.0093  0.1340  0.2524
  982YOPC   GL213598   4.213   4.746   5.996  0.1052  0.1435  0.0690
  982YOPC   C1A13599   3.754   4.776   6.326 -0.0121 -0.1664  0.1533
  982YOPC   D2A13600   3.550   4.686   6.775  0.0513 -0.1877  0.3385
  982YOPC   C3A13601   3.727   4.912   7.044  0.1805  0.1886 -0.1055
  982YOPC   C4A13602   3.589   4.927   7.444  0.0754 -0.0089  0.0428
  982YOPC   C1B13603   4.619   4.701   6.212 -0.0321 -0.2138  0.0051
  982YOPC   C2B13604   5.088   4.919   6.370 -0.1308  0.4597 -0.0568
  982YOPC   D3B13605   5.126   5.113   6.756 -0.0559  0.1748 -0.0534
  982YOPC   C4B13606   4.963   5.391   7.062  0.5320 -0.1732 -0.1085
  983YOPC   NC313607   5.321  13.380   5.323  0.0288  0.2247  0.2884
  983YOPC   PO413608   5.282  13.487   5.733  0.1018  0.2963 -0.0671
  983YOPC   GL113609   5.287  13.429   6.199 -0.0328 -0.1619 -0.2122
  983YOPC   GL213610   4.896  13.402   6.191  0.0035  0.1727 -0.0242
  983YOPC   C1A13611   5.458  13.563   6.601  0.1791  0.4691  0.2203
  983YOPC   D2A13612   5.555  13.667   7.036  0.0282 -0.2254 -0.0971
  983YOPC   C3A13613   5.877  13.608   7.159  0.1413  0.1724  0.1664
  983YOPC   C4A13614   6.344  13.572   7.196  0.2551 -0.0574 -0.0587
  983YOPC   C1B13615   4.898  13.518   6.639 -0.0212  0.1655 -0.1285
  983YOPC   C2B13616   5.079  13.772   6.881 -0.1325  0.0193 -0.0401
  983YOPC   D3B13617   4.787  14.065   7.216  0.0433  0.2157 -0.0790
  983YOPC   C4B13618   4.603  14.340   7.549  0.0507  0.1369 -0.1883
  984YOPC   NC313619   5.253  12.956   5.718 -0.0166 -0.1920  0.2410
  984YOPC   PO413620   4.810  12.846   5.878 -0.3543  0.2127 -0.0218
  984YOPC   GL113621   5.114  12.688   6.174  0.2043 -0.0521  0.0371
  984YOPC   GL213622   5.152  12.923   6.206 -0.0037  0.3166  0.0183
  984YOPC   C1A13623   5.338  12.525   6.570 -0.1748 -0.0328  0.1279
  984YOPC   D2A13624   5.198  12.385   6.856  0.2143 -0.1155 -0.1915
  984YOPC   C3A13625   5.424  12.201   7.246  0.1379  0.0544 -0.0291
  984YOPC   C4A13626   5.693  12.207   7.588  0.2179 -0.0942  0.0505
  984YOPC   C1B13627   5.184  12.988   6.650  0.2967  0.2497  0.2143
  984YOPC   C2B13628   5.213  13.251   7.053  0.0082 -0.2098  0.0332
  984YOPC   D3B13629   5.557  13.170   7.326 -0.2785  0.0990 -0.3138
  984YOPC   C4B13630   6.012  13.295   7.480  0.3712 -0.0051  0.0882
  985YOPC   NC313631   5.136   9.706   5.680  0.2960  0.2661  0.0491
  985YOPC   PO413632   5.396   9.607   5.927 -0.0561 -0.1176 -0.1834
  985YOPC   GL113633   5.283   9.519   6.297  0.2349 -0.2536  0.0193
  985YOPC   GL213634   5.618   9.420   6.312 -0.2167  0.0650  0.1706
  985YOPC   C1A13635   5.451   9.645   6.667 -0.1135 -0.3438 -0.1148
  985YOPC   D2A13636   5.491   9.661   7.101 -0.0190  0.2461 -0.2724
  985YOPC   C3A13637   5.184   9.880   7.326  0.1759  0.0964  0.2216
  985YOPC   C4A13638   4.916  10.104   7.591  0.1137 -0.0058 -0.0988
  985YOPC   C1B13639   5.487   9.109   6.636  0.2506  0.1562 -0.2965
  985YOPC   C2B13640   5.358   8.976   6.948  0.0281 -0.2486 -0.2540
  985YOPC   D3B13641   4.975   8.909   7.120  0.0608  0.1355 -0.2546
  985YOPC   C4B13642   4.469   8.847   7.142  0.0251 -0.1757 -0.0362
  986YOPC   NC313643  18.511   6.774   6.047 -0.1046  0.1730 -0.0770
  986YOPC   PO413644  18.503   6.365   5.839 -0.4397 -0.4464  0.3705
  986YOPC   GL113645  18.407   6.334   6.326  0.4072 -0.3578 -0.1255
  986YOPC   GL213646  18.259   6.067   6.129  0.1433 -0.1490  0.4481
  986YOPC   C1A13647  18.328   6.380   6.775 -0.1729 -0.1542 -0.1183
  986YOPC   D2A13648  18.540   6.140   7.129  0.3675 -0.1153 -0.0326
  986YOPC   C3A13649  18.495   6.347   7.500  0.2745  0.0941  0.0493
  986YOPC   C4A13650  18.442   6.673   7.826  0.1223 -0.0766  0.2555
  986YOPC   C1B13651  18.491   5.864   6.437 -0.0424  0.1698 -0.0390
  986YOPC   C2B13652  18.805   6.087   6.604 -0.0197  0.0281  0.0941
  986YOPC   D3B13653  18.858   6.443   6.871 -0.0213 -0.2708  0.1465
  986YOPC   C4B13654  18.810   6.716   7.195 -0.5914  0.1431  0.0792
  987YOPC   NC313655  18.252  14.355   5.084  0.1255 -0.2723 -0.1000
  987YOPC   PO413656  18.602  14.488   5.383  0.0611  0.1715  0.2800
  987YOPC   GL113657  18.564  14.265   5.785  0.0219 -0.2163 -0.1625
  987YOPC   GL213658  18.665  14.008   5.825 -0.1475 -0.2016 -0.0857
  987YOPC   C1A13659  18.368  14.420   6.242 -0.0603  0.0421  0.1399
  987YOPC   D2A13660  18.366  14.616   6.645  0.1831  0.2117 -0.2819
  987YOPC   C3A13661  18.089  14.454   6.929  0.1654 -0.0720 -0.2296
  987YOPC   C4A13662  17.846  14.430   7.261 -0.2276  0.1373 -0.1451
  987YOPC   C1B13663  18.348  13.963   6.163 -0.2413  0.2353 -0.0728
  987YOPC   C2B13664  18.479  13.883   6.570 -0.2491 -0.1100 -0.0880
  987YOPC   D3B13665  18.372  14.112   6.772 -0.0577 -0.0518  0.4007
  987YOPC   C4B13666  18.309  14.017   7.182 -0.0054 -0.1866 -0.1820
  988YOPC   NC313667  11.908   5.337   5.503  0.1147  0.0187 -0.0436
  988YOPC   PO413668  11.837   4.945   5.556 -0.1070 -0.1234 -0.0804
  988YOPC   GL113669  11.700   5.044   5.924  0.0595 -0.1380 -0.0665
  988YOPC   GL213670  11.792   4.797   6.216 -0.0702  0.0379  0.0040
  988YOPC   C1A13671  11.502   5.347   6.138  0.0568 -0.3133  0.2283
  988YOPC   D2A13672  11.719   5.553   6.493  0.1013 -0.0623 -0.1528
  988YOPC   C3A13673  11.540   5.530   6.919 -0.0274 -0.2983 -0.0312
  988YOPC   C4A13674  11.778   5.393   7.308  0.2548  0.0873  0.0862
  988YOPC   C1B13675  11.757   5.073   6.516 -0.0496 -0.0432  0.0475
  988YOPC   C2B13676  11.935   5.230   6.846  0.0517 -0.1468  0.2208
  988YOPC   D3B13677  12.022   4.885   7.096  0.0793 -0.0580  0.0991
  988YOPC   C4B13678  11.725   4.853   7.429 -0.1457  0.0962 -0.0947
  989YOPC   NC313679   2.207   0.196   5.941 -0.1908 -0.4610 -0.1546
  989YOPC   PO413680   2.372   0.449   6.260  0.0479  0.1825 -0.0093
  989YOPC   GL113681   2.613   0.268   6.557 -0.0561 -0.2363 -0.0727
  989YOPC   GL213682   2.356   0.195   6.726  0.0652  0.0232 -0.0420
  989YOPC   C1A13683   2.831   0.150   6.870 -0.2432  0.0091  0.2188
  989YOPC   D2A13684   2.785   0.304   7.278 -0.0123 -0.2711  0.0542
  989YOPC   C3A13685   3.071   0.547   7.492 -0.0353  0.1258  0.0640
  989YOPC   C4A13686   2.984   0.786   7.892 -0.0807  0.0000  0.1070
  989YOPC   C1B13687   2.291   0.350   7.201 -0.1669  0.3507  0.4148
  989YOPC   C2B13688   2.415   0.158   7.589  0.1736  0.3068  0.1401
  989YOPC   D3B13689   2.713   0.312   7.814  0.1924  0.0648  0.2859
  989YOPC   C4B13690   2.852   0.156   8.269 -0.0055 -0.1117  0.2641
  990YOPC   NC313691  17.388   2.137   5.459  0.4735 -0.2215  0.1621
  990YOPC   PO413692  17.216   2.442   5.672  0.2094 -0.1856  0.2443
  990YOPC   GL113693  17.153   2.454   6.077  0.0324 -0.1355  0.0062
  990YOPC   GL213694  17.228   2.129   6.196 -0.2510 -0.1594  0.2696
  990YOPC   C1A13695  17.074   2.681   6.462  0.1809  0.3122 -0.0054
  990YOPC   D2A13696  16.813   3.000   6.714  0.1352  0.3779 -0.3483
  990YOPC   C3A13697  16.721   3.022   7.149 -0.1517 -0.1307 -0.0501
  990YOPC   C4A13698  16.476   3.027   7.493  0.1351 -0.2914  0.2233
  990YOPC   C1B13699  17.188   1.904   6.573 -0.0068 -0.1783 -0.1991
  990YOPC   C2B13700  17.175   1.590   6.802 -0.2176 -0.0577  0.1405
  990YOPC   D3B13701  17.373   1.658   7.047  0.0388 -0.3843 -0.0495
  990YOPC   C4B13702  17.527   1.763   7.429  0.2364  0.0102 -0.1036
  991YOPC   NC313703   3.229   8.364   5.929 -0.0334 -0.0606 -0.0877
  991YOPC   PO413704   3.335   7.929   5.974  0.1594 -0.0113  0.0848
  991YOPC   GL113705   3.480   8.146   6.381  0.2028 -0.1317  0.3747
  991YOPC   GL213706   3.257   8.397   6.391 -0.0941  0.0660 -0.4128
  991YOPC   C1A13707   3.634   8.331   6.827  0.2037 -0.2273 -0.0292
  991YOPC   D2A13708   4.012   8.610   6.856  0.3369 -0.0118 -0.0376
  991YOPC   C3A13709   4.044   8.586   7.199  0.0244 -0.3137 -0.3991
  991YOPC   C4A13710   4.111   8.856   7.582  0.3103 -0.0520 -0.0699
  991YOPC   C1B13711   3.468   8.729   6.556  0.0936 -0.0510 -0.1151
  991YOPC   C2B13712   3.621   8.881   6.986  0.2094  0.0869  0.1434
  991YOPC   D3B13713   3.618   8.737   7.416 -0.0512 -0.2511 -0.1443
  991YOPC   C4B13714   3.617   8.463   7.846 -0.0567 -0.2372  0.3251
  992YOPC   NC313715  17.558  18.617   5.477 -0.0814  0.1514  0.1401
  992YOPC   PO413716  17.189  18.400   5.695  0.0214 -0.2527 -0.0792
  992YOPC   GL113717  17.109  18.355   6.163  0.2856  0.4479  0.3902
  992YOPC   GL213718  16.996  18.016   6.161 -0.4199 -0.0390  0.0491
  992YOPC   C1A13719  16.953  18.336   6.541  0.1027  0.1732 -0.0473
  992YOPC   D2A13720  16.609  18.454   6.900  0.1154 -0.0926  0.2042
  992YOPC   C3A13721  16.602  18.192   7.304  0.2170  0.0560 -0.0907
  992YOPC   C4A13722  16.328  17.846   7.315  0.1352  0.0106 -0.1337
  992YOPC   C1B13723  17.420  18.031   6.338  0.3665  0.0289 -0.1010
  992YOPC   C2B13724  17.697  18.246   6.693  0.0086  0.2526 -0.0925
  992YOPC   D3B13725  17.883  17.979   6.958 -0.0129  0.0277  0.1811
  992YOPC   C4B13726  18.057  17.677   7.063 -0.0138 -0.1902  0.0477
  993YOPC   NC313727   3.788  15.668   5.035  0.1287  0.0860 -0.1513
  993YOPC   PO413728   4.099  15.934   5.397  0.1563  0.1039 -0.1367
  993YOPC   GL113729   3.876  15.720   5.650  0.1686  0.0466  0.2722
  993YOPC   GL213730   3.804  15.460   5.551  0.0167 -0.1261 -0.0048
  993YOPC   C1A13731   3.935  15.776   6.130 -0.1115 -0.0783 -0.0640
  993YOPC   D2A13732   3.711  15.691   6.505  0.1404  0.1549  0.0163
  993YOPC   C3A13733   3.833  15.405   6.959  0.1735  0.0504  0.1418
  993YOPC   C4A13734   3.951  15.055   7.272  0.1211 -0.0679 -0.1682
  993YOPC   C1B13735   3.947  15.329   5.991 -0.1530 -0.0238  0.2719
  993YOPC   C2B13736   4.043  15.289   6.389 -0.0893 -0.1208  0.0572
  993YOPC   D3B13737   3.751  14.947   6.569 -0.0899 -0.2709  0.2743
  993YOPC   C4B13738   3.695  14.778   6.872 -0.2916  0.0222  0.2390
  994YOPC   NC313739  14.700   2.878   5.027 -0.1380 -0.1838  0.0999
  994YOPC   PO413740  14.636   2.501   5.233 -0.5219  0.1596  0.0182
  994YOPC   GL113741  14.798   2.401   5.630 -0.0351  0.1192  0.1030
  994YOPC   GL213742  14.702   2.064   5.672 -0.0341  0.0564 -0.0005
  994YOPC   C1A13743  15.102   2.285   5.980  0.0894  0.0110  0.0375
  994YOPC   D2A13744  15.184   2.175   6.352 -0.1743  0.0498 -0.0206
  994YOPC   C3A13745  15.304   2.379   6.703 -0.2058  0.0037 -0.0882
  994YOPC   C4A13746  15.642   2.495   7.083 -0.2020  0.1609 -0.0655
  994YOPC   C1B13747  14.732   1.827   5.962  0.4599 -0.6413 -0.1130
  994YOPC   C2B13748  14.872   1.726   6.390 -0.0134  0.1777 -0.0297
  994YOPC   D3B13749  15.129   1.896   6.753 -0.0520  0.2452  0.1651
  994YOPC   C4B13750  15.548   1.986   6.839  0.0346 -0.0796 -0.2211
  995YOPC   NC313751  16.893   8.785   5.500  0.0498 -0.3221  0.1573
  995YOPC   PO413752  16.708   8.431   5.613 -0.3602 -0.0884  0.1072
  995YOPC   GL113753  16.352   8.400   5.990  0.0367 -0.1660  0.3022
  995YOPC   GL213754  16.214   8.131   6.117  0.1869  0.1745 -0.4835
  995YOPC   C1A13755  16.383   8.541   6.410 -0.0312 -0.0838  0.2060
  995YOPC   D2A13756  16.540   8.678   6.844 -0.1455  0.1310 -0.0711
  995YOPC   C3A13757  16.349   8.608   7.254  0.1439 -0.4791 -0.2140
  995YOPC   C4A13758  16.163   8.382   7.509  0.0810 -0.0444  0.0944
  995YOPC   C1B13759  16.142   7.892   6.476 -0.1502  0.0113 -0.2148
  995YOPC   C2B13760  16.007   7.612   6.830 -0.0010 -0.0921  0.3585
  995YOPC   D3B13761  16.147   7.836   7.323  0.0413  0.1496  0.2458
  995YOPC   C4B13762  15.814   8.034   7.565  0.0651  0.3824  0.0804
  996YOPC   NC313763   7.405   1.724   5.541 -0.2203 -0.1759  0.1402
  996YOPC   PO413764   7.613   2.053   5.559 -0.0504 -0.3434 -0.1925
  996YOPC   GL113765   7.473   1.910   5.978  0.3620  0.0917  0.0778
  996YOPC   GL213766   7.145   2.038   5.834  0.4867 -0.0578  0.0714
  996YOPC   C1A13767   7.519   1.633   6.360 -0.0725 -0.2765  0.1949
  996YOPC   D2A13768   7.737   1.587   6.748  0.3598 -0.0453  0.3209
  996YOPC   C3A13769   7.740   1.756   7.126 -0.0699  0.0772  0.0770
  996YOPC   C4A13770   7.453   1.537   7.417  0.1193 -0.2238  0.1546
  996YOPC   C1B13771   7.136   2.370   6.059  0.3201  0.1806  0.1140
  996YOPC   C2B13772   7.326   2.765   6.176 -0.2212  0.1290 -0.4708
  996YOPC   D3B13773   7.065   2.930   6.534 -0.1344  0.2410  0.2576
  996YOPC   C4B13774   6.993   2.699   6.934 -0.0826  0.1769 -0.1741
  997YOPC   NC313775  16.530  12.701   5.526  0.1535 -0.2133  0.1195
  997YOPC   PO413776  16.908  12.940   5.507  0.0702  0.1724 -0.1272
  997YOPC   GL113777  17.010  13.117   5.890 -0.2090  0.4270 -0.0067
  997YOPC   GL213778  17.016  13.412   6.006 -0.0594 -0.2318  0.1228
  997YOPC   C1A13779  17.278  13.039   6.207  0.1583  0.1381  0.1428
  997YOPC   D2A13780  17.743  13.164   6.136  0.1088 -0.2418 -0.0006
  997YOPC   C3A13781  18.043  13.474   6.192  0.1979 -0.0919 -0.3397
  997YOPC   C4A13782  18.025  13.776   6.484 -0.2186  0.1829  0.2992
  997YOPC   C1B13783  16.851  13.360   6.495  0.2762  0.0265  0.0108
  997YOPC   C2B13784  16.894  13.492   6.945 -0.2206 -0.0061  0.0009
  997YOPC   D3B13785  16.952  13.316   7.364  0.1057  0.0686  0.4143
  997YOPC   C4B13786  16.903  13.540   7.627 -0.2807 -0.0715 -0.1091
  998YOPC   NC313787   6.799  18.650   5.472 -0.0949 -0.2184 -0.3566
  998YOPC   PO413788   7.220  18.749   5.528 -0.2354 -0.2381  0.0106
  998YOPC   GL113789   7.059  18.778   5.880 -0.2211  0.0052 -0.1922
  998YOPC   GL213790   6.771  18.796   5.939  0.2551  0.1476  0.0407
  998YOPC   C1A13791   7.325  18.682   6.229 -0.1812  0.0469  0.0215
  998YOPC   D2A13792   7.440  18.295   6.399 -0.0257  0.0447  0.0985
  998YOPC   C3A13793   7.241  18.316   6.724 -0.0566 -0.2109 -0.0707
  998YOPC   C4A13794   7.324  18.290   7.217  0.0536 -0.1797  0.2732
  998YOPC   C1B13795   6.855  18.910   6.354  0.0631  0.0504  0.0705
  998YOPC   C2B13796   6.764  19.183   6.679  0.2198 -0.0677 -0.1493
  998YOPC   D3B13797   7.033  19.308   7.017  0.0541 -0.0096  0.1231
  998YOPC   C4B13798   7.382  19.087   7.166 -0.0525  0.0360  0.0393
  999YOPC   NC313799   6.636   9.718   6.127  0.3016 -0.0890  0.1181
  999YOPC   PO413800   6.911  10.029   6.071  0.1372 -0.1920  0.0792
  999YOPC   GL113801   7.075  10.171   6.304  0.1516 -0.0139 -0.0644
  999YOPC   GL213802   6.830  10.070   6.574 -0.0223 -0.4028 -0.2049
  999YOPC   C1A13803   7.098  10.470   6.563 -0.0447  0.2638  0.4196
  999YOPC   D2A13804   6.761  10.526   6.879  0.2558  0.0263 -0.0659
  999YOPC   C3A13805   6.832  10.637   7.257  0.1826  0.0184  0.1909
  999YOPC   C4A13806   7.174  10.934   7.210  0.0556  0.1789  0.5003
  999YOPC   C1B13807   7.107  10.086   6.868  0.1594 -0.0292 -0.1746
  999YOPC   C2B13808   7.352  10.097   7.241  0.0128  0.3567  0.0732
  999YOPC   D3B13809   7.352  10.511   7.438  0.1795  0.0850  0.4059
  999YOPC   C4B13810   7.121  10.790   7.703 -0.1392  0.1798  0.2850
 1000YOPC   NC313811   4.939  15.498   5.016  0.0083 -0.0282  0.1982
 1000YOPC   PO413812   4.682  15.381   5.279 -0.3434  0.2739  0.0283
 1000YOPC   GL113813   4.649  15.348   5.715  0.2616  0.0176  0.2769
 1000YOPC   GL213814   4.476  15.660   5.808  0.3325  0.0077  0.1573
 1000YOPC   C1A13815   4.859  15.382   6.034 -0.3875  0.0100  0.1730
 1000YOPC   D2A13816   4.996  15.250   6.446 -0.0535  0.0648 -0.0622
 1000YOPC   C3A13817   5.269  14.986   6.421  0.0837 -0.0694  0.0220
 1000YOPC   C4A13818   5.600  14.806   6.105 -0.2264  0.0769  0.4540
 1000YOPC   C1B13819   4.373  15.604   6.212 -0.2455  0.1167 -0.0098
 1000YOPC   C2B13820   4.259  15.654   6.622 -0.4131 -0.2069 -0.1817
 1000YOPC   D3B13821   4.405  15.353   6.920  0.0216  0.0105  0.1541
 1000YOPC   C4B13822   4.412  15.258   7.358  0.0540 -0.0838 -0.1335
 1001YOPC   NC313823   6.049   4.093   5.928 -0.0456 -0.0874 -0.0275
 1001YOPC   PO413824   6.153   3.640   5.847  0.1303  0.2933  0.3803
 1001YOPC   GL113825   6.081   3.626   6.216 -0.2606  0.1214  0.0094
 1001YOPC   GL213826   6.393   3.422   6.271  0.0357 -0.1524  0.0618
 1001YOPC   C1A13827   5.859   3.616   6.648  0.1729 -0.1683 -0.3011
 1001YOPC   D2A13828   6.105   3.759   6.954  0.0082  0.1080  0.2505
 1001YOPC   C3A13829   6.372   4.120   7.062 -0.0468  0.2015 -0.0459
 1001YOPC   C4A13830   6.528   4.281   7.487  0.0204 -0.1156  0.3493
 1001YOPC   C1B13831   6.377   3.322   6.673 -0.0681  0.0831  0.4173
 1001YOPC   C2B13832   6.101   3.124   7.000  0.1754  0.2103 -0.0121
 1001YOPC   D3B13833   5.764   3.326   7.288  0.1616 -0.0902 -0.1468
 1001YOPC   C4B13834   5.542   3.334   7.629 -0.0352  0.0942  0.2144
 1002YOPC   NC313835  13.995   9.305   5.711  0.1336 -0.2797  0.0545
 1002YOPC   PO413836  13.950   9.750   5.799 -0.1681 -0.0096 -0.0494
 1002YOPC   GL113837  13.889   9.528   6.112  0.1894  0.1643  0.0999
 1002YOPC   GL213838  13.689   9.775   6.200 -0.2950 -0.3223 -0.0701
 1002YOPC   C1A13839  13.897   9.358   6.428  0.2895  0.1411 -0.1466
 1002YOPC   D2A13840  13.907   9.356   6.836  0.0400 -0.0742 -0.2974
 1002YOPC   C3A13841  14.234   9.348   7.117 -0.1922  0.1477  0.1149
 1002YOPC   C4A13842  14.501   9.420   7.398 -0.2516  0.2922  0.0528
 1002YOPC   C1B13843  13.636   9.745   6.550 -0.1361  0.1159 -0.0549
 1002YOPC   C2B13844  13.405   9.551   6.944  0.1236  0.2378 -0.1055
 1002YOPC   D3B13845  12.967   9.586   7.078  0.1789  0.2660 -0.0184
 1002YOPC   C4B13846  12.595   9.401   6.825  0.4019  0.0494 -0.3159
 1003YOPC   NC313847  18.570  17.738   5.198 -0.5111 -0.0870 -0.0839
 1003YOPC   PO413848  18.210  17.561   5.364 -0.2013 -0.3776  0.0851
 1003YOPC   GL113849  18.192  17.610   5.824 -0.0432 -0.1143 -0.0097
 1003YOPC   GL213850  18.074  17.704   6.136  0.0141  0.2076  0.1127
 1003YOPC   C1A13851  18.447  17.379   6.102  0.0210  0.1437  0.0177
 1003YOPC   D2A13852  18.630  17.236   6.440 -0.0977 -0.0440  0.1007
 1003YOPC   C3A13853  18.996  17.013   6.440 -0.1935  0.2989  0.0298
 1003YOPC   C4A13854  19.311  16.818   6.632 -0.1939  0.0973 -0.0866
 1003YOPC   C1B13855  18.183  17.493   6.572 -0.2126 -0.1508  0.5056
 1003YOPC   C2B13856  18.224  17.154   6.777  0.0932  0.0904 -0.1640
 1003YOPC   D3B13857  18.138  17.040   7.120 -0.2754  0.1476  0.0088
 1003YOPC   C4B13858  18.031  17.219   7.490  0.0061 -0.0627 -0.0464
 1004YOPC   NC313859   5.229   0.185   5.260 -0.1583 -0.0781 -0.1529
 1004YOPC   PO413860   5.333   0.614   5.332 -0.1647  0.0979 -0.1172
 1004YOPC   GL113861   5.477   0.659   5.812  0.3308  0.2184  0.2724
 1004YOPC   GL213862   5.471   0.970   5.781  0.1147 -0.1598 -0.2021
 1004YOPC   C1A13863   5.261   0.537   6.094  0.2330  0.1292  0.4199
 1004YOPC   D2A13864   5.295   0.043   6.271 -0.1477 -0.1498  0.0939
 1004YOPC   C3A13865   5.248   0.023   6.666 -0.1269 -0.1375  0.1997
 1004YOPC   C4A13866   5.242  -0.065   7.078 -0.2303  0.0161  0.0882
 1004YOPC   C1B13867   5.344   1.052   6.113  0.0571  0.1365  0.0273
 1004YOPC   C2B13868   5.252   0.980   6.540  0.3647  0.1723  0.0496
 1004YOPC   D3B13869   5.385   1.179   6.871 -0.0907  0.1322  0.3681
 1004YOPC   C4B13870   5.720   1.385   7.191 -0.4174  0.4823 -0.2153
 1005YOPC   NC313871  10.674  16.771   5.500  0.1102 -0.1070  0.2321
 1005YOPC   PO413872  10.213  16.746   5.463 -0.2404  0.1504  0.0747
 1005YOPC   GL113873  10.193  17.054   5.852  0.0254 -0.0529  0.0001
 1005YOPC   GL213874  10.464  16.994   5.933 -0.0501  0.1992 -0.0267
 1005YOPC   C1A13875  10.131  16.893   6.309  0.0730 -0.0969 -0.1521
 1005YOPC   D2A13876  10.302  16.999   6.662 -0.1412  0.1308  0.1082
 1005YOPC   C3A13877  10.579  16.696   7.046  0.0381 -0.2412 -0.0166
 1005YOPC   C4A13878  10.785  16.760   7.438  0.2317  0.0958  0.1866
 1005YOPC   C1B13879  10.579  17.267   6.299 -0.0146  0.1806  0.2968
 1005YOPC   C2B13880  10.544  17.485   6.645  0.2398 -0.3505 -0.0407
 1005YOPC   D3B13881  10.781  17.943   6.761 -0.3028 -0.0660 -0.1985
 1005YOPC   C4B13882  10.658  18.139   7.163 -0.2464  0.2998  0.2049
 1006YOPC   NC313883  13.268  18.608   5.141  0.2488 -0.1383 -0.3033
 1006YOPC   PO413884  12.956  18.847   5.194 -0.2302  0.0377 -0.0331
 1006YOPC   GL113885  13.005  18.949   5.689  0.2093 -0.0228 -0.0018
 1006YOPC   GL213886  12.685  19.152   5.849 -0.0356 -0.0058  0.2489
 1006YOPC   C1A13887  12.746  18.734   6.034 -0.0117  0.0597  0.1682
 1006YOPC   D2A13888  12.538  18.372   6.326 -0.0565 -0.0203  0.3307
 1006YOPC   C3A13889  12.239  18.354   6.030 -0.0092  0.0844  0.1928
 1006YOPC   C4A13890  11.903  18.350   5.692  0.1971 -0.1373  0.1473
 1006YOPC   C1B13891  12.939  19.248   6.217 -0.1941 -0.0544  0.0588
 1006YOPC   C2B13892  13.009  19.496   6.506 -0.1701 -0.0908 -0.0010
 1006YOPC   D3B13893  13.191  19.353   6.931  0.0016  0.1781  0.3078
 1006YOPC   C4B13894  13.129  19.289   7.327  0.0644  0.2469 -0.2598
 1007YOPC   NC313895   5.907   7.235   5.468 -0.0472  0.2914 -0.0219
 1007YOPC   PO413896   5.951   7.374   5.906 -0.3969 -0.0080 -0.1642
 1007YOPC   GL113897   6.006   7.240   6.245  0.4931 -0.2622  0.4525
 1007YOPC   GL213898   6.222   7.003   6.280  0.0555 -0.0238  0.0439
 1007YOPC   C1A13899   6.017   7.136   6.760  0.2544  0.3541  0.1064
 1007YOPC   D2A13900   6.114   7.330   7.064 -0.0886  0.2230  0.1956
 1007YOPC   C3A13901   5.821   7.697   7.233  0.3694 -0.0474 -0.1443
 1007YOPC   C4A13902   5.540   8.000   7.244 -0.2667  0.1120  0.0761
 1007YOPC   C1B13903   6.370   6.721   6.648 -0.0871 -0.1650 -0.2448
 1007YOPC   C2B13904   6.653   6.529   6.791  0.0867 -0.1452 -0.0791
 1007YOPC   D3B13905   6.608   6.329   7.251  0.2880  0.1496 -0.2740
 1007YOPC   C4B13906   6.474   6.155   7.747  0.0749 -0.3217 -0.0031
 1008YOPC   NC313907  17.665  10.171   5.831  0.2647 -0.0547  0.0584
 1008YOPC   PO413908  17.539  10.615   5.830 -0.1726 -0.0541  0.0121
 1008YOPC   GL113909  17.862  10.553   6.246 -0.0529 -0.0701 -0.1151
 1008YOPC   GL213910  17.660  10.244   6.357  0.5242 -0.1506 -0.0249
 1008YOPC   C1A13911  17.999  10.346   6.671  0.2267  0.2139  0.0550
 1008YOPC   D2A13912  17.982  10.407   7.147  0.1177  0.0563  0.0194
 1008YOPC   C3A13913  18.275  10.352   7.466 -0.1606 -0.2737  0.3190
 1008YOPC   C4A13914  18.218  10.524   7.766  0.1849 -0.0064  0.0820
 1008YOPC   C1B13915  17.563  10.198   6.835 -0.3864  0.2766  0.0024
 1008YOPC   C2B13916  17.431   9.942   7.133 -0.3603  0.2113 -0.3361
 1008YOPC   D3B13917  17.735   9.555   7.187  0.0983  0.2123  0.1769
 1008YOPC   C4B13918  18.048   9.294   6.986  0.0713  0.0654  0.0960
 1009YOPC   NC313919  11.153   0.007   4.738 -0.4634 -0.0111  0.2146
 1009YOPC   PO413920  11.414   0.333   4.957 -0.0858  0.0593  0.1172
 1009YOPC   GL113921  11.454   0.390   5.471  0.3275  0.0473  0.1261
 1009YOPC   GL213922  11.731   0.561   5.552 -0.4438  0.0151  0.0616
 1009YOPC   C1A13923  11.631   0.099   5.797  0.0073  0.2407 -0.1570
 1009YOPC   D2A13924  11.656   0.169   6.180  0.0156 -0.2947  0.1228
 1009YOPC   C3A13925  11.951  -0.057   6.390 -0.0592  0.1964 -0.1065
 1009YOPC   C4A13926  12.138  -0.211   6.701  0.2639 -0.3205  0.0965
 1009YOPC   C1B13927  11.926   0.435   5.889  0.0459  0.2039  0.0189
 1009YOPC   C2B13928  12.214   0.234   6.045  0.3223 -0.1851  0.0716
 1009YOPC   D3B13929  12.409   0.153   6.412  0.0137 -0.2595  0.1287
 1009YOPC   C4B13930  12.675  -0.028   6.761 -0.1180  0.1583 -0.0643
 1010YOPC   NC313931   0.852   6.340   6.040 -0.2569 -0.1052  0.1421
 1010YOPC   PO413932   1.125   6.173   6.246  0.0069  0.2747  0.1793
 1010YOPC   GL113933   0.914   6.147   6.680  0.0865  0.1252 -0.0301
 1010YOPC   GL213934   0.642   6.082   6.707  0.0107 -0.1004 -0.0096
 1010YOPC   C1A13935   0.807   6.285   7.150 -0.3412 -0.4526  0.0614
 1010YOPC   D2A13936   0.371   6.320   7.328 -0.1755  0.0023  0.4901
 1010YOPC   C3A13937   0.241   6.359   7.766  0.1341 -0.0669  0.2640
 1010YOPC   C4A13938   0.228   6.674   8.149 -0.1523  0.0526 -0.0783
 1010YOPC   C1B13939   0.475   5.809   7.000  0.1658  0.0330 -0.1978
 1010YOPC   C2B13940   0.209   5.770   7.339 -0.1519  0.0146 -0.0104
 1010YOPC   D3B13941   0.287   5.512   7.689 -0.0527 -0.1563  0.2042
 1010YOPC   C4B13942   0.422   5.473   8.100  0.0410  0.1868 -0.2158
 1011YOPC   NC313943  11.582  14.830   4.945  0.0927 -0.1242  0.2748
 1011YOPC   PO413944  11.698  15.103   5.359  0.2109  0.2930 -0.0446
 1011YOPC   GL113945  11.826  15.277   5.674  0.0654  0.1431 -0.0521
 1011YOPC   GL213946  11.783  15.636   5.759 -0.1079  0.2013 -0.1651
 1011YOPC   C1A13947  11.660  15.146   5.988 -0.0409 -0.0818  0.0137
 1011YOPC   D2A13948  11.720  15.009   6.346  0.1112 -0.2144 -0.0479
 1011YOPC   C3A13949  11.433  14.844   6.671  0.0036 -0.3940 -0.1288
 1011YOPC   C4A13950  11.293  14.603   6.951 -0.0210 -0.2044  0.2026
 1011YOPC   C1B13951  11.512  15.572   6.208 -0.1091 -0.1675 -0.0517
 1011YOPC   C2B13952  11.502  15.371   6.637  0.0234 -0.3254  0.0242
 1011YOPC   D3B13953  11.836  15.052   6.853 -0.0721 -0.2786 -0.2902
 1011YOPC   C4B13954  12.138  14.936   7.213  0.4505  0.3089  0.0477
 1012YOPC   NC313955  16.080  17.258   5.328  0.0043 -0.1931  0.0814
 1012YOPC   PO413956  15.811  17.019   5.347 -0.1042 -0.1842  0.0490
 1012YOPC   GL113957  15.428  17.061   5.646  0.1251 -0.0407  0.2358
 1012YOPC   GL213958  15.338  17.201   5.524  0.2553 -0.0642 -0.0651
 1012YOPC   C1A13959  15.335  17.124   6.105 -0.4254 -0.1827 -0.1298
 1012YOPC   D2A13960  15.262  17.296   6.579  0.1208 -0.3662 -0.0837
 1012YOPC   C3A13961  14.811  17.447   6.707 -0.1207  0.2292  0.0281
 1012YOPC   C4A13962  14.642  17.760   6.751 -0.0824  0.1434 -0.1072
 1012YOPC   C1B13963  15.152  17.518   5.755 -0.0158 -0.0296 -0.1236
 1012YOPC   C2B13964  14.922  17.561   6.077 -0.3252 -0.2800 -0.1492
 1012YOPC   D3B13965  14.475  17.550   6.144 -0.1211  0.4193  0.1332
 1012YOPC   C4B13966  14.065  17.504   5.870  0.1631  0.0730 -0.0198
 1013YOPC   NC313967   8.400   8.933   5.784 -0.0631  0.0694  0.0274
 1013YOPC   PO413968   8.083   8.987   5.853 -0.1412 -0.1770 -0.2270
 1013YOPC   GL113969   7.799   9.026   6.195 -0.0637 -0.0856  0.0290
 1013YOPC   GL213970   7.743   8.733   6.323  0.2190  0.0556  0.1583
 1013YOPC   C1A13971   7.849   9.292   6.533 -0.1012 -0.1242 -0.2318
 1013YOPC   D2A13972   7.962   9.241   7.076 -0.0375  0.1228  0.0851
 1013YOPC   C3A13973   8.121   9.399   7.391  0.1663  0.0230  0.2987
 1013YOPC   C4A13974   8.321   9.649   7.719 -0.0100  0.2836 -0.3055
 1013YOPC   C1B13975   7.795   8.822   6.702  0.0696  0.2232  0.1034
 1013YOPC   C2B13976   7.911   8.717   7.051  0.0398  0.0297 -0.0710
 1013YOPC   D3B13977   7.586   8.579   7.302 -0.1106 -0.1801  0.0135
 1013YOPC   C4B13978   7.660   8.308   7.623  0.1772  0.0617  0.0447
 1014YOPC   NC313979   1.178  11.589   5.409  0.2523 -0.1532 -0.3299
 1014YOPC   PO413980   1.265  11.913   5.765  0.2364  0.4402  0.2031
 1014YOPC   GL113981   1.440  11.919   6.200  0.0382  0.1339 -0.0787
 1014YOPC   GL213982   1.530  11.633   6.311  0.0803  0.3807  0.2616
 1014YOPC   C1A13983   1.268  11.906   6.666  0.0036  0.1912  0.5745
 1014YOPC   D2A13984   1.400  11.780   7.076 -0.3105 -0.2072  0.1814
 1014YOPC   C3A13985   1.199  11.376   7.239  0.0389  0.2619  0.3646
 1014YOPC   C4A13986   1.245  11.345   7.711  0.1306  0.0696 -0.0005
 1014YOPC   C1B13987   1.691  11.550   6.771 -0.2104  0.3055 -0.1436
 1014YOPC   C2B13988   1.843  11.473   7.164  0.0294  0.0611 -0.2797
 1014YOPC   D3B13989   1.738  11.522   7.520  0.5399  0.1172  0.0513
 1014YOPC   C4B13990   2.059  11.618   7.709 -0.1086 -0.1494  0.3983
 1015YOPC   NC313991  13.695   8.160   5.560  0.0211  0.1169 -0.1523
 1015YOPC   PO413992  13.550   8.177   5.985  0.2116 -0.3069 -0.1505
 1015YOPC   GL113993  13.325   8.120   6.318 -0.2846 -0.0816 -0.0200
 1015YOPC   GL213994  13.043   8.243   6.267  0.0853 -0.2214 -0.1028
 1015YOPC   C1A13995  13.511   8.112   6.671  0.0529 -0.1591  0.2654
 1015YOPC   D2A13996  13.842   8.077   7.046  0.2044  0.1785  0.0187
 1015YOPC   C3A13997  13.787   8.088   7.427 -0.0082  0.2362  0.0173
 1015YOPC   C4A13998  13.790   7.713   7.708  0.1645 -0.1174 -0.1055
 1015YOPC   C1B13999  12.798   8.312   6.638  0.0306  0.1924  0.0068
 1015YOPC   C2B14000  12.924   8.155   6.977  0.0324 -0.1280 -0.0467
 1015YOPC   D3B14001  12.845   8.533   7.295 -0.1399  0.3384  0.2708
 1015YOPC   C4B14002  12.398   8.587   7.470 -0.2073 -0.1673 -0.0443
 1016YOPC   NC314003  15.274  17.808   4.380  0.0116 -0.0980  0.2036
 1016YOPC   PO414004  15.002  17.778   4.691  0.0123  0.0205  0.2639
 1016YOPC   GL114005  15.166  17.887   5.117 -0.1117 -0.0089  0.0005
 1016YOPC   GL214006  15.185  18.195   5.251 -0.0617  0.0728 -0.0958
 1016YOPC   C1A14007  15.467  17.650   5.348 -0.1284  0.0948 -0.0145
 1016YOPC   D2A14008  15.686  17.748   5.790  0.0935  0.1975  0.0654
 1016YOPC   C3A14009  15.752  17.361   5.909 -0.0020 -0.1325 -0.0442
 1016YOPC   C4A14010  15.861  16.942   6.102  0.0425 -0.0114  0.0225
 1016YOPC   C1B14011  15.444  18.247   5.656 -0.2327  0.4452 -0.0342
 1016YOPC   C2B14012  15.725  18.234   6.032  0.2615 -0.0166 -0.2277
 1016YOPC   D3B14013  15.514  18.286   6.377  0.1057 -0.3620 -0.1002
 1016YOPC   C4B14014  14.938  18.295   6.409  0.2798  0.2129  0.2423
 1017YOPC   NC314015  13.819  12.891   5.447  0.0776 -0.3827 -0.0665
 1017YOPC   PO414016  14.106  13.058   5.631  0.3207 -0.3471  0.2015
 1017YOPC   GL114017  14.479  13.237   5.803  0.2294 -0.1800  0.1070
 1017YOPC   GL214018  14.714  12.965   5.809 -0.0773  0.1541 -0.1912
 1017YOPC   C1A14019  14.590  13.488   6.044 -0.1354  0.1886  0.2416
 1017YOPC   D2A14020  14.561  13.474   6.452  0.0859 -0.1440 -0.0827
 1017YOPC   C3A14021  14.907  13.708   6.566  0.1596  0.1638  0.0133
 1017YOPC   C4A14022  15.053  14.136   6.495  0.1684 -0.4023  0.0719
 1017YOPC   C1B14023  14.433  12.778   6.150 -0.1385  0.1099 -0.2081
 1017YOPC   C2B14024  14.276  12.766   6.589  0.0382  0.0860  0.3648
 1017YOPC   D3B14025  13.861  12.757   6.649  0.1777 -0.2628 -0.0429
 1017YOPC   C4B14026  13.758  12.543   7.122  0.2767 -0.2698 -0.1397
 1018YOPC   NC314027   8.690   2.670   5.515  0.2302  0.1610  0.3147
 1018YOPC   PO414028   8.928   3.064   5.761 -0.2066  0.1741  0.0684
 1018YOPC   GL114029   8.997   2.892   6.142 -0.0815 -0.4190  0.2524
 1018YOPC   GL214030   8.927   2.630   6.001  0.2106 -0.1604 -0.1834
 1018YOPC   C1A14031   8.991   2.852   6.595 -0.0839 -0.2075 -0.2814
 1018YOPC   D2A14032   8.904   2.954   7.069 -0.1102 -0.0530 -0.2892
 1018YOPC   C3A14033   9.003   3.261   7.383 -0.2168  0.0671 -0.0045
 1018YOPC   C4A14034   9.272   3.557   7.340 -0.1228  0.0721  0.0759
 1018YOPC   C1B14035   8.681   2.445   6.277  0.2287  0.2975 -0.2979
 1018YOPC   C2B14036   8.668   2.233   6.664  0.4214  0.1631  0.0700
 1018YOPC   D3B14037   8.794   2.361   7.026  0.1865  0.0809  0.2204
 1018YOPC   C4B14038   8.770   2.241   7.434  0.0211  0.2087 -0.1902
 1019YOPC   NC314039   1.426  15.167   5.567 -0.0245  0.3743 -0.0984
 1019YOPC   PO414040   1.934  15.171   5.589 -0.1465  0.1053  0.3153
 1019YOPC   GL114041   1.722  15.200   5.977 -0.0631  0.1035 -0.0688
 1019YOPC   GL214042   2.044  15.284   6.168  0.1391 -0.1078  0.0380
 1019YOPC   C1A14043   1.405  15.328   6.292 -0.1793  0.2182 -0.3782
 1019YOPC   D2A14044   1.290  15.467   6.731 -0.0505  0.0164 -0.1549
 1019YOPC   C3A14045   1.548  15.757   6.901 -0.1020  0.3302 -0.0505
 1019YOPC   C4A14046   1.538  16.126   7.070 -0.0057  0.3671  0.0765
 1019YOPC   C1B14047   1.822  15.024   6.534  0.1464  0.0035  0.3218
 1019YOPC   C2B14048   1.578  15.170   6.940  0.0268  0.1371 -0.2156
 1019YOPC   D3B14049   1.422  15.313   7.289 -0.1938 -0.0925 -0.2632
 1019YOPC   C4B14050   1.405  15.693   7.380  0.0093 -0.0622  0.1512
 1020YOPC   NC314051   7.458   4.395   5.705 -0.0584  0.3667  0.2004
 1020YOPC   PO414052   7.855   4.257   5.981  0.2709  0.0307 -0.0805
 1020YOPC   GL114053   7.983   4.526   6.365  0.3530 -0.0777 -0.2018
 1020YOPC   GL214054   7.874   4.859   6.259  0.0311  0.3217  0.1954
 1020YOPC   C1A14055   8.223   4.568   6.728  0.0670  0.0840  0.1547
 1020YOPC   D2A14056   8.392   4.280   7.091  0.2424 -0.1564 -0.1208
 1020YOPC   C3A14057   8.553   4.437   7.462  0.2049 -0.0265  0.2455
 1020YOPC   C4A14058   8.491   4.758   7.678  0.1599  0.1195 -0.1956
 1020YOPC   C1B14059   7.669   5.151   6.387  0.0961 -0.0033  0.3620
 1020YOPC   C2B14060   7.338   5.230   6.206 -0.2346  0.0291 -0.1216
 1020YOPC   D3B14061   7.003   5.337   6.421 -0.3607  0.0326  0.1583
 1020YOPC   C4B14062   6.766   5.594   6.221  0.0327  0.0764  0.1403
 1021YOPC   NC314063  14.546  11.429   5.626  0.4775  0.2702  0.1851
 1021YOPC   PO414064  14.039  11.472   5.637 -0.1397  0.2503 -0.1753
 1021YOPC   GL114065  14.099  11.508   6.042 -0.2146 -0.0367  0.0911
 1021YOPC   GL214066  14.403  11.492   6.089  0.0756 -0.0541  0.3204
 1021YOPC   C1A14067  14.159  11.221   6.388  0.0973 -0.1683 -0.0504
 1021YOPC   D2A14068  14.003  11.078   6.772  0.1538  0.2316 -0.1441
 1021YOPC   C3A14069  13.968  11.364   7.223 -0.1656 -0.0020 -0.3661
 1021YOPC   C4A14070  13.971  11.136   7.663  0.1770 -0.0413 -0.2074
 1021YOPC   C1B14071  14.672  11.591   6.461 -0.2839 -0.1249  0.1651
 1021YOPC   C2B14072  14.842  11.619   6.827  0.1234  0.1196  0.0290
 1021YOPC   D3B14073  14.560  11.580   7.147 -0.2083  0.0058 -0.0883
 1021YOPC   C4B14074  14.156  11.799   7.136 -0.2124 -0.2221  0.1494
 1022YOPC   NC314075  16.520  15.455   4.797 -0.2619  0.0253  0.0511
 1022YOPC   PO414076  16.864  15.295   5.024  0.1182  0.1191  0.0136
 1022YOPC   GL114077  16.652  15.381   5.355  0.1636  0.0795 -0.2101
 1022YOPC   GL214078  16.573  15.150   5.535 -0.3042  0.0451 -0.1217
 1022YOPC   C1A14079  16.426  15.648   5.537 -0.3434 -0.2322  0.0339
 1022YOPC   D2A14080  16.569  16.033   5.743 -0.0084 -0.1041  0.0087
 1022YOPC   C3A14081  16.417  16.075   6.180 -0.1033  0.0057 -0.0272
 1022YOPC   C4A14082  16.230  16.154   6.587 -0.1213 -0.3005 -0.0633
 1022YOPC   C1B14083  16.118  15.332   5.787  0.1589  0.1542  0.0413
 1022YOPC   C2B14084  15.705  15.259   5.997  0.3726  0.0040 -0.2169
 1022YOPC   D3B14085  15.214  15.426   6.165  0.0282  0.3681  0.1998
 1022YOPC   C4B14086  14.799  15.532   6.193  0.0588  0.1430  0.0435
 1023YOPC   NC314087   7.395  10.731   5.254  0.0507  0.0622 -0.1652
 1023YOPC   PO414088   7.634  11.071   5.423 -0.3648  0.0433  0.0299
 1023YOPC   GL114089   7.739  11.053   5.855 -0.1555 -0.2349  0.0609
 1023YOPC   GL214090   7.562  11.348   5.977  0.1620  0.0269 -0.2478
 1023YOPC   C1A14091   7.901  10.717   6.178  0.0701  0.2740 -0.1256
 1023YOPC   D2A14092   7.978  10.751   6.561 -0.2239  0.1466 -0.2898
 1023YOPC   C3A14093   8.133  11.131   6.924 -0.0363 -0.1124 -0.0424
 1023YOPC   C4A14094   8.403  11.499   6.990 -0.0890 -0.1443 -0.1291
 1023YOPC   C1B14095   7.435  11.630   6.232  0.0661 -0.1070 -0.1324
 1023YOPC   C2B14096   7.492  12.149   6.343  0.0945 -0.2315  0.2217
 1023YOPC   D3B14097   7.667  11.996   6.612  0.1307 -0.1616  0.0954
 1023YOPC   C4B14098   8.157  11.995   6.799 -0.0293  0.0122 -0.0685
 1024YOPC   NC314099  14.367  10.064   5.730 -0.0424  0.1413  0.0408
 1024YOPC   PO414100  14.451   9.649   5.664 -0.0567  0.1393  0.1308
 1024YOPC   GL114101  14.392   9.722   6.062  0.2100  0.0709  0.1467
 1024YOPC   GL214102  14.628  10.062   6.150 -0.0879 -0.1898  0.0748
 1024YOPC   C1A14103  14.318   9.790   6.547  0.0424  0.2316  0.0453
 1024YOPC   D2A14104  13.997   9.803   6.874 -0.1631  0.2203  0.2721
 1024YOPC   C3A14105  13.679   9.978   7.082 -0.0399 -0.2930  0.3092
 1024YOPC   C4A14106  13.400   9.849   7.360 -0.1744  0.0781  0.1203
 1024YOPC   C1B14107  14.782   9.642   6.335  0.0062 -0.5024  0.0237
 1024YOPC   C2B14108  14.752   9.301   6.510 -0.2563  0.2714  0.1065
 1024YOPC   D3B14109  14.364   9.239   6.618 -0.1134  0.0323 -0.0315
 1024YOPC   C4B14110  14.107   8.924   6.850  0.0431 -0.1850  0.3617
 1025YOPC   NC314111   1.941   6.520   5.928  0.0152 -0.0179  0.0168
 1025YOPC   PO414112   1.626   6.167   6.084  0.0817 -0.2047 -0.0017
 1025YOPC   GL114113   1.558   6.016   6.495  0.1333  0.0435 -0.2194
 1025YOPC   GL214114   1.310   5.753   6.665  0.1184  0.2665  0.1913
 1025YOPC   C1A14115   1.415   6.149   6.863 -0.0752 -0.0040  0.1374
 1025YOPC   D2A14116   1.299   6.170   7.267 -0.0609 -0.2483 -0.1692
 1025YOPC   C3A14117   1.098   6.386   7.650 -0.2947  0.3911 -0.1932
 1025YOPC   C4A14118   1.147   6.725   7.943 -0.1605 -0.0889 -0.5937
 1025YOPC   C1B14119   1.041   5.803   7.012  0.2283  0.0942 -0.0425
 1025YOPC   C2B14120   0.807   5.693   7.349 -0.0844  0.0163  0.1309
 1025YOPC   D3B14121   0.643   5.951   7.535  0.0229 -0.3731 -0.1138
 1025YOPC   C4B14122   0.494   5.924   7.877 -0.0042 -0.2658 -0.1320
 1026YOPC   NC314123   6.457  16.197   5.571  0.3240  0.0821  0.3597
 1026YOPC   PO414124   6.198  15.853   5.543  0.0485 -0.2008 -0.1212
 1026YOPC   GL114125   6.493  15.889   5.915 -0.0689 -0.0241  0.1409
 1026YOPC   GL214126   6.398  15.879   6.199  0.0045  0.0141  0.1496
 1026YOPC   C1A14127   6.977  15.879   6.029 -0.0445 -0.1524 -0.4262
 1026YOPC   D2A14128   7.442  15.953   6.177  0.4991 -0.0252  0.0439
 1026YOPC   C3A14129   7.391  16.395   6.372 -0.0051  0.1999 -0.2913
 1026YOPC   C4A14130   7.112  16.650   6.649 -0.1416  0.1176 -0.0490
 1026YOPC   C1B14131   6.707  15.810   6.488  0.0403 -0.3439 -0.1658
 1026YOPC   C2B14132   6.895  15.618   6.827 -0.1041 -0.0578  0.1306
 1026YOPC   D3B14133   7.277  15.875   7.156  0.2079 -0.2693  0.1353
 1026YOPC   C4B14134   7.458  16.079   7.597 -0.0863  0.0358 -0.0220
 1027YOPC   NC314135   8.517  13.735   5.623 -0.1772 -0.0713  0.0366
 1027YOPC   PO414136   8.595  13.206   5.607  0.1893  0.0145  0.1145
 1027YOPC   GL114137   8.699  13.266   6.051 -0.1314  0.0391  0.2081
 1027YOPC   GL214138   8.853  13.556   6.055  0.0428  0.1651  0.0190
 1027YOPC   C1A14139   8.603  13.056   6.315  0.2908 -0.0384  0.1825
 1027YOPC   D2A14140   8.280  12.877   6.555 -0.1618 -0.1056 -0.2088
 1027YOPC   C3A14141   8.393  13.033   7.021  0.1326  0.3210 -0.0051
 1027YOPC   C4A14142   8.464  13.355   7.376  0.1224 -0.1964 -0.2818
 1027YOPC   C1B14143   8.743  13.489   6.464  0.1151 -0.0850 -0.3016
 1027YOPC   C2B14144   8.780  13.354   6.846  0.1189  0.0107 -0.1042
 1027YOPC   D3B14145   8.907  13.550   7.242  0.0193 -0.0869 -0.1133
 1027YOPC   C4B14146   8.863  13.834   7.500  0.1071  0.3970 -0.1187
 1028YOPC   NC314147   4.878  11.371   5.577 -0.0377  0.1464 -0.2671
 1028YOPC   PO414148   5.014  11.799   5.575 -0.0868  0.0571 -0.0022
 1028YOPC   GL114149   5.150  12.033   5.983 -0.0830  0.1730  0.1894
 1028YOPC   GL214150   5.498  12.018   5.950  0.1874 -0.0079  0.2201
 1028YOPC   C1A14151   5.136  12.152   6.281 -0.0177  0.0749 -0.3950
 1028YOPC   D2A14152   4.832  12.087   6.502  0.3043  0.0064  0.1607
 1028YOPC   C3A14153   5.051  11.882   6.880  0.2281 -0.2533  0.1435
 1028YOPC   C4A14154   5.483  11.827   6.902  0.1134 -0.2621  0.1877
 1028YOPC   C1B14155   5.698  12.162   6.414 -0.3016 -0.4621  0.1270
 1028YOPC   C2B14156   6.003  12.208   6.690 -0.0626 -0.0865 -0.1051
 1028YOPC   D3B14157   6.029  12.348   7.071  0.1018  0.2106  0.0762
 1028YOPC   C4B14158   6.429  12.432   7.327 -0.0863  0.6581 -0.0209
 1029YOPC   NC314159  10.584   3.945   5.615  0.0616  0.0460 -0.1234
 1029YOPC   PO414160  10.502   4.364   5.424 -0.2203 -0.3675 -0.1190
 1029YOPC   GL114161  10.584   4.395   5.856  0.1406 -0.2389  0.1116
 1029YOPC   GL214162  10.807   4.677   5.940  0.1053 -0.1321 -0.1440
 1029YOPC   C1A14163  10.349   4.306   6.292 -0.0732 -0.0371  0.0034
 1029YOPC   D2A14164  10.351   4.168   6.788 -0.3174 -0.3671 -0.2893
 1029YOPC   C3A14165  10.576   4.170   7.054 -0.1917 -0.4218 -0.1712
 1029YOPC   C4A14166  10.531   4.100   7.362 -0.1174 -0.0740 -0.0371
 1029YOPC   C1B14167  10.958   4.507   6.389 -0.0145  0.2684  0.0128
 1029YOPC   C2B14168  10.740   4.554   6.813  0.1836 -0.3013  0.0878
 1029YOPC   D3B14169  10.756   4.876   7.125  0.3412 -0.1215 -0.0569
 1029YOPC   C4B14170  10.740   5.266   7.353 -0.0301 -0.1730 -0.0061
 1030YOPC   NC314171   0.055   1.558   5.490 -0.0107  0.0317  0.3153
 1030YOPC   PO414172   0.359   1.574   5.683 -0.0474 -0.0223  0.1782
 1030YOPC   GL114173   0.595   1.717   6.101 -0.0938  0.2472  0.0009
 1030YOPC   GL214174   0.828   1.425   6.198  0.0835  0.2975  0.1117
 1030YOPC   C1A14175   0.615   1.632   6.590 -0.1546 -0.0782 -0.3234
 1030YOPC   D2A14176   0.502   1.283   6.841 -0.4450 -0.1052 -0.0640
 1030YOPC   C3A14177   0.493   1.088   7.167  0.0473  0.1140 -0.0893
 1030YOPC   C4A14178   0.402   0.948   7.568 -0.0813 -0.0341 -0.0683
 1030YOPC   C1B14179   1.036   1.226   6.585  0.0611  0.0247 -0.0214
 1030YOPC   C2B14180   0.997   1.362   6.913 -0.0761  0.0854 -0.2953
 1030YOPC   D3B14181   1.001   1.133   7.210 -0.0457  0.0981 -0.3232
 1030YOPC   C4B14182   1.073   0.783   7.270  0.0461 -0.2465 -0.4285
 1031YOPC   NC314183  18.582   3.642   5.602  0.1643 -0.0555 -0.0902
 1031YOPC   PO414184  18.695   3.207   5.412 -0.1889  0.0324  0.0858
 1031YOPC   GL114185  18.522   3.077   5.787 -0.0184  0.1372  0.1094
 1031YOPC   GL214186  18.682   2.863   5.877 -0.2900 -0.0922  0.1586
 1031YOPC   C1A14187  18.533   2.894   6.313  0.0476  0.0201 -0.0985
 1031YOPC   D2A14188  18.413   2.864   6.739  0.0575 -0.1285 -0.1744
 1031YOPC   C3A14189  18.076   2.834   6.992 -0.4088 -0.2225 -0.0092
 1031YOPC   C4A14190  17.786   2.547   7.215  0.1716  0.0987 -0.0847
 1031YOPC   C1B14191  18.805   2.543   6.171  0.0280  0.0485  0.1417
 1031YOPC   C2B14192  18.849   2.570   6.581 -0.2737  0.3311 -0.1160
 1031YOPC   D3B14193  19.194   2.731   6.877  0.1433  0.0575 -0.1747
 1031YOPC   C4B14194  19.199   2.933   7.334  0.0394  0.0176  0.0772
 1032YOPC   NC314195   7.971   8.421   5.994 -0.0995 -0.1360  0.1359
 1032YOPC   PO414196   8.196   8.531   5.610 -0.0455 -0.0942  0.0691
 1032YOPC   GL114197   8.489   8.482   6.038 -0.1531 -0.2434 -0.1779
 1032YOPC   GL214198   8.343   8.612   6.315  0.0535 -0.1065  0.0590
 1032YOPC   C1A14199   8.815   8.431   6.274 -0.1507 -0.1854  0.1995
 1032YOPC   D2A14200   9.266   8.522   6.242 -0.1211  0.1437 -0.0164
 1032YOPC   C3A14201   9.444   8.854   6.580  0.1697 -0.1206 -0.3482
 1032YOPC   C4A14202   9.484   9.131   6.838 -0.3198 -0.0711 -0.0882
 1032YOPC   C1B14203   8.154   8.410   6.639  0.1392 -0.0644 -0.0999
 1032YOPC   C2B14204   8.234   8.286   7.052 -0.0787 -0.1833  0.1282
 1032YOPC   D3B14205   8.143   8.390   7.391  0.2572 -0.0552  0.2545
 1032YOPC   C4B14206   8.009   8.546   7.758  0.3535  0.1288 -0.0895
 1033YOPC   NC314207   9.319  10.525   5.186 -0.1526  0.1095  0.0966
 1033YOPC   PO414208   9.362  10.335   5.502  0.3224 -0.2835 -0.0260
 1033YOPC   GL114209   9.210  10.371   5.909 -0.0609 -0.1910 -0.0819
 1033YOPC   GL214210   9.183  10.638   6.108  0.0538 -0.3073  0.0604
 1033YOPC   C1A14211   9.386  10.148   6.322 -0.2380 -0.1500  0.0122
 1033YOPC   D2A14212   9.702  10.095   6.767 -0.4151 -0.3854  0.0215
 1033YOPC   C3A14213   9.793  10.405   7.110 -0.0642  0.4906 -0.1585
 1033YOPC   C4A14214   9.918  10.725   7.351 -0.0062 -0.0407 -0.0366
 1033YOPC   C1B14215   8.993  10.503   6.472  0.2295 -0.2280  0.2429
 1033YOPC   C2B14216   8.956  10.645   6.982  0.1854 -0.0001  0.1007
 1033YOPC   D3B14217   9.321  10.553   7.280 -0.1783 -0.1398 -0.3131
 1033YOPC   C4B14218   9.545  10.133   7.471  0.1387 -0.0173  0.0533
 1034YOPC   NC314219   2.520   2.187   5.426 -0.1060 -0.0988 -0.2611
 1034YOPC   PO414220   2.804   2.284   5.721 -0.1742  0.0731  0.0370
 1034YOPC   GL114221   2.658   2.468   5.988  0.1633 -0.0653 -0.0883
 1034YOPC   GL214222   2.745   2.745   5.985 -0.0514  0.1138  0.0716
 1034YOPC   C1A14223   2.473   2.366   6.313  0.0648 -0.1487  0.0950
 1034YOPC   D2A14224   2.320   1.972   6.451 -0.2533 -0.1888  0.0060
 1034YOPC   C3A14225   2.596   1.702   6.661 -0.0592  0.1171 -0.0726
 1034YOPC   C4A14226   2.641   1.642   7.119  0.0252  0.0092 -0.0872
 1034YOPC   C1B14227   2.901   2.721   6.391 -0.3024  0.2206 -0.1091
 1034YOPC   C2B14228   2.779   2.555   6.728 -0.1345 -0.2699 -0.2761
 1034YOPC   D3B14229   2.939   2.478   7.107  0.2494 -0.1442 -0.4554
 1034YOPC   C4B14230   3.251   2.203   7.227  0.4197  0.0153  0.1475
 1035YOPC   NC314231   8.813   9.691   5.493 -0.3603 -0.4053 -0.0851
 1035YOPC   PO414232   8.676   9.384   5.836  0.1605 -0.1889  0.1087
 1035YOPC   GL114233   8.765   9.263   6.205  0.0380  0.1229 -0.2071
 1035YOPC   GL214234   8.883   8.914   6.256  0.1381 -0.2476  0.1563
 1035YOPC   C1A14235   8.710   9.512   6.537  0.1648  0.1382  0.1997
 1035YOPC   D2A14236   8.978   9.637   6.863 -0.0056 -0.2653 -0.4695
 1035YOPC   C3A14237   8.933   9.513   7.374  0.2012  0.2589  0.1322
 1035YOPC   C4A14238   8.854   9.429   7.865  0.0287 -0.0513  0.0267
 1035YOPC   C1B14239   9.001   9.097   6.609  0.1026 -0.1131 -0.0643
 1035YOPC   C2B14240   9.010   9.167   7.032 -0.0700 -0.2016 -0.0406
 1035YOPC   D3B14241   8.980   8.917   7.412  0.0707 -0.1621 -0.1709
 1035YOPC   C4B14242   8.931   8.903   7.824  0.1190  0.1619 -0.2836
 1036YOPC   NC314243  13.415  12.102   5.371 -0.2113 -0.0090  0.2730
 1036YOPC   PO414244  13.625  12.504   5.586  0.0094  0.1403  0.1483
 1036YOPC   GL114245  13.971  12.640   5.862 -0.1881  0.2192  0.0683
 1036YOPC   GL214246  13.968  12.400   5.946  0.1576  0.0642 -0.2950
 1036YOPC   C1A14247  13.900  12.951   6.216 -0.0573 -0.0559  0.0595
 1036YOPC   D2A14248  14.157  13.231   6.499 -0.0323  0.0069  0.0479
 1036YOPC   C3A14249  14.134  13.074   6.972  0.1752 -0.3042  0.3439
 1036YOPC   C4A14250  14.210  12.841   7.187  0.0438  0.0274 -0.0493
 1036YOPC   C1B14251  13.657  12.066   6.148 -0.3853  0.1138 -0.0939
 1036YOPC   C2B14252  13.682  11.833   6.413  0.0573 -0.1421  0.1949
 1036YOPC   D3B14253  14.046  11.744   6.596  0.0387  0.1045 -0.2409
 1036YOPC   C4B14254  14.273  11.467   6.763  0.1337 -0.1243 -0.2480
 1037YOPC   NC314255  10.962  17.379   5.228  0.1668 -0.2768 -0.0013
 1037YOPC   PO414256  10.685  17.276   5.608 -0.2204  0.0254  0.1861
 1037YOPC   GL114257  10.742  17.518   5.892  0.0340 -0.1729  0.0457
 1037YOPC   GL214258  10.981  17.558   6.015 -0.1154  0.2617  0.0283
 1037YOPC   C1A14259  10.499  17.740   6.204  0.2711 -0.3113 -0.0635
 1037YOPC   D2A14260  10.345  17.895   6.517 -0.2539 -0.0098  0.0298
 1037YOPC   C3A14261  10.214  18.077   6.920  0.0757 -0.0229  0.0031
 1037YOPC   C4A14262  10.242  18.572   7.073 -0.1376 -0.1000 -0.2033
 1037YOPC   C1B14263  10.985  17.569   6.444  0.3054 -0.0596 -0.2629
 1037YOPC   C2B14264  11.106  17.517   6.754  0.0633 -0.1934 -0.0510
 1037YOPC   D3B14265  11.472  17.257   6.927  0.1836 -0.0282  0.1313
 1037YOPC   C4B14266  11.823  17.303   6.920 -0.2045  0.2362  0.2069
 1038YOPC   NC314267   1.590   3.145   5.686 -0.1421  0.4344 -0.1692
 1038YOPC   PO414268   1.869   2.754   5.732 -0.0608 -0.4245 -0.0118
 1038YOPC   GL114269   2.001   2.937   6.045 -0.0884  0.5348 -0.0788
 1038YOPC   GL214270   2.251   2.822   6.130 -0.0480  0.0472  0.2052
 1038YOPC   C1A14271   2.025   3.206   6.444 -0.2303 -0.0798  0.3251
 1038YOPC   D2A14272   2.125   3.281   6.871 -0.2925  0.3211  0.0284
 1038YOPC   C3A14273   1.968   2.994   7.177  0.3374 -0.0754 -0.0214
 1038YOPC   C4A14274   1.911   2.529   7.242 -0.2839  0.2809  0.0975
 1038YOPC   C1B14275   1.999   2.462   6.399 -0.0304 -0.0215  0.1065
 1038YOPC   C2B14276   2.103   2.278   6.849  0.0801 -0.4144  0.2704
 1038YOPC   D3B14277   2.516   2.162   6.870  0.0746  0.1088 -0.1768
 1038YOPC   C4B14278   2.868   2.080   6.868 -0.0400 -0.1570 -0.2436
 1039YOPC   NC314279  10.667   8.437   5.705 -0.1377  0.1265  0.3201
 1039YOPC   PO414280  10.761   8.045   5.496  0.0742  0.1474 -0.1731
 1039YOPC   GL114281  10.608   7.937   5.898 -0.1676  0.1925 -0.0885
 1039YOPC   GL214282  10.167   7.926   5.940 -0.0426  0.1036  0.3733
 1039YOPC   C1A14283  10.602   8.111   6.332  0.0720  0.4215 -0.2219
 1039YOPC   D2A14284  10.668   8.353   6.761  0.1938 -0.0072 -0.0920
 1039YOPC   C3A14285  10.397   8.410   7.063 -0.0188 -0.0606  0.2068
 1039YOPC   C4A14286   9.999   8.596   7.138 -0.0500  0.0973  0.0018
 1039YOPC   C1B14287  10.031   8.157   6.299  0.0103  0.0762  0.0767
 1039YOPC   C2B14288  10.136   8.423   6.683  0.0165  0.1128 -0.2991
 1039YOPC   D3B14289  10.457   8.819   6.655  0.2360  0.1074 -0.1761
 1039YOPC   C4B14290  10.681   9.074   6.784  0.0611 -0.1776 -0.0815
 1040YOPC   NC314291  14.749   6.578   5.680  0.2543  0.0742  0.0375
 1040YOPC   PO414292  14.363   6.714   5.791  0.2497  0.2756 -0.0235
 1040YOPC   GL114293  14.145   6.916   6.071  0.1477  0.1400 -0.0096
 1040YOPC   GL214294  14.127   7.195   5.913  0.3365 -0.0057 -0.0329
 1040YOPC   C1A14295  14.051   6.916   6.532  0.0104 -0.2097 -0.0213
 1040YOPC   D2A14296  13.940   6.874   6.955  0.1694  0.2038 -0.1349
 1040YOPC   C3A14297  13.718   6.832   7.285 -0.0818  0.0139 -0.0100
 1040YOPC   C4A14298  13.720   6.411   7.681  0.2630 -0.1202 -0.1856
 1040YOPC   C1B14299  14.119   7.397   6.237 -0.0315 -0.3051  0.1633
 1040YOPC   C2B14300  14.031   7.395   6.620  0.1533  0.1646 -0.0774
 1040YOPC   D3B14301  13.599   7.170   6.710  0.0601  0.0678 -0.1832
 1040YOPC   C4B14302  13.374   7.312   7.162 -0.2803 -0.1516  0.3231
 1041YOPC   NC314303   1.277  13.270   6.075 -0.0962 -0.1872  0.1702
 1041YOPC   PO414304   1.492  12.884   6.050  0.4119  0.0836  0.0129
 1041YOPC   GL114305   1.711  12.831   6.500 -0.0059  0.0891  0.1561
 1041YOPC   GL214306   1.899  13.180   6.486 -0.1334  0.3078 -0.1532
 1041YOPC   C1A14307   1.801  12.521   6.846  0.2070 -0.1161 -0.0017
 1041YOPC   D2A14308   2.101  12.361   7.149  0.1796 -0.1040  0.2791
 1041YOPC   C3A14309   2.313  12.651   7.344  0.1380  0.2807 -0.0993
 1041YOPC   C4A14310   2.477  12.867   7.584  0.0558 -0.2258 -0.2548
 1041YOPC   C1B14311   2.113  13.603   6.807  0.0094  0.2197 -0.0053
 1041YOPC   C2B14312   2.506  13.652   6.931 -0.1770 -0.3532  0.0418
 1041YOPC   D3B14313   2.719  13.841   6.580  0.0000  0.0397 -0.1935
 1041YOPC   C4B14314   3.080  14.045   6.625  0.1934  0.0874 -0.4167
 1042YOPC   NC314315  18.276   7.576   5.875  0.1535  0.1872 -0.0397
 1042YOPC   PO414316  18.209   7.255   6.002 -0.1120 -0.0563 -0.1812
 1042YOPC   GL114317  18.438   7.368   6.349 -0.3363 -0.2135 -0.3764
 1042YOPC   GL214318  18.480   7.742   6.436  0.1431  0.1561  0.1997
 1042YOPC   C1A14319  18.503   7.307   6.736  0.1221  0.2463 -0.2273
 1042YOPC   D2A14320  18.430   7.350   7.206  0.1594  0.0272  0.0805
 1042YOPC   C3A14321  18.706   7.185   7.470  0.1581  0.0445 -0.3704
 1042YOPC   C4A14322  18.985   6.938   7.689 -0.0766 -0.0385  0.0634
 1042YOPC   C1B14323  18.343   7.763   6.908  0.1179 -0.1904  0.1685
 1042YOPC   C2B14324  18.359   7.804   7.339  0.2517 -0.3012 -0.1568
 1042YOPC   D3B14325  18.087   7.679   7.542  0.0631 -0.1435  0.0838
 1042YOPC   C4B14326  17.594   7.623   7.622  0.1538 -0.0344  0.1660
 1043YOPC   NC314327  14.626  15.921   4.731 -0.1166  0.0393 -0.1118
 1043YOPC   PO414328  14.577  15.586   4.953 -0.1382 -0.1402  0.0404
 1043YOPC   GL114329  14.760  15.394   5.319  0.2343  0.1248 -0.0042
 1043YOPC   GL214330  14.516  15.199   5.555 -0.0040 -0.0673  0.0754
 1043YOPC   C1A14331  14.962  15.488   5.738  0.0106  0.1457  0.0207
 1043YOPC   D2A14332  15.102  15.888   6.022 -0.5530 -0.0329  0.0494
 1043YOPC   C3A14333  15.079  15.813   6.452 -0.0792  0.2086  0.0488
 1043YOPC   C4A14334  14.808  15.915   6.810 -0.1622  0.2726  0.2676
 1043YOPC   C1B14335  14.609  15.140   5.890 -0.1583  0.1663 -0.0940
 1043YOPC   C2B14336  14.829  15.035   6.287 -0.0386 -0.0725 -0.1500
 1043YOPC   D3B14337  15.131  15.132   6.579 -0.0899 -0.7254  0.2832
 1043YOPC   C4B14338  14.999  15.126   7.050  0.1472 -0.2690  0.1105
 1044YOPC   NC314339   0.148  14.901   5.343 -0.1781 -0.0465 -0.1319
 1044YOPC   PO414340   0.072  15.298   5.626  0.1635 -0.1457 -0.2386
 1044YOPC   GL114341   0.310  15.418   5.951 -0.2298 -0.1481  0.0230
 1044YOPC   GL214342   0.474  15.034   5.989 -0.0004  0.0052  0.1267
 1044YOPC   C1A14343   0.485  15.593   6.372 -0.1368 -0.0558 -0.3829
 1044YOPC   D2A14344   0.767  15.447   6.710  0.0355 -0.1534  0.1279
 1044YOPC   C3A14345   0.829  15.462   7.074  0.2082  0.0601  0.2596
 1044YOPC   C4A14346   0.959  15.454   7.440 -0.0150  0.2626  0.3463
 1044YOPC   C1B14347   0.546  15.004   6.393  0.2124  0.0216  0.1212
 1044YOPC   C2B14348   0.505  14.810   6.848  0.1302 -0.2739 -0.1585
 1044YOPC   D3B14349   0.285  14.864   7.250  0.0802  0.0285 -0.1469
 1044YOPC   C4B14350   0.103  14.755   7.593 -0.1137  0.0099 -0.1574
 1045YOPC   NC314351  15.759   3.810   5.613 -0.0904 -0.0120 -0.0614
 1045YOPC   PO414352  16.117   3.814   5.839  0.3541 -0.1812 -0.0080
 1045YOPC   GL114353  15.964   3.778   6.150  0.0048 -0.3430 -0.2951
 1045YOPC   GL214354  15.684   3.703   6.249 -0.1757  0.2170 -0.2857
 1045YOPC   C1A14355  16.180   3.662   6.534  0.0175 -0.3256 -0.0447
 1045YOPC   D2A14356  16.224   3.981   6.896  0.0603  0.0240  0.3387
 1045YOPC   C3A14357  15.892   3.808   7.191  0.2395 -0.1190  0.0058
 1045YOPC   C4A14358  15.636   3.681   7.464 -0.0948 -0.1869 -0.0235
 1045YOPC   C1B14359  15.319   3.494   6.305  0.2366  0.4225 -0.2480
 1045YOPC   C2B14360  15.132   3.108   6.580  0.0799  0.0522 -0.0834
 1045YOPC   D3B14361  15.450   2.906   6.954 -0.1845  0.1027  0.0125
 1045YOPC   C4B14362  15.592   2.898   7.372 -0.0703 -0.2036  0.0196
 1046YOPC   NC314363  15.006   8.472   5.771  0.3852 -0.0324 -0.0348
 1046YOPC   PO414364  14.484   8.610   5.710  0.0100 -0.1613  0.0753
 1046YOPC   GL114365  14.266   8.620   6.108  0.0822  0.2239 -0.1475
 1046YOPC   GL214366  14.173   8.807   6.293 -0.1061  0.5436 -0.1637
 1046YOPC   C1A14367  14.348   8.359   6.483 -0.0457 -0.1576  0.0093
 1046YOPC   D2A14368  14.337   8.368   6.938 -0.1592  0.2750  0.0514
 1046YOPC   C3A14369  14.434   8.730   7.238 -0.0983  0.1101 -0.0988
 1046YOPC   C4A14370  14.670   8.874   7.554 -0.0788 -0.0214  0.1431
 1046YOPC   C1B14371  14.581   8.803   6.611  0.1234 -0.2358 -0.1243
 1046YOPC   C2B14372  14.705   9.103   7.042  0.1455 -0.2449  0.2737
 1046YOPC   D3B14373  15.021   9.085   7.315 -0.1001 -0.3918 -0.3835
 1046YOPC   C4B14374  15.302   9.257   7.316 -0.0681 -0.0595 -0.1446
 1047YOPC   NC314375   2.265   5.167   5.614  0.2643  0.2488  0.0506
 1047YOPC   PO414376   2.514   4.971   5.363  0.0179  0.1542  0.2173
 1047YOPC   GL114377   2.619   4.809   5.768  0.1731 -0.4850  0.0119
 1047YOPC   GL214378   2.893   4.619   5.738 -0.2479 -0.0573  0.0138
 1047YOPC   C1A14379   2.599   4.404   6.035  0.0832 -0.2814 -0.0514
 1047YOPC   D2A14380   2.843   4.473   6.432  0.0499 -0.1084  0.0648
 1047YOPC   C3A14381   2.679   4.659   6.814  0.0048 -0.1558 -0.3160
 1047YOPC   C4A14382   2.465   5.066   6.999  0.0180  0.0724  0.0348
 1047YOPC   C1B14383   2.977   5.048   6.021 -0.0127 -0.2220  0.2190
 1047YOPC   C2B14384   3.137   5.360   6.420  0.0100 -0.0321 -0.2445
 1047YOPC   D3B14385   2.780   5.442   6.791  0.0283 -0.2615 -0.3266
 1047YOPC   C4B14386   2.833   5.430   7.191 -0.2505  0.3323 -0.1636
 1048YOPC   NC314387   1.599   4.927   5.547  0.0756  0.0032  0.0316
 1048YOPC   PO414388   1.903   4.946   5.842 -0.1658  0.3018  0.1860
 1048YOPC   GL114389   1.982   4.837   6.144  0.1560  0.2836 -0.0241
 1048YOPC   GL214390   2.317   4.926   6.144  0.1960  0.0003 -0.2868
 1048YOPC   C1A14391   1.740   4.639   6.555 -0.2201 -0.4272  0.1317
 1048YOPC   D2A14392   1.609   4.319   6.789 -0.3565 -0.0515  0.3866
 1048YOPC   C3A14393   1.749   4.396   7.154  0.0292  0.1305 -0.1845
 1048YOPC   C4A14394   1.899   4.612   7.545  0.2556 -0.0755 -0.2160
 1048YOPC   C1B14395   2.153   5.052   6.575  0.2627  0.0641  0.0495
 1048YOPC   C2B14396   1.981   5.162   6.898  0.0629  0.0962  0.1232
 1048YOPC   D3B14397   1.658   4.888   7.033  0.2166 -0.4017 -0.1075
 1048YOPC   C4B14398   1.463   4.821   7.355  0.0017 -0.0986  0.2230
 1049YOPC   NC314399  15.947   9.673   5.885 -0.0269 -0.3023 -0.0953
 1049YOPC   PO414400  16.456   9.555   5.934 -0.1302  0.2727 -0.2906
 1049YOPC   GL114401  16.344   9.554   6.334 -0.2999 -0.1101  0.1009
 1049YOPC   GL214402  16.030   9.406   6.340 -0.0447 -0.1632  0.1686
 1049YOPC   C1A14403  16.393   9.571   6.770 -0.2808 -0.1260 -0.4411
 1049YOPC   D2A14404  16.447   9.623   7.262 -0.5302 -0.1977 -0.0300
 1049YOPC   C3A14405  16.546   9.837   7.513  0.0155 -0.2301 -0.0223
 1049YOPC   C4A14406  16.879   9.782   7.830  0.0591 -0.1037  0.3024
 1049YOPC   C1B14407  16.271   9.103   6.630 -0.1195 -0.1175 -0.2554
 1049YOPC   C2B14408  16.381   9.141   7.092 -0.0273  0.1782 -0.0581
 1049YOPC   D3B14409  16.460   9.253   7.562 -0.0587 -0.2683 -0.1091
 1049YOPC   C4B14410  16.585   9.404   8.086  0.3270  0.0916  0.3779
 1050YOPC   NC314411   7.041   8.826   6.126  0.1143 -0.4983  0.1813
 1050YOPC   PO414412   6.615   8.456   6.173 -0.1753 -0.3973  0.2934
 1050YOPC   GL114413   6.767   8.653   6.575  0.0515  0.1510  0.3430
 1050YOPC   GL214414   7.113   8.827   6.602  0.1224 -0.3082 -0.0542
 1050YOPC   C1A14415   6.714   8.639   6.951 -0.3244 -0.1340  0.0035
 1050YOPC   D2A14416   6.631   8.638   7.344 -0.1140  0.0870 -0.2692
 1050YOPC   C3A14417   6.367   8.845   7.690  0.1748 -0.2235 -0.3153
 1050YOPC   C4A14418   5.875   8.817   7.730  0.2718  0.0598 -0.0321
 1050YOPC   C1B14419   7.326   8.801   6.979  0.0276 -0.1496 -0.1949
 1050YOPC   C2B14420   7.609   9.039   7.321  0.1630  0.0918  0.2040
 1050YOPC   D3B14421   7.906   9.024   7.606  0.0325 -0.1181 -0.0901
 1050YOPC   C4B14422   8.011   8.971   8.003 -0.1381  0.2572  0.0296
 1051YOPC   NC314423   3.286   5.135   5.037  0.0405 -0.0974  0.4064
 1051YOPC   PO414424   3.380   4.677   5.261  0.2205  0.1500 -0.1736
 1051YOPC   GL114425   3.505   4.545   5.781 -0.1611 -0.1780 -0.4560
 1051YOPC   GL214426   3.832   4.513   5.833  0.0107  0.1929  0.2375
 1051YOPC   C1A14427   3.336   4.564   6.238 -0.2895  0.2304  0.3007
 1051YOPC   D2A14428   3.112   4.881   6.551  0.1536  0.2620 -0.1751
 1051YOPC   C3A14429   2.683   5.008   6.468 -0.0407 -0.1351  0.0906
 1051YOPC   C4A14430   2.647   5.399   6.301  0.1229  0.0394 -0.0024
 1051YOPC   C1B14431   3.694   4.259   6.146  0.2051 -0.0984 -0.2247
 1051YOPC   C2B14432   3.727   4.290   6.494 -0.3118 -0.0970 -0.0573
 1051YOPC   D3B14433   4.080   4.120   6.794 -0.1476 -0.0094 -0.0552
 1051YOPC   C4B14434   4.340   3.757   7.030 -0.0222  0.0318  0.1850
 1052YOPC   NC314435   6.112   8.456   6.070 -0.1356  0.1796  0.4534
 1052YOPC   PO414436   5.713   8.709   6.035  0.0926 -0.1617 -0.1442
 1052YOPC   GL114437   5.548   8.550   6.396  0.1137 -0.0213 -0.2368
 1052YOPC   GL214438   5.373   8.318   6.398 -0.0981  0.1199  0.0736
 1052YOPC   C1A14439   5.728   8.684   6.794  0.1026 -0.1901 -0.0127
 1052YOPC   D2A14440   5.754   8.745   7.267 -0.3863  0.2551 -0.0120
 1052YOPC   C3A14441   6.099   8.497   7.396  0.0189  0.3167 -0.0043
 1052YOPC   C4A14442   6.174   8.121   7.341  0.3895  0.3791 -0.1020
 1052YOPC   C1B14443   5.515   8.093   6.744  0.0838  0.2398  0.1535
 1052YOPC   C2B14444   5.873   8.235   6.923  0.0905  0.0025 -0.0223
 1052YOPC   D3B14445   6.064   7.903   6.835 -0.1423 -0.0881  0.0064
 1052YOPC   C4B14446   6.239   7.580   6.510  0.0212  0.2900 -0.0059
 1053YOPC   NC314447  17.200  14.738   5.207  0.1098  0.0792 -0.0292
 1053YOPC   PO414448  16.688  14.710   5.299 -0.1674 -0.0628  0.0625
 1053YOPC   GL114449  16.577  14.518   5.744  0.2456 -0.0133 -0.2007
 1053YOPC   GL214450  16.260  14.427   5.693 -0.1788  0.0029  0.1456
 1053YOPC   C1A14451  16.772  14.475   6.152 -0.0137 -0.1969  0.1141
 1053YOPC   D2A14452  17.031  14.622   6.443  0.1662  0.3570  0.1168
 1053YOPC   C3A14453  17.025  14.628   6.875 -0.2230 -0.0496  0.1510
 1053YOPC   C4A14454  16.694  14.533   7.062 -0.1359  0.3314  0.2382
 1053YOPC   C1B14455  16.308  14.273   6.086  0.1460  0.2952  0.2852
 1053YOPC   C2B14456  16.117  14.310   6.531  0.3660  0.1269  0.3216
 1053YOPC   D3B14457  16.059  14.645   6.767 -0.3614  0.2074  0.0755
 1053YOPC   C4B14458  15.799  14.697   7.104 -0.0958 -0.0287 -0.0054
 1054YOPC   NC314459   2.865   1.192   5.253  0.1766  0.2842 -0.0597
 1054YOPC   PO414460   2.687   1.263   5.493  0.0306  0.0644 -0.2338
 1054YOPC   GL114461   2.531   1.278   5.919  0.1186 -0.0280  0.2535
 1054YOPC   GL214462   2.818   1.501   6.007  0.0623 -0.0145 -0.1749
 1054YOPC   C1A14463   2.459   1.144   6.322  0.1940  0.0960  0.1406
 1054YOPC   D2A14464   2.430   0.819   6.597  0.1217  0.3592  0.0304
 1054YOPC   C3A14465   2.515   0.834   7.029  0.0433 -0.0199 -0.1785
 1054YOPC   C4A14466   2.688   0.877   7.396 -0.0960 -0.4563 -0.0007
 1054YOPC   C1B14467   2.864   1.310   6.490 -0.2772 -0.1765  0.2090
 1054YOPC   C2B14468   2.744   1.177   6.856  0.1133 -0.1130  0.0534
 1054YOPC   D3B14469   2.958   1.251   7.208  0.1542 -0.1058  0.1210
 1054YOPC   C4B14470   3.208   1.352   7.475 -0.1585 -0.0838  0.1645
 1055YOPC   NC314471   3.481   1.383   5.302 -0.1095  0.2069 -0.0694
 1055YOPC   PO414472   3.383   0.985   5.340 -0.0680 -0.2245 -0.0120
 1055YOPC   GL114473   3.466   0.913   5.791 -0.0605 -0.4134 -0.0509
 1055YOPC   GL214474   3.524   0.584   5.995  0.0572 -0.3512  0.0721
 1055YOPC   C1A14475   3.276   1.008   6.236 -0.3510  0.0899 -0.1380
 1055YOPC   D2A14476   3.462   1.129   6.593 -0.0308  0.0280  0.1776
 1055YOPC   C3A14477   3.989   1.143   6.800 -0.1582  0.0706  0.1157
 1055YOPC   C4A14478   4.028   1.368   7.245 -0.0709  0.4118 -0.1294
 1055YOPC   C1B14479   3.561   0.620   6.498  0.0549  0.0379 -0.1493
 1055YOPC   C2B14480   3.665   0.713   6.906 -0.0069 -0.5270  0.0473
 1055YOPC   D3B14481   4.031   0.504   7.009 -0.1649  0.3160 -0.2046
 1055YOPC   C4B14482   4.224   0.272   7.310 -0.1083  0.2589 -0.0054
 1056YOPC   NC314483   5.375  12.123   5.452  0.1084 -0.1691 -0.2004
 1056YOPC   PO414484   5.550  12.551   5.672  0.0459  0.2960 -0.1471
 1056YOPC   GL114485   5.617  12.619   6.087 -0.2956  0.2035 -0.0377
 1056YOPC   GL214486   5.644  13.000   5.974  0.3583 -0.0531 -0.0587
 1056YOPC   C1A14487   5.796  12.689   6.503  0.2539 -0.2795 -0.0914
 1056YOPC   D2A14488   5.673  12.639   6.946 -0.1244 -0.2904  0.1297
 1056YOPC   C3A14489   5.846  12.782   7.362 -0.4722  0.2953 -0.0936
 1056YOPC   C4A14490   5.716  12.911   7.792 -0.0769  0.0960 -0.3012
 1056YOPC   C1B14491   5.656  13.147   6.375  0.1167  0.1165 -0.1952
 1056YOPC   C2B14492   5.747  13.201   6.830  0.0382  0.4790  0.2257
 1056YOPC   D3B14493   6.095  13.088   6.986  0.1188  0.1540 -0.1719
 1056YOPC   C4B14494   6.377  12.917   7.252 -0.0809  0.0206 -0.0292
 1057YOPC   NC314495   6.821  12.319   5.082 -0.0959  0.2188  0.0629
 1057YOPC   PO414496   6.779  12.476   5.488  0.1771  0.0646 -0.0619
 1057YOPC   GL114497   6.620  12.744   5.853 -0.0641 -0.0649 -0.2109
 1057YOPC   GL214498   6.322  12.679   5.913  0.0756  0.0878 -0.2952
 1057YOPC   C1A14499   6.558  13.189   5.925 -0.0291 -0.0862  0.2874
 1057YOPC   D2A14500   6.463  13.553   6.237  0.2270 -0.1998  0.0704
 1057YOPC   C3A14501   6.635  13.976   6.507  0.3552  0.1289 -0.0881
 1057YOPC   C4A14502   6.750  14.307   6.370 -0.0591 -0.0991 -0.1058
 1057YOPC   C1B14503   6.153  12.874   6.199 -0.0367  0.1249  0.1161
 1057YOPC   C2B14504   6.123  13.215   6.515  0.0649  0.2593  0.1679
 1057YOPC   D3B14505   6.595  13.147   6.679 -0.2236 -0.0771 -0.2819
 1057YOPC   C4B14506   7.084  13.128   6.824 -0.0937  0.0348 -0.2483
 1058YOPC   NC314507  16.241  10.501   5.631  0.2184 -0.3168 -0.0489
 1058YOPC   PO414508  16.618  10.399   5.838  0.1284  0.1361 -0.1882
 1058YOPC   GL114509  16.838  10.613   6.108 -0.2225 -0.0010  0.1148
 1058YOPC   GL214510  16.612  10.786   6.257 -0.0323 -0.2400 -0.3078
 1058YOPC   C1A14511  17.156  10.658   6.345  0.2718  0.0860  0.1838
 1058YOPC   D2A14512  17.511  10.653   6.601  0.0769  0.0869 -0.0942
 1058YOPC   C3A14513  17.581  10.618   7.033 -0.1261  0.0971 -0.0014
 1058YOPC   C4A14514  17.413  10.434   7.373 -0.0976 -0.1615 -0.1353
 1058YOPC   C1B14515  16.534  10.529   6.580  0.0476  0.0921  0.0311
 1058YOPC   C2B14516  16.541  10.621   7.006 -0.0476  0.0662 -0.0948
 1058YOPC   D3B14517  16.499  10.329   7.383 -0.2510  0.0742  0.4541
 1058YOPC   C4B14518  16.125  10.079   7.634 -0.1101  0.1337 -0.0509
 1059YOPC   NC314519   8.701   4.515   5.463  0.0940  0.1778 -0.1672
 1059YOPC   PO414520   8.824   4.196   5.817 -0.1173 -0.1284 -0.2446
 1059YOPC   GL114521   9.182   4.285   6.212 -0.0181  0.1221  0.3029
 1059YOPC   GL214522   9.445   4.072   6.060  0.1129  0.0569  0.0006
 1059YOPC   C1A14523   9.380   4.269   6.556 -0.4552  0.2075  0.0394
 1059YOPC   D2A14524   9.558   3.942   6.781  0.1355 -0.0324  0.1542
 1059YOPC   C3A14525   9.483   3.961   7.247  0.0049 -0.1187 -0.1170
 1059YOPC   C4A14526   9.665   4.055   7.561  0.2073 -0.0155 -0.0978
 1059YOPC   C1B14527   9.797   4.131   6.230 -0.2320  0.2346 -0.2127
 1059YOPC   C2B14528   9.944   3.938   6.493 -0.1930 -0.3688  0.1041
 1059YOPC   D3B14529  10.356   3.665   6.576 -0.1827  0.0860  0.0769
 1059YOPC   C4B14530  10.065   3.374   6.829 -0.1846 -0.0562  0.2679
 1060YOPC   NC314531  16.469   7.369   5.602  0.0789 -0.2424 -0.0274
 1060YOPC   PO414532  16.893   7.351   5.783  0.2004 -0.0367 -0.2854
 1060YOPC   GL114533  17.149   7.320   6.260 -0.1255 -0.0210 -0.0675
 1060YOPC   GL214534  16.804   7.238   6.333  0.3082  0.2096 -0.1276
 1060YOPC   C1A14535  17.315   7.127   6.611 -0.0802 -0.2120 -0.1445
 1060YOPC   D2A14536  17.492   7.228   6.996  0.1047  0.1881 -0.0165
 1060YOPC   C3A14537  17.722   7.234   7.307  0.1528 -0.3412 -0.0569
 1060YOPC   C4A14538  17.683   6.910   7.613 -0.1695  0.1271 -0.0538
 1060YOPC   C1B14539  16.445   6.938   6.354 -0.1189  0.0550  0.2066
 1060YOPC   C2B14540  16.241   6.592   6.653 -0.4282 -0.0609  0.0083
 1060YOPC   D3B14541  16.221   6.480   7.159  0.1377  0.0039 -0.0449
 1060YOPC   C4B14542  15.913   6.571   7.458 -0.1000 -0.2928 -0.2597
 1061YOPC   NC314543  12.188  16.016   5.136  0.1919 -0.0498  0.0320
 1061YOPC   PO414544  11.900  16.269   5.335 -0.1058 -0.2316 -0.0625
 1061YOPC   GL114545  11.999  16.509   5.766  0.0880  0.4161  0.0176
 1061YOPC   GL214546  11.699  16.279   5.837  0.0215 -0.0619 -0.3017
 1061YOPC   C1A14547  11.986  16.472   6.204  0.0046 -0.0461 -0.0866
 1061YOPC   D2A14548  12.052  16.294   6.599 -0.0740  0.1882  0.0642
 1061YOPC   C3A14549  12.376  16.418   6.905 -0.0284 -0.2900 -0.2538
 1061YOPC   C4A14550  12.507  16.719   7.218 -0.1657  0.1927 -0.1084
 1061YOPC   C1B14551  11.838  15.941   6.106  0.2450  0.1128 -0.1164
 1061YOPC   C2B14552  11.795  15.851   6.510  0.0014 -0.0709  0.1323
 1061YOPC   D3B14553  11.520  15.837   6.825  0.0174 -0.1540 -0.3703
 1061YOPC   C4B14554  11.360  15.940   7.176  0.2313 -0.1700 -0.0366
 1062YOPC   NC314555  14.385   3.848   4.998 -0.2032 -0.2292  0.1964
 1062YOPC   PO414556  14.549   3.757   5.494 -0.1799 -0.0112  0.0463
 1062YOPC   GL114557  14.731   3.660   5.937  0.1786 -0.1623  0.1118
 1062YOPC   GL214558  14.936   3.343   6.013 -0.0099  0.1068  0.3630
 1062YOPC   C1A14559  14.724   3.705   6.353  0.2584  0.1645 -0.2520
 1062YOPC   D2A14560  14.916   3.573   6.654 -0.1312  0.0232  0.0710
 1062YOPC   C3A14561  14.940   3.657   7.149  0.0286  0.0655  0.5036
 1062YOPC   C4A14562  14.802   3.538   7.562  0.0162 -0.3945  0.1751
 1062YOPC   C1B14563  14.704   3.142   6.272  0.0157  0.2634 -0.0457
 1062YOPC   C2B14564  14.477   2.781   6.319 -0.1453 -0.3911  0.3719
 1062YOPC   D3B14565  14.471   2.613   6.703 -0.3016  0.0296 -0.1588
 1062YOPC   C4B14566  14.197   2.495   7.041  0.1909 -0.0082 -0.2176
 1063YOPC   NC314567   7.539   1.240   4.952  0.2092 -0.1858  0.1695
 1063YOPC   PO414568   7.392   1.035   5.375  0.1284  0.0375 -0.1180
 1063YOPC   GL114569   7.390   1.202   5.820 -0.1899 -0.3308 -0.0036
 1063YOPC   GL214570   7.641   1.313   5.934  0.3608  0.1148  0.1108
 1063YOPC   C1A14571   7.270   1.229   6.195 -0.2413  0.0861  0.0729
 1063YOPC   D2A14572   7.281   1.274   6.594 -0.1091  0.1650  0.0431
 1063YOPC   C3A14573   7.258   1.536   6.857  0.1157  0.0272 -0.1630
 1063YOPC   C4A14574   6.972   1.717   7.157 -0.0687  0.4768  0.0984
 1063YOPC   C1B14575   7.707   1.139   6.344  0.1256 -0.1383 -0.0610
 1063YOPC   C2B14576   7.866   1.068   6.658  0.0185  0.4528  0.1927
 1063YOPC   D3B14577   8.227   0.853   6.833  0.3568 -0.1368 -0.0907
 1063YOPC   C4B14578   8.315   0.567   7.152 -0.1318  0.0944 -0.2567
 1064YOPC   NC314579  13.188   1.033   4.954  0.1106  0.0624 -0.0261
 1064YOPC   PO414580  13.244   1.205   5.383  0.2222 -0.0780  0.0286
 1064YOPC   GL114581  13.096   1.017   5.684  0.1978 -0.2372 -0.0523
 1064YOPC   GL214582  13.224   0.715   5.767  0.3104 -0.1731 -0.2655
 1064YOPC   C1A14583  12.830   1.119   6.110 -0.2159 -0.1629  0.0293
 1064YOPC   D2A14584  12.550   1.044   6.568  0.2456 -0.0412  0.4324
 1064YOPC   C3A14585  12.149   0.800   6.742  0.0222 -0.0105 -0.0176
 1064YOPC   C4A14586  11.877   0.620   7.054 -0.4869  0.0544  0.2730
 1064YOPC   C1B14587  13.467   0.978   6.000 -0.0696  0.0954  0.4007
 1064YOPC   C2B14588  13.851   1.102   6.001  0.0896 -0.0343  0.2913
 1064YOPC   D3B14589  13.925   1.520   6.110 -0.0721  0.1422 -0.0284
 1064YOPC   C4B14590  14.044   1.726   6.438 -0.4583  0.0992 -0.1134
 1065YOPC   NC314591  12.213  12.878   5.541  0.0634  0.0379  0.3315
 1065YOPC   PO414592  11.804  12.822   5.741  0.1289 -0.1807  0.1967
 1065YOPC   GL114593  11.947  12.976   6.191 -0.2077 -0.2696  0.0412
 1065YOPC   GL214594  11.892  13.337   6.279  0.2656  0.0064 -0.0900
 1065YOPC   C1A14595  11.643  12.735   6.420 -0.2497 -0.0088  0.1073
 1065YOPC   D2A14596  11.653  12.634   6.832  0.0323  0.2507 -0.1550
 1065YOPC   C3A14597  11.619  12.997   7.034  0.0001  0.1070 -0.0069
 1065YOPC   C4A14598  11.486  13.163   7.436 -0.0494  0.3171  0.2345
 1065YOPC   C1B14599  12.081  13.511   6.620  0.0258  0.4330  0.1641
 1065YOPC   C2B14600  12.107  13.617   7.009  0.6296  0.2617  0.2609
 1065YOPC   D3B14601  11.944  13.398   7.344  0.1656 -0.0624 -0.1367
 1065YOPC   C4B14602  11.870  13.096   7.743 -0.0024 -0.0566 -0.0388
 1066YOPC   NC314603   3.768   7.766   6.221  0.2333 -0.1293  0.3854
 1066YOPC   PO414604   3.513   7.425   6.059  0.0655  0.2744  0.0063
 1066YOPC   GL114605   3.384   7.534   6.425 -0.2966 -0.0169 -0.0133
 1066YOPC   GL214606   3.233   7.219   6.495  0.2495 -0.0032 -0.3663
 1066YOPC   C1A14607   3.418   7.746   6.861 -0.1615  0.3757 -0.3565
 1066YOPC   D2A14608   3.521   7.854   7.222  0.0713  0.1044 -0.0066
 1066YOPC   C3A14609   3.948   8.075   7.250  0.2340  0.0006 -0.0040
 1066YOPC   C4A14610   4.420   8.140   7.190 -0.0221 -0.0362  0.3246
 1066YOPC   C1B14611   3.469   6.792   6.443 -0.1784  0.2246 -0.2016
 1066YOPC   C2B14612   3.465   6.344   6.395 -0.0922 -0.1886 -0.0871
 1066YOPC   D3B14613   3.271   6.057   6.736 -0.0223 -0.0179 -0.2547
 1066YOPC   C4B14614   3.222   5.711   6.959 -0.3712  0.1645  0.1706
 1067YOPC   NC314615   3.104   0.593   5.424 -0.1029  0.1482 -0.6365
 1067YOPC   PO414616   3.139   0.363   5.807 -0.0171  0.0941  0.3342
 1067YOPC   GL114617   3.163   0.178   6.098  0.2762 -0.3602  0.1416
 1067YOPC   GL214618   3.390  -0.092   6.255  0.0776 -0.0027  0.0469
 1067YOPC   C1A14619   3.172   0.282   6.499  0.0484  0.0667  0.0285
 1067YOPC   D2A14620   3.392   0.288   6.892 -0.1460 -0.2648  0.0214
 1067YOPC   C3A14621   3.593   0.461   7.299 -0.1685  0.0109  0.1356
 1067YOPC   C4A14622   3.837   0.559   7.614 -0.2592  0.1508 -0.1715
 1067YOPC   C1B14623   3.239  -0.162   6.669 -0.0889  0.1286 -0.1623
 1067YOPC   C2B14624   3.230  -0.150   7.072 -0.0253 -0.0405 -0.3053
 1067YOPC   D3B14625   3.256   0.085   7.488  0.1410  0.2742  0.2878
 1067YOPC   C4B14626   3.259   0.033   7.945  0.0167  0.3513  0.1217
 1068YOPC   NC314627   2.600   6.696   6.121 -0.0904 -0.0050 -0.3068
 1068YOPC   PO414628   2.393   6.345   6.165  0.4546 -0.0678 -0.2004
 1068YOPC   GL114629   2.299   6.254   6.673  0.0934  0.3604 -0.1983
 1068YOPC   GL214630   1.989   6.056   6.719  0.1114  0.0168 -0.2619
 1068YOPC   C1A14631   2.387   6.261   7.033  0.0631  0.1700  0.1754
 1068YOPC   D2A14632   2.527   6.382   7.443 -0.1038 -0.1465 -0.2712
 1068YOPC   C3A14633   2.566   6.016   7.756 -0.0250 -0.1200 -0.0960
 1068YOPC   C4A14634   2.307   6.010   8.098  0.1160  0.3198 -0.1293
 1068YOPC   C1B14635   1.914   6.019   7.180  0.1151 -0.2563  0.0714
 1068YOPC   C2B14636   2.132   6.122   7.481  0.2214  0.3500  0.2073
 1068YOPC   D3B14637   2.052   6.447   7.755  0.0894 -0.0407 -0.0099
 1068YOPC   C4B14638   2.012   6.641   8.151  0.2679  0.3817 -0.2224
 1069YOPC   NC314639   0.452   8.513   5.973 -0.2226 -0.2871  0.0848
 1069YOPC   PO414640   0.854   8.319   6.040  0.2073  0.0914  0.0688
 1069YOPC   GL114641   0.661   8.415   6.456 -0.3309 -0.2019 -0.2151
 1069YOPC   GL214642   0.794   8.204   6.595 -0.1702  0.1772 -0.1508
 1069YOPC   C1A14643   0.553   8.684   6.742 -0.2279 -0.0081  0.1689
 1069YOPC   D2A14644   0.448   8.620   7.124 -0.0361 -0.2258 -0.2528
 1069YOPC   C3A14645   0.166   8.842   7.373 -0.3455 -0.1248 -0.2242
 1069YOPC   C4A14646   0.096   8.943   7.791  0.1316 -0.2161  0.0684
 1069YOPC   C1B14647   0.746   8.207   7.002  0.1773  0.1519  0.0048
 1069YOPC   C2B14648   0.549   8.142   7.392 -0.2159 -0.1030  0.0216
 1069YOPC   D3B14649   0.527   8.069   7.787  0.0891 -0.0479 -0.1024
 1069YOPC   C4B14650   0.476   8.404   8.173 -0.2992  0.3646 -0.0880
 1070YOPC   NC314651  11.809   3.000   5.417  0.0389  0.1910 -0.0396
 1070YOPC   PO414652  11.409   2.956   5.677  0.0637 -0.0590  0.2439
 1070YOPC   GL114653  11.506   2.780   6.061 -0.0963  0.3779  0.0575
 1070YOPC   GL214654  11.710   2.947   6.118  0.1371  0.2185  0.0700
 1070YOPC   C1A14655  11.382   2.880   6.576 -0.1349 -0.3852 -0.2381
 1070YOPC   D2A14656  11.405   2.954   7.022  0.0122  0.0043  0.0676
 1070YOPC   C3A14657  11.636   2.886   7.367  0.0302 -0.1421  0.0050
 1070YOPC   C4A14658  11.426   2.787   7.751 -0.0061  0.1410 -0.0772
 1070YOPC   C1B14659  11.789   2.670   6.452  0.1182  0.3290  0.0662
 1070YOPC   C2B14660  11.838   2.540   6.907 -0.0759  0.0881 -0.1222
 1070YOPC   D3B14661  12.255   2.560   7.114  0.2367  0.0752 -0.1129
 1070YOPC   C4B14662  12.525   2.462   7.215  0.0117 -0.3569  0.1803
 1071YOPC   NC314663   9.752   8.689   5.540  0.1511  0.1770 -0.1449
 1071YOPC   PO414664   9.801   9.106   5.545 -0.2669 -0.3837  0.1843
 1071YOPC   GL114665   9.866   8.947   5.970 -0.1869  0.1044 -0.3376
 1071YOPC   GL214666  10.148   9.035   6.161  0.1089 -0.1904  0.0273
 1071YOPC   C1A14667   9.819   8.660   6.308  0.1068 -0.0719  0.0605
 1071YOPC   D2A14668   9.636   8.386   6.665  0.0933  0.0414 -0.2336
 1071YOPC   C3A14669   9.487   8.658   6.992 -0.1008  0.0398 -0.1058
 1071YOPC   C4A14670   9.508   8.591   7.441 -0.2170 -0.1732  0.0368
 1071YOPC   C1B14671  10.068   9.038   6.556  0.3382 -0.1640  0.0719
 1071YOPC   C2B14672   9.935   8.986   6.871 -0.1822  0.0343 -0.0498
 1071YOPC   D3B14673  10.329   8.988   7.124  0.2401 -0.2320  0.0625
 1071YOPC   C4B14674  10.719   9.125   7.412 -0.1050 -0.3613  0.2110
 1072YOPC   NC314675  10.882   9.258   5.790  0.2447  0.0572  0.0073
 1072YOPC   PO414676  10.567   8.920   5.875  0.0568  0.1409 -0.0767
 1072YOPC   GL114677  10.819   9.123   6.276 -0.0981 -0.3472  0.1253
 1072YOPC   GL214678  10.705   9.463   6.317  0.2479  0.2011 -0.2221
 1072YOPC   C1A14679  11.174   9.077   6.572  0.3799  0.4024 -0.0617
 1072YOPC   D2A14680  11.060   9.191   7.026  0.1929 -0.1904 -0.0801
 1072YOPC   C3A14681  11.180   8.925   7.382  0.1963  0.5966  0.1041
 1072YOPC   C4A14682  11.026   8.688   7.676 -0.1745 -0.2824 -0.0548
 1072YOPC   C1B14683  11.000   9.629   6.673  0.1025  0.0039 -0.1144
 1072YOPC   C2B14684  11.407   9.476   6.821  0.0265  0.1293  0.0634
 1072YOPC   D3B14685  11.578   9.181   7.138  0.2485 -0.3555 -0.1978
 1072YOPC   C4B14686  11.683   9.295   7.574  0.0313 -0.2149  0.1209
 1073YOPC   NC314687   5.689  16.057   5.562  0.1658  0.2022  0.0014
 1073YOPC   PO414688   5.471  16.435   5.591  0.0230  0.0668 -0.1634
 1073YOPC   GL114689   5.209  16.338   5.926 -0.2627  0.3204  0.0093
 1073YOPC   GL214690   5.461  16.093   5.992  0.1172 -0.0942  0.1322
 1073YOPC   C1A14691   4.996  16.336   6.338 -0.0099  0.2449 -0.0934
 1073YOPC   D2A14692   4.723  16.469   6.607  0.2309 -0.0708  0.0312
 1073YOPC   C3A14693   5.012  16.335   7.016  0.0544 -0.0575 -0.0200
 1073YOPC   C4A14694   5.319  16.633   7.077  0.1497  0.0225  0.3047
 1073YOPC   C1B14695   5.410  16.045   6.425  0.0764 -0.0497 -0.3400
 1073YOPC   C2B14696   5.401  16.069   6.874 -0.2320 -0.0034  0.0751
 1073YOPC   D3B14697   5.435  16.199   7.331 -0.0206 -0.3065  0.2949
 1073YOPC   C4B14698   5.172  16.418   7.542  0.3404 -0.1849 -0.1735
 1074YOPC   NC314699  15.099   5.504   4.899 -0.1222 -0.1543  0.0140
 1074YOPC   PO414700  14.783   5.395   5.171  0.1640 -0.2108 -0.0090
 1074YOPC   GL114701  14.855   5.348   5.712 -0.1975  0.1652 -0.0446
 1074YOPC   GL214702  15.032   5.631   5.743  0.0015  0.0497 -0.2041
 1074YOPC   C1A14703  14.748   5.012   5.963 -0.0509  0.3829 -0.0483
 1074YOPC   D2A14704  14.539   4.655   6.205  0.1644  0.0222  0.3189
 1074YOPC   C3A14705  14.812   4.392   6.333  0.2279  0.2145 -0.1241
 1074YOPC   C4A14706  14.806   4.169   6.675 -0.0705  0.0069 -0.0014
 1074YOPC   C1B14707  14.803   5.706   6.122 -0.0090  0.1745 -0.0309
 1074YOPC   C2B14708  14.744   5.905   6.501 -0.0817 -0.1607  0.3519
 1074YOPC   D3B14709  14.845   5.813   6.873 -0.5431 -0.0005  0.0816
 1074YOPC   C4B14710  14.973   5.704   7.238 -0.1089  0.0713  0.0763
 1075YOPC   NC314711   6.604  14.429   5.568 -0.2011  0.0777  0.1523
 1075YOPC   PO414712   6.893  14.246   5.720 -0.2599 -0.1709 -0.1912
 1075YOPC   GL114713   7.272  14.297   5.983  0.1440  0.1702 -0.0601
 1075YOPC   GL214714   7.267  14.687   5.970  0.1167 -0.0279 -0.0582
 1075YOPC   C1A14715   7.435  14.378   6.412  0.4057 -0.0260 -0.2541
 1075YOPC   D2A14716   7.362  14.521   6.866  0.0458 -0.4137 -0.1575
 1075YOPC   C3A14717   7.600  14.319   7.224 -0.0812  0.1280  0.0966
 1075YOPC   C4A14718   7.504  13.810   7.490  0.1021  0.0032 -0.1971
 1075YOPC   C1B14719   7.004  14.748   6.317  0.0952 -0.0828 -0.0553
 1075YOPC   C2B14720   6.962  14.717   6.663  0.1272  0.4479  0.1387
 1075YOPC   D3B14721   6.735  14.429   6.850 -0.1235  0.1609  0.1705
 1075YOPC   C4B14722   6.466  14.020   6.956  0.0584 -0.0563 -0.5037
 1076YOPC   NC314723   4.981   7.586   5.803 -0.1039  0.0283  0.1563
 1076YOPC   PO414724   4.603   7.789   5.703  0.0719 -0.0302  0.1115
 1076YOPC   GL114725   4.577   7.603   6.068  0.4612 -0.1480  0.2109
 1076YOPC   GL214726   4.831   7.785   6.270  0.3711  0.1650 -0.0734
 1076YOPC   C1A14727   4.328   7.512   6.460  0.3686  0.2317  0.0201
 1076YOPC   D2A14728   3.880   7.608   6.672  0.1528 -0.0785  0.0447
 1076YOPC   C3A14729   3.967   7.550   7.092  0.1110  0.1517  0.2339
 1076YOPC   C4A14730   4.229   7.618   7.467  0.1413 -0.0258  0.0856
 1076YOPC   C1B14731   4.807   7.500   6.624  0.2499 -0.0834  0.0747
 1076YOPC   C2B14732   5.028   7.177   6.921 -0.1496 -0.4067  0.2221
 1076YOPC   D3B14733   5.373   6.872   7.111 -0.3354  0.2955  0.2517
 1076YOPC   C4B14734   5.819   6.908   7.111 -0.1353  0.0745  0.1218
 1077YOPC   NC314735   8.685   5.728   5.524  0.1876  0.0019 -0.3369
 1077YOPC   PO414736   8.603   5.966   5.910 -0.1998 -0.0349  0.1406
 1077YOPC   GL114737   8.911   5.989   6.294  0.1231 -0.0634  0.0531
 1077YOPC   GL214738   9.196   5.669   6.362 -0.4276  0.1190  0.0655
 1077YOPC   C1A14739   8.913   6.297   6.644 -0.4307 -0.1178 -0.0504
 1077YOPC   D2A14740   8.881   6.313   7.114  0.2702 -0.0636  0.1916
 1077YOPC   C3A14741   8.688   6.375   7.625  0.1308 -0.2981  0.3101
 1077YOPC   C4A14742   8.312   6.194   7.962 -0.1166  0.0297  0.2556
 1077YOPC   C1B14743   9.163   5.942   6.821 -0.2202  0.0730  0.0538
 1077YOPC   C2B14744   9.349   6.073   7.174  0.1470  0.0260 -0.1566
 1077YOPC   D3B14745   9.387   5.825   7.535  0.1462  0.1446 -0.3267
 1077YOPC   C4B14746   9.063   5.491   7.590  0.1149  0.2859  0.1964
 1078YOPC   NC314747   7.795   2.531   5.334  0.0949  0.5904 -0.3045
 1078YOPC   PO414748   8.140   2.672   5.462  0.2218 -0.1574 -0.2356
 1078YOPC   GL114749   8.205   2.652   5.844  0.0601  0.0456 -0.0630
 1078YOPC   GL214750   8.466   2.810   5.922 -0.2396  0.1411  0.3523
 1078YOPC   C1A14751   8.210   2.385   6.234  0.0769 -0.0724  0.1359
 1078YOPC   D2A14752   8.113   2.370   6.578  0.0187 -0.0951  0.2488
 1078YOPC   C3A14753   7.795   2.118   6.811 -0.0379 -0.1859 -0.2128
 1078YOPC   C4A14754   7.408   2.021   6.772  0.1530 -0.2691  0.1351
 1078YOPC   C1B14755   8.417   2.859   6.351 -0.1456  0.2206  0.0084
 1078YOPC   C2B14756   8.508   2.722   6.734 -0.1442 -0.0987 -0.2717
 1078YOPC   D3B14757   8.386   2.671   7.217 -0.1304  0.1607 -0.2921
 1078YOPC   C4B14758   8.332   2.454   7.673 -0.1358 -0.0653 -0.2292
 1079YOPC   NC314759  18.301   8.080   5.863 -0.1498 -0.1150  0.0247
 1079YOPC   PO414760  18.566   8.436   5.798 -0.2118 -0.1165  0.0479
 1079YOPC   GL114761  18.603   8.389   6.210 -0.0768  0.3147  0.0191
 1079YOPC   GL214762  18.404   8.268   6.332  0.2298  0.2293  0.3348
 1079YOPC   C1A14763  18.733   8.662   6.613 -0.0375 -0.1143 -0.0715
 1079YOPC   D2A14764  18.462   9.014   6.963  0.0861  0.1146 -0.1539
 1079YOPC   C3A14765  18.568   9.209   7.402  0.1009 -0.0494  0.0476
 1079YOPC   C4A14766  18.655   9.471   7.697  0.1914 -0.1464 -0.2763
 1079YOPC   C1B14767  18.267   8.376   6.734 -0.0200 -0.2771 -0.0608
 1079YOPC   C2B14768  18.105   8.158   7.026  0.1723 -0.0052  0.3450
 1079YOPC   D3B14769  18.211   8.282   7.435  0.3798 -0.1420  0.0688
 1079YOPC   C4B14770  18.339   8.715   7.464 -0.2266  0.0909  0.0515
 1080YOPC   NC314771   0.010   0.738   5.204  0.1021  0.1713  0.2016
 1080YOPC   PO414772  -0.278   1.111   5.409 -0.0297 -0.0323 -0.0259
 1080YOPC   GL114773  -0.311   1.260   5.858  0.2777 -0.0748  0.2435
 1080YOPC   GL214774  -0.081   1.581   5.965  0.0012 -0.0172  0.0608
 1080YOPC   C1A14775  -0.169   1.227   6.338  0.1497  0.3096 -0.0122
 1080YOPC   D2A14776  -0.264   1.404   6.654 -0.0722 -0.0530 -0.1880
 1080YOPC   C3A14777   0.070   1.555   7.009  0.1045 -0.1356 -0.0100
 1080YOPC   C4A14778   0.305   1.775   7.444  0.0841  0.0247 -0.0402
 1080YOPC   C1B14779   0.125   1.751   6.421  0.1676 -0.0982 -0.1104
 1080YOPC   C2B14780   0.175   2.089   6.665  0.1379 -0.0180  0.1927
 1080YOPC   D3B14781   0.174   2.143   7.108  0.0574  0.2316  0.0461
 1080YOPC   C4B14782   0.124   2.520   7.240  0.0117  0.0099  0.0001
 1081YOPC   NC314783   9.507  18.126   5.518 -0.0628  0.0690  0.0400
 1081YOPC   PO414784   9.852  17.858   5.630 -0.0943  0.1617 -0.0923
 1081YOPC   GL114785   9.505  17.786   5.926  0.1191 -0.3027 -0.0182
 1081YOPC   GL214786   9.158  17.880   5.806  0.0078 -0.1087  0.1031
 1081YOPC   C1A14787   9.552  17.522   6.266 -0.2153  0.2059  0.1003
 1081YOPC   D2A14788   9.561  17.329   6.662  0.1331 -0.2836  0.1534
 1081YOPC   C3A14789   9.629  17.440   6.989 -0.0940 -0.1339 -0.2315
 1081YOPC   C4A14790   9.857  17.769   7.229  0.0933  0.1649 -0.2323
 1081YOPC   C1B14791   9.114  17.843   6.243  0.0071 -0.1306  0.1758
 1081YOPC   C2B14792   9.145  17.590   6.544  0.1084  0.0948  0.0168
 1081YOPC   D3B14793   8.864  17.616   6.784 -0.2448  0.0449  0.0946
 1081YOPC   C4B14794   8.710  17.285   6.844 -0.2236  0.1044 -0.0412
 1082YOPC   NC314795   3.615   5.580   5.190  0.0772 -0.0439 -0.0864
 1082YOPC   PO414796   3.666   5.539   5.658  0.2726  0.1302  0.1697
 1082YOPC   GL114797   3.771   5.414   6.068 -0.2629 -0.1729 -0.2569
 1082YOPC   GL214798   3.946   5.595   6.223  0.1626  0.3430  0.2365
 1082YOPC   C1A14799   3.696   5.251   6.484  0.2946  0.0378 -0.0803
 1082YOPC   D2A14800   3.422   5.239   6.830 -0.0665 -0.1053  0.0905
 1082YOPC   C3A14801   3.245   5.088   7.110  0.0964 -0.1848 -0.1314
 1082YOPC   C4A14802   2.830   4.821   7.259 -0.2410 -0.1798  0.0274
 1082YOPC   C1B14803   4.200   5.589   6.490 -0.0871 -0.0370 -0.1622
 1082YOPC   C2B14804   4.355   5.331   6.792 -0.0309 -0.1111  0.0664
 1082YOPC   D3B14805   4.451   5.461   7.156  0.1170 -0.0684  0.0077
 1082YOPC   C4B14806   4.362   5.738   7.405 -0.1881  0.0029 -0.0703
 1083YOPC   NC314807  14.219   7.726   5.203 -0.1108 -0.2070  0.2130
 1083YOPC   PO414808  14.049   7.722   5.615 -0.0088 -0.0066  0.3921
 1083YOPC   GL114809  13.811   7.704   5.978 -0.2566 -0.1085 -0.0851
 1083YOPC   GL214810  13.445   7.611   5.984  0.0201 -0.0887 -0.2094
 1083YOPC   C1A14811  13.656   7.662   6.455  0.1269 -0.1237 -0.1758
 1083YOPC   D2A14812  13.766   7.595   7.019  0.2501  0.3264 -0.0263
 1083YOPC   C3A14813  14.052   7.324   7.118 -0.0651  0.5474  0.0662
 1083YOPC   C4A14814  14.153   7.128   7.514  0.2660 -0.1661 -0.0409
 1083YOPC   C1B14815  13.651   7.216   6.138 -0.3752 -0.0574  0.4775
 1083YOPC   C2B14816  13.606   6.805   6.356 -0.2561  0.3732 -0.0595
 1083YOPC   D3B14817  13.763   6.534   6.668  0.0725  0.0075  0.0939
 1083YOPC   C4B14818  14.120   6.368   7.006  0.0160  0.1115 -0.3503
 1084YOPC   NC314819  17.217  11.486   5.206 -0.3811  0.1469 -0.0172
 1084YOPC   PO414820  16.943  11.325   5.523  0.0464 -0.3284 -0.0646
 1084YOPC   GL114821  16.821  11.189   6.011 -0.0033  0.1991  0.1304
 1084YOPC   GL214822  16.538  11.362   6.109 -0.2945 -0.0956 -0.2414
 1084YOPC   C1A14823  16.985  11.385   6.410  0.2065 -0.0341 -0.3674
 1084YOPC   D2A14824  16.987  11.500   6.830 -0.1003 -0.0790  0.1335
 1084YOPC   C3A14825  17.241  11.743   7.109  0.4493 -0.2149  0.1290
 1084YOPC   C4A14826  17.645  12.010   7.326  0.1064  0.0062  0.0556
 1084YOPC   C1B14827  16.460  11.211   6.397  0.1077 -0.0164 -0.0458
 1084YOPC   C2B14828  16.775  10.988   6.712 -0.1489  0.0585 -0.2856
 1084YOPC   D3B14829  16.830  11.104   7.217 -0.0327  0.0037  0.1634
 1084YOPC   C4B14830  16.836  11.337   7.661 -0.1173  0.1949 -0.1030
 1085YOPC   NC314831  12.534  16.834   5.071  0.2995 -0.0347 -0.1487
 1085YOPC   PO414832  12.580  16.405   5.065 -0.0520  0.4514  0.1627
 1085YOPC   GL114833  12.576  16.235   5.431  0.0521 -0.0132  0.0342
 1085YOPC   GL214834  12.647  15.854   5.440 -0.2910  0.0236 -0.0180
 1085YOPC   C1A14835  12.500  16.244   5.891 -0.1392  0.2694  0.2177
 1085YOPC   D2A14836  12.427  15.880   6.166  0.0917  0.1361  0.1565
 1085YOPC   C3A14837  12.380  15.852   6.630 -0.2740 -0.1615  0.1935
 1085YOPC   C4A14838  12.574  15.755   6.984  0.1693  0.0561  0.0083
 1085YOPC   C1B14839  13.008  16.125   5.627  0.1755 -0.1995  0.0044
 1085YOPC   C2B14840  13.023  16.370   5.918 -0.0565 -0.4102  0.1071
 1085YOPC   D3B14841  12.821  16.661   6.032 -0.0770  0.0145  0.1136
 1085YOPC   C4B14842  12.469  16.769   6.011  0.4487 -0.0265  0.1023
 1086YOPC   NC314843  17.260  12.016   5.813  0.0553  0.1915 -0.1887
 1086YOPC   PO414844  17.372  12.412   5.695  0.0669  0.1114  0.1037
 1086YOPC   GL114845  17.377  12.477   6.170 -0.0726 -0.1491  0.0108
 1086YOPC   GL214846  17.167  12.331   6.269  0.2364  0.2194 -0.1256
 1086YOPC   C1A14847  17.405  12.698   6.606 -0.3872  0.0042 -0.2424
 1086YOPC   D2A14848  17.682  12.799   6.891  0.0012  0.0852 -0.1864
 1086YOPC   C3A14849  17.398  13.081   7.303 -0.0214  0.2852  0.0472
 1086YOPC   C4A14850  17.385  13.271   7.635 -0.0877  0.1765  0.0260
 1086YOPC   C1B14851  16.934  12.635   6.557  0.2090 -0.0126  0.0280
 1086YOPC   C2B14852  16.795  12.520   6.892 -0.2439  0.0180 -0.0394
 1086YOPC   D3B14853  16.846  12.644   7.217  0.0315  0.2785 -0.2919
 1086YOPC   C4B14854  16.711  12.907   7.499 -0.0349  0.5125 -0.1265
 1087YOPC   NC314855  12.555  18.365   4.491 -0.0252 -0.0794  0.3125
 1087YOPC   PO414856  12.255  18.445   4.670  0.0718  0.2416  0.1618
 1087YOPC   GL114857  12.025  18.265   5.085  0.1759  0.0909  0.0178
 1087YOPC   GL214858  12.240  18.286   5.339 -0.1708  0.0407  0.2993
 1087YOPC   C1A14859  11.848  17.969   5.394  0.0642  0.1130  0.1033
 1087YOPC   D2A14860  11.435  18.082   5.457 -0.0227 -0.3589 -0.0365
 1087YOPC   C3A14861  11.312  18.344   5.825  0.1537  0.4379 -0.0272
 1087YOPC   C4A14862  11.249  18.456   6.171 -0.0552  0.2052 -0.2174
 1087YOPC   C1B14863  12.221  17.913   5.730  0.2390 -0.1741  0.0303
 1087YOPC   C2B14864  12.169  17.813   6.088  0.0121 -0.3392  0.1726
 1087YOPC   D3B14865  12.214  17.936   6.489 -0.0685 -0.1942  0.1945
 1087YOPC   C4B14866  12.438  18.126   6.894 -0.0814  0.0150 -0.0222
 1088YOPC   NC314867   4.600   0.468   4.904  0.2175  0.0961  0.1410
 1088YOPC   PO414868   4.732   0.501   5.217 -0.0496 -0.2920  0.0191
 1088YOPC   GL114869   4.535   0.382   5.532  0.0697 -0.0560  0.1638
 1088YOPC   GL214870   4.455   0.038   5.618 -0.0085 -0.0673 -0.1650
 1088YOPC   C1A14871   4.393   0.311   6.009  0.0487 -0.0302  0.1319
 1088YOPC   D2A14872   4.231   0.242   6.414  0.0090  0.3712  0.1159
 1088YOPC   C3A14873   4.498   0.194   6.715  0.4029  0.1787  0.3230
 1088YOPC   C4A14874   4.903   0.224   6.983  0.3146 -0.5229  0.1098
 1088YOPC   C1B14875   4.410  -0.156   6.022 -0.0044  0.1132  0.3516
 1088YOPC   C2B14876   4.278  -0.241   6.503  0.0488 -0.0768  0.3468
 1088YOPC   D3B14877   4.223  -0.529   6.672 -0.2725  0.1300  0.0126
 1088YOPC   C4B14878   4.104  -0.845   7.016 -0.1720  0.0952 -0.0745
 1089YOPC   NC314879  13.178  13.082   5.603 -0.5287  0.0128 -0.1704
 1089YOPC   PO414880  13.460  13.249   5.469 -0.0280 -0.0661 -0.1169
 1089YOPC   GL114881  13.685  13.274   5.843 -0.1342 -0.0323 -0.0580
 1089YOPC   GL214882  13.532  12.926   5.951 -0.1634  0.2679  0.3197
 1089YOPC   C1A14883  13.717  13.398   6.383  0.2447  0.1116  0.1320
 1089YOPC   D2A14884  13.728  13.300   6.750 -0.2208  0.2874 -0.1206
 1089YOPC   C3A14885  13.330  13.476   6.857  0.1004 -0.0515 -0.1004
 1089YOPC   C4A14886  13.212  13.685   7.069  0.0611 -0.1664  0.2367
 1089YOPC   C1B14887  13.485  12.632   6.251 -0.0064 -0.0698 -0.3167
 1089YOPC   C2B14888  13.565  12.341   6.611 -0.2155 -0.2424 -0.0940
 1089YOPC   D3B14889  13.751  12.076   6.948  0.1794  0.1113  0.1342
 1089YOPC   C4B14890  13.665  11.842   7.220  0.1512  0.0490  0.1469
 1090YOPC   NC314891   8.043   3.109   5.701 -0.2543 -0.1825  0.2542
 1090YOPC   PO414892   7.737   2.914   5.749  0.2293 -0.2381  0.0320
 1090YOPC   GL114893   7.524   3.179   6.089  0.3646 -0.4063  0.0081
 1090YOPC   GL214894   7.712   3.429   6.143  0.1005  0.2271 -0.0433
 1090YOPC   C1A14895   7.383   3.343   6.560 -0.2011 -0.0327 -0.1260
 1090YOPC   D2A14896   7.242   3.229   6.932  0.3593 -0.0836  0.1011
 1090YOPC   C3A14897   7.406   3.035   7.284  0.0551  0.0505 -0.4857
 1090YOPC   C4A14898   7.327   2.999   7.710 -0.1046 -0.1637  0.0888
 1090YOPC   C1B14899   8.015   3.765   6.242 -0.1584  0.1687 -0.1440
 1090YOPC   C2B14900   8.169   4.090   6.372 -0.0251  0.1426 -0.1577
 1090YOPC   D3B14901   7.880   4.218   6.796 -0.2773 -0.2271 -0.3185
 1090YOPC   C4B14902   7.917   4.499   7.177  0.1909  0.0638 -0.2331
 1091YOPC   NC314903   7.028   7.701   5.590 -0.1724 -0.0944  0.0067
 1091YOPC   PO414904   7.004   7.529   6.047  0.0381  0.0743 -0.2772
 1091YOPC   GL114905   6.937   7.654   6.390 -0.3478 -0.2782  0.0079
 1091YOPC   GL214906   6.706   7.694   6.521  0.0874 -0.3925 -0.3785
 1091YOPC   C1A14907   7.015   7.494   6.806 -0.1705 -0.1209 -0.2019
 1091YOPC   D2A14908   7.061   7.425   7.252 -0.1079  0.0260 -0.1798
 1091YOPC   C3A14909   6.784   7.464   7.565  0.2551 -0.1018  0.0964
 1091YOPC   C4A14910   6.344   7.352   7.807 -0.0722 -0.3648  0.2330
 1091YOPC   C1B14911   6.537   7.644   6.937 -0.2469  0.3888  0.0310
 1091YOPC   C2B14912   6.396   7.671   7.353  0.3258 -0.2421 -0.0243
 1091YOPC   D3B14913   6.206   7.830   7.712 -0.4836  0.0114 -0.2413
 1091YOPC   C4B14914   5.950   7.788   8.092 -0.0593 -0.3204 -0.2485
 1092YOPC   NC314915   8.018  12.042   5.511 -0.0410 -0.7016  0.2138
 1092YOPC   PO414916   8.371  11.821   5.563  0.0230  0.1186 -0.1051
 1092YOPC   GL114917   8.232  11.864   5.950 -0.0753  0.2409 -0.0022
 1092YOPC   GL214918   7.940  11.663   6.133  0.0793 -0.2931 -0.0901
 1092YOPC   C1A14919   8.098  12.078   6.321 -0.1995 -0.0734  0.3138
 1092YOPC   D2A14920   8.047  12.445   6.541 -0.0100  0.1149  0.0920
 1092YOPC   C3A14921   7.789  12.440   6.770  0.2746  0.1195  0.2603
 1092YOPC   C4A14922   7.680  12.136   7.064 -0.0929 -0.0747 -0.1397
 1092YOPC   C1B14923   8.097  11.256   6.202  0.0630 -0.3659 -0.0187
 1092YOPC   C2B14924   8.422  11.063   6.425  0.1843 -0.5109 -0.5160
 1092YOPC   D3B14925   8.513  10.850   6.826  0.0624  0.2757 -0.2005
 1092YOPC   C4B14926   8.428  10.854   7.219  0.5113 -0.0314 -0.4157
 1093YOPC   NC314927  14.134   9.989   5.310  0.0172  0.0186 -0.1726
 1093YOPC   PO414928  13.907  10.207   5.490 -0.1515  0.1841 -0.1246
 1093YOPC   GL114929  13.927  10.241   5.916 -0.1245 -0.1181  0.2172
 1093YOPC   GL214930  14.074  10.139   6.168 -0.1613 -0.0085  0.2536
 1093YOPC   C1A14931  13.847  10.579   6.187  0.0565  0.4448 -0.2350
 1093YOPC   D2A14932  13.641  10.791   6.508  0.1225  0.1013 -0.3258
 1093YOPC   C3A14933  13.260  10.813   6.542 -0.0017 -0.0155  0.0912
 1093YOPC   C4A14934  12.876  10.953   6.346  0.1626  0.1442 -0.1572
 1093YOPC   C1B14935  13.875  10.211   6.522 -0.0674  0.1148 -0.1421
 1093YOPC   C2B14936  13.841  10.560   6.901 -0.0273  0.0479 -0.2183
 1093YOPC   D3B14937  14.047  10.363   7.153 -0.0146  0.1656 -0.0847
 1093YOPC   C4B14938  14.418  10.363   7.358 -0.0928 -0.1012 -0.3480
 1094YOPC   NC314939   3.578  12.644   5.466  0.1895  0.0613 -0.1163
 1094YOPC   PO414940   3.280  12.764   5.811  0.1904 -0.0864 -0.1264
 1094YOPC   GL114941   3.210  12.638   6.196 -0.1173  0.3372 -0.0746
 1094YOPC   GL214942   3.393  12.337   6.298 -0.0700 -0.3468 -0.0201
 1094YOPC   C1A14943   3.055  12.568   6.611 -0.2605  0.0216 -0.3413
 1094YOPC   D2A14944   3.157  12.296   7.048 -0.4699 -0.2072  0.0042
 1094YOPC   C3A14945   3.309  12.585   7.449 -0.0398 -0.1954  0.0376
 1094YOPC   C4A14946   3.515  12.785   7.801  0.0539  0.2893  0.1401
 1094YOPC   C1B14947   3.143  12.027   6.569 -0.0635 -0.2333 -0.1250
 1094YOPC   C2B14948   2.800  11.930   6.877 -0.0265 -0.0542  0.1140
 1094YOPC   D3B14949   2.832  11.899   7.272 -0.0280  0.1172  0.0820
 1094YOPC   C4B14950   2.705  11.826   7.773 -0.1134 -0.4319  0.0093
 1095YOPC   NC314951  17.847  13.921   5.362  0.1292  0.2379 -0.0726
 1095YOPC   PO414952  18.071  14.256   5.528 -0.1305  0.1733 -0.0090
 1095YOPC   GL114953  17.961  14.397   5.976 -0.3134 -0.0542 -0.1051
 1095YOPC   GL214954  17.805  14.092   6.039  0.0991 -0.0628 -0.0381
 1095YOPC   C1A14955  17.880  14.294   6.477  0.1920 -0.0615  0.1879
 1095YOPC   D2A14956  17.701  14.134   6.924  0.0844 -0.2103 -0.1312
 1095YOPC   C3A14957  17.863  13.758   6.960  0.0405  0.0198 -0.0964
 1095YOPC   C4A14958  17.901  13.455   7.224 -0.1682  0.1624 -0.2392
 1095YOPC   C1B14959  17.534  13.997   6.422  0.1296  0.1512  0.1670
 1095YOPC   C2B14960  17.232  14.273   6.680 -0.4783  0.0564 -0.2728
 1095YOPC   D3B14961  17.272  14.241   7.133 -0.1550 -0.0152 -0.0759
 1095YOPC   C4B14962  17.515  14.315   7.599  0.1167  0.2690  0.1084
 1096YOPC   NC314963  15.394   4.633   5.532  0.1333  0.0497  0.2117
 1096YOPC   PO414964  15.584   4.337   5.765  0.0756 -0.2101  0.1327
 1096YOPC   GL114965  15.684   4.205   6.181  0.0989  0.2171 -0.2367
 1096YOPC   GL214966  15.473   4.428   6.337 -0.2615 -0.0205 -0.1262
 1096YOPC   C1A14967  15.760   4.101   6.706 -0.2064 -0.1998  0.0490
 1096YOPC   D2A14968  15.665   3.666   6.755  0.2952 -0.3268 -0.1859
 1096YOPC   C3A14969  15.368   3.430   6.904  0.0149  0.3219  0.4555
 1096YOPC   C4A14970  15.247   3.341   7.411 -0.3484 -0.4673  0.0262
 1096YOPC   C1B14971  15.499   4.548   6.696  0.0604  0.1818 -0.0739
 1096YOPC   C2B14972  15.631   4.590   7.023  0.2246 -0.0406  0.1037
 1096YOPC   D3B14973  15.699   4.265   7.296 -0.2785 -0.0185  0.0604
 1096YOPC   C4B14974  15.616   4.193   7.606 -0.0551 -0.2747  0.3844
 1097YOPC   NC314975   4.140  16.757   5.209 -0.3460  0.1029 -0.0144
 1097YOPC   PO414976   3.772  16.954   5.348 -0.1215 -0.0671  0.0091
 1097YOPC   GL114977   3.856  16.855   5.850  0.3217  0.1184  0.1010
 1097YOPC   GL214978   3.607  17.007   5.968 -0.1152 -0.3218  0.0179
 1097YOPC   C1A14979   4.116  17.139   6.153  0.1708 -0.2041 -0.0157
 1097YOPC   D2A14980   4.206  17.525   6.138 -0.2045 -0.1588 -0.0216
 1097YOPC   C3A14981   3.952  17.745   6.468 -0.0199  0.4633 -0.0992
 1097YOPC   C4A14982   3.689  17.598   6.907 -0.1095  0.0229 -0.0504
 1097YOPC   C1B14983   3.737  16.853   6.375  0.0184  0.3798 -0.0018
 1097YOPC   C2B14984   3.737  16.549   6.798  0.1935  0.1191 -0.2784
 1097YOPC   D3B14985   3.949  16.421   7.147 -0.0277 -0.1219 -0.0959
 1097YOPC   C4B14986   4.048  16.105   7.439 -0.2369  0.1228  0.1129
 1098YOPC   NC314987   7.734  17.014   5.379  0.1144  0.0393  0.1260
 1098YOPC   PO414988   8.280  16.842   5.533  0.1332 -0.0269  0.0648
 1098YOPC   GL114989   8.407  16.832   5.898  0.0643  0.0520 -0.1046
 1098YOPC   GL214990   8.317  16.530   5.935  0.1514  0.3223  0.2097
 1098YOPC   C1A14991   8.834  16.732   6.080 -0.0652  0.4151  0.2776
 1098YOPC   D2A14992   9.261  16.506   6.184 -0.1934  0.3131  0.1729
 1098YOPC   C3A14993   9.459  16.175   6.380 -0.1021  0.1476  0.0239
 1098YOPC   C4A14994   9.889  16.039   6.342  0.1932  0.0195 -0.2261
 1098YOPC   C1B14995   8.010  16.513   6.103  0.1509  0.0949  0.0610
 1098YOPC   C2B14996   7.873  16.440   6.491  0.3411 -0.0816 -0.0694
 1098YOPC   D3B14997   7.996  16.128   6.694 -0.0392 -0.0089 -0.2955
 1098YOPC   C4B14998   8.191  15.705   6.796 -0.0037  0.1911 -0.0680
 1099YOPC   NC314999  14.971  10.754   5.290 -0.1085  0.0634  0.0598
 1099YOPC   PO415000  14.921  10.461   5.581  0.0241  0.1265  0.3417
 1099YOPC   GL115001  14.673  10.481   5.895  0.0321  0.1800 -0.0219
 1099YOPC   GL215002  14.889  10.444   6.231 -0.2105 -0.2580 -0.1749
 1099YOPC   C1A15003  14.367  10.517   6.149 -0.1714 -0.0126  0.1268
 1099YOPC   D2A15004  14.264  10.704   6.584 -0.0987 -0.1763 -0.4056
 1099YOPC   C3A15005  14.607  10.617   6.889 -0.0963 -0.2574 -0.0996
 1099YOPC   C4A15006  14.858  10.478   7.224 -0.2697 -0.0961  0.0007
 1099YOPC   C1B15007  14.728  10.160   6.601  0.0009 -0.2077 -0.2096
 1099YOPC   C2B15008  14.389  10.169   6.902  0.5026  0.5170 -0.0398
 1099YOPC   D3B15009  14.281   9.865   7.261  0.0232 -0.4267  0.1419
 1099YOPC   C4B15010  14.211   9.686   7.673  0.1258  0.2068 -0.1564
 1100YOPC   NC315011   0.344  13.581   5.779 -0.1223 -0.1458  0.3493
 1100YOPC   PO415012   0.556  14.004   5.827 -0.1956  0.0020 -0.0428
 1100YOPC   GL115013   0.583  14.083   6.202 -0.3441  0.0895 -0.3926
 1100YOPC   GL215014   0.701  13.905   6.432  0.2342  0.1829  0.1346
 1100YOPC   C1A15015   0.763  14.493   6.386 -0.3162 -0.0685  0.0291
 1100YOPC   D2A15016   0.923  14.919   6.110  0.1144  0.0693 -0.2436
 1100YOPC   C3A15017   0.879  15.324   6.232 -0.0686  0.0148 -0.1796
 1100YOPC   C4A15018   0.894  15.764   6.229 -0.1142 -0.0198 -0.0308
 1100YOPC   C1B15019   0.620  14.056   6.835  0.0698 -0.3677  0.1064
 1100YOPC   C2B15020   0.727  14.440   7.033 -0.0729  0.0118  0.1887
 1100YOPC   D3B15021   1.032  14.560   7.236 -0.0944  0.0318  0.1718
 1100YOPC   C4B15022   1.426  14.813   7.255 -0.0133 -0.1005 -0.0058
 1101YOPC   NC315023  15.771   5.535   5.495 -0.4172 -0.1135 -0.0784
 1101YOPC   PO415024  15.543   5.888   5.632  0.0221 -0.1483 -0.1217
 1101YOPC   GL115025  15.378   5.942   6.046  0.2635  0.0900  0.0670
 1101YOPC   GL215026  15.556   6.276   6.278 -0.0465 -0.2508  0.0896
 1101YOPC   C1A15027  15.237   5.870   6.453  0.2948 -0.0940 -0.1743
 1101YOPC   D2A15028  15.333   6.108   6.809 -0.1737  0.0048  0.0860
 1101YOPC   C3A15029  15.429   5.909   7.200 -0.0538 -0.0640 -0.2119
 1101YOPC   C4A15030  15.528   6.156   7.583 -0.1400 -0.1242  0.2508
 1101YOPC   C1B15031  15.845   6.371   6.535 -0.2418  0.2079  0.1139
 1101YOPC   C2B15032  15.772   6.538   6.902  0.2056  0.0177  0.2128
 1101YOPC   D3B15033  15.415   6.448   7.189  0.2956 -0.1032 -0.2098
 1101YOPC   C4B15034  15.002   6.189   7.357 -0.1772 -0.0184  0.2141
 1102YOPC   NC315035  10.700   0.803   5.320  0.1799  0.4043  0.2030
 1102YOPC   PO415036  10.503   0.425   5.447 -0.0715  0.1339 -0.0476
 1102YOPC   GL115037  10.398   0.324   5.860  0.1122 -0.0110 -0.0322
 1102YOPC   GL215038  10.262  -0.052   5.706 -0.1003  0.0471  0.0977
 1102YOPC   C1A15039  10.432   0.270   6.304 -0.0512 -0.0463  0.2397
 1102YOPC   D2A15040  10.084   0.360   6.657 -0.2429  0.1432 -0.1291
 1102YOPC   C3A15041   9.951   0.849   6.669 -0.2521  0.1098 -0.3076
 1102YOPC   C4A15042   9.925   1.182   6.346 -0.0175  0.0100  0.0752
 1102YOPC   C1B15043  10.182  -0.118   6.093 -0.0609 -0.1540  0.0216
 1102YOPC   C2B15044  10.184  -0.213   6.529 -0.3471  0.1459 -0.2011
 1102YOPC   D3B15045  10.495  -0.292   6.665 -0.0728  0.2915 -0.1336
 1102YOPC   C4B15046  10.716  -0.499   6.275 -0.0104  0.0070 -0.4595
 1103YOPC   NC315047  16.847  13.829   5.020 -0.1900 -0.0056 -0.3191
 1103YOPC   PO415048  16.879  13.808   5.510 -0.0715  0.1419  0.0190
 1103YOPC   GL115049  17.144  13.857   5.806  0.1576  0.0510 -0.0387
 1103YOPC   GL215050  17.480  13.901   5.696 -0.0583  0.1300  0.2127
 1103YOPC   C1A15051  17.093  13.873   6.204  0.0843 -0.2066 -0.0480
 1103YOPC   D2A15052  17.104  13.774   6.574 -0.0092 -0.0172  0.0083
 1103YOPC   C3A15053  17.351  13.782   6.803  0.1286 -0.0775 -0.2630
 1103YOPC   C4A15054  17.318  13.672   7.104 -0.1972  0.1232 -0.0916
 1103YOPC   C1B15055  17.496  13.591   6.023 -0.0160  0.1960  0.1690
 1103YOPC   C2B15056  17.565  13.484   6.460  0.2344 -0.0179  0.2303
 1103YOPC   D3B15057  17.295  13.237   6.676  0.2852 -0.1595  0.1520
 1103YOPC   C4B15058  17.092  12.966   6.959 -0.0087 -0.0212  0.2302
 1104YOPC   NC315059   2.620  15.875   5.953 -0.2181  0.1260  0.0841
 1104YOPC   PO415060   2.936  15.500   5.858 -0.0909  0.1200 -0.4891
 1104YOPC   GL115061   2.854  15.628   6.260  0.3105 -0.1701 -0.1405
 1104YOPC   GL215062   2.586  15.361   6.241 -0.0046 -0.0616 -0.2448
 1104YOPC   C1A15063   2.854  15.363   6.616 -0.0487 -0.1531 -0.3505
 1104YOPC   D2A15064   2.950  15.451   6.928  0.2910 -0.3218  0.2903
 1104YOPC   C3A15065   2.877  15.796   7.071  0.0144  0.3536  0.1503
 1104YOPC   C4A15066   2.542  16.085   7.189 -0.1900 -0.1249 -0.0835
 1104YOPC   C1B15067   2.311  15.345   6.601  0.3295  0.0575  0.1132
 1104YOPC   C2B15068   2.107  15.028   6.955 -0.0190  0.1378  0.2485
 1104YOPC   D3B15069   1.832  14.676   7.010 -0.0239 -0.0578  0.4572
 1104YOPC   C4B15070   1.606  14.451   6.739  0.1644 -0.1260  0.0538
 1105YOPC   NC315071   2.284  13.326   5.943  0.0064  0.1733 -0.2937
 1105YOPC   PO415072   2.379  12.947   5.726  0.2957  0.3853  0.4245
 1105YOPC   GL115073   2.528  12.979   6.192 -0.1386 -0.2840  0.0366
 1105YOPC   GL215074   2.415  13.339   6.454 -0.3115  0.1548 -0.5488
 1105YOPC   C1A15075   2.696  12.804   6.538 -0.1219  0.1708 -0.2487
 1105YOPC   D2A15076   2.862  12.852   6.969  0.0171 -0.1236  0.0734
 1105YOPC   C3A15077   2.872  13.037   7.399 -0.1615  0.0134 -0.1591
 1105YOPC   C4A15078   2.684  13.287   7.695  0.0224  0.0546  0.1658
 1105YOPC   C1B15079   2.769  13.332   6.724 -0.0045 -0.1182  0.4064
 1105YOPC   C2B15080   2.952  13.437   7.028 -0.2219 -0.2089 -0.0450
 1105YOPC   D3B15081   2.756  13.581   7.356 -0.0771  0.0469 -0.1359
 1105YOPC   C4B15082   2.867  13.741   7.633 -0.2816  0.1687 -0.0947
 1106YOPC   NC315083   5.851   4.511   5.545 -0.0193 -0.1536  0.0211
 1106YOPC   PO415084   6.212   4.552   5.891  0.2579 -0.0602 -0.0255
 1106YOPC   GL115085   6.153   4.656   6.303 -0.1189  0.0813 -0.2546
 1106YOPC   GL215086   6.085   4.967   6.349 -0.3278  0.3261 -0.1655
 1106YOPC   C1A15087   6.129   4.541   6.713 -0.1003 -0.2008 -0.1568
 1106YOPC   D2A15088   5.920   4.254   7.053  0.3501  0.0967 -0.2593
 1106YOPC   C3A15089   6.045   4.281   7.525 -0.0687 -0.2946  0.0631
 1106YOPC   C4A15090   5.788   4.332   7.888  0.0641  0.1946 -0.1186
 1106YOPC   C1B15091   6.123   5.128   6.705  0.0159 -0.2443 -0.0575
 1106YOPC   C2B15092   6.030   5.129   7.116 -0.3041  0.0621  0.0779
 1106YOPC   D3B15093   5.611   5.178   7.326 -0.1177  0.0965  0.1698
 1106YOPC   C4B15094   5.135   5.067   7.409 -0.1517  0.3427  0.1651
 1107YOPC   NC315095  17.979   5.344   5.265 -0.0025 -0.0277 -0.2085
 1107YOPC   PO415096  18.156   5.520   5.683  0.1450 -0.0742 -0.4689
 1107YOPC   GL115097  17.985   5.407   6.187  0.0808 -0.2616  0.0787
 1107YOPC   GL215098  17.656   5.329   6.377  0.0724  0.0419  0.0675
 1107YOPC   C1A15099  18.107   5.484   6.583  0.2497  0.0125 -0.1075
 1107YOPC   D2A15100  18.166   5.200   6.912  0.4238 -0.1611 -0.2764
 1107YOPC   C3A15101  18.304   4.790   7.072  0.0244  0.1729  0.2696
 1107YOPC   C4A15102  18.412   4.742   7.428  0.0478  0.1654  0.0171
 1107YOPC   C1B15103  17.570   5.442   6.733  0.3730  0.2020 -0.0676
 1107YOPC   C2B15104  17.692   5.395   7.156  0.0455  0.1259  0.1696
 1107YOPC   D3B15105  17.958   5.642   7.384  0.1046  0.1066  0.3617
 1107YOPC   C4B15106  18.056   6.066   7.391 -0.0917  0.0992  0.0485
 1108YOPC   NC315107  17.076   5.130   5.966 -0.3030 -0.0152  0.3273
 1108YOPC   PO415108  17.059   5.551   5.787  0.0895  0.0771  0.0086
 1108YOPC   GL115109  16.592   5.622   5.979 -0.0252 -0.2547  0.1673
 1108YOPC   GL215110  16.745   5.768   6.212  0.0549  0.2880  0.0859
 1108YOPC   C1A15111  16.367   5.489   6.402  0.1012 -0.4584  0.0660
 1108YOPC   D2A15112  16.217   5.730   6.808  0.0601 -0.1567 -0.1914
 1108YOPC   C3A15113  15.903   5.580   7.099  0.0994  0.2158  0.1939
 1108YOPC   C4A15114  15.838   5.557   7.629 -0.0075 -0.0171 -0.2277
 1108YOPC   C1B15115  16.718   5.880   6.605 -0.1286 -0.2417 -0.2055
 1108YOPC   C2B15116  16.703   5.829   7.053  0.0607 -0.0657  0.1228
 1108YOPC   D3B15117  16.720   5.850   7.487 -0.1369 -0.1078 -0.1954
 1108YOPC   C4B15118  16.862   6.044   7.881 -0.0149  0.2722  0.0714
 1109YOPC   NC315119   1.287   9.701   5.288 -0.2912  0.1469  0.1337
 1109YOPC   PO415120   1.263  10.118   5.543  0.1501 -0.1158  0.2652
 1109YOPC   GL115121   1.471  10.127   5.892  0.2735  0.1750 -0.4041
 1109YOPC   GL215122   1.475   9.786   6.085  0.1003  0.0677  0.0034
 1109YOPC   C1A15123   1.694  10.314   6.288 -0.0673  0.0417  0.2871
 1109YOPC   D2A15124   1.919  10.498   6.638 -0.2987  0.1039 -0.5146
 1109YOPC   C3A15125   1.731  10.471   7.092 -0.1272 -0.2428  0.2334
 1109YOPC   C4A15126   1.491  10.363   7.403 -0.2112  0.2354  0.1608
 1109YOPC   C1B15127   1.717   9.812   6.468 -0.0270  0.0675 -0.0979
 1109YOPC   C2B15128   1.982  10.020   6.774  0.0755 -0.0200 -0.3051
 1109YOPC   D3B15129   1.938   9.839   7.211 -0.3251  0.1289 -0.0547
 1109YOPC   C4B15130   1.695   9.555   7.347 -0.0659  0.0417 -0.1668
 1110YOPC   NC315131  11.668  13.328   5.749  0.1484 -0.1852  0.1933
 1110YOPC   PO415132  11.910  13.425   5.467  0.0054  0.4860  0.0868
 1110YOPC   GL115133  12.156  13.520   5.787 -0.2767  0.0460 -0.4125
 1110YOPC   GL215134  12.303  13.215   5.883 -0.0645  0.4653  0.0199
 1110YOPC   C1A15135  12.314  13.665   6.194  0.0825  0.2881 -0.0063
 1110YOPC   D2A15136  12.730  13.515   6.334 -0.0434 -0.0724 -0.0464
 1110YOPC   C3A15137  12.824  13.495   6.716  0.1385  0.1596 -0.3042
 1110YOPC   C4A15138  12.874  13.303   7.124  0.1972  0.0012 -0.3197
 1110YOPC   C1B15139  12.341  13.132   6.379  0.1212  0.0713 -0.0944
 1110YOPC   C2B15140  11.989  13.015   6.682 -0.2049  0.0936  0.2828
 1110YOPC   D3B15141  12.146  12.841   7.082 -0.0691  0.1191 -0.0145
 1110YOPC   C4B15142  12.566  12.727   7.300  0.1640  0.4108 -0.2816
 1111YOPC   NC315143  12.628  15.326   5.314 -0.0583 -0.2349 -0.0748
 1111YOPC   PO415144  12.297  15.453   5.353 -0.3419  0.1088 -0.2339
 1111YOPC   GL115145  12.309  15.413   5.757  0.2035 -0.2446 -0.2147
 1111YOPC   GL215146  12.279  15.075   5.940 -0.0492  0.0001  0.1009
 1111YOPC   C1A15147  12.061  15.509   6.172 -0.0366 -0.2018 -0.2448
 1111YOPC   D2A15148  12.127  15.197   6.464 -0.3326 -0.1129 -0.4760
 1111YOPC   C3A15149  12.352  15.262   6.871 -0.4902 -0.0553 -0.3026
 1111YOPC   C4A15150  12.851  15.168   7.106 -0.0142 -0.1020 -0.2619
 1111YOPC   C1B15151  12.552  14.904   6.196 -0.1112  0.1177  0.1095
 1111YOPC   C2B15152  12.745  14.952   6.622 -0.0784  0.0383 -0.1514
 1111YOPC   D3B15153  13.037  14.752   6.857 -0.2071  0.1053  0.0956
 1111YOPC   C4B15154  13.237  14.356   6.569 -0.1444 -0.2513  0.3678
 1112YOPC   NC315155  10.822   2.332   5.316 -0.0007  0.2236  0.1470
 1112YOPC   PO415156  10.939   2.058   5.600  0.2441  0.1724 -0.0845
 1112YOPC   GL115157  11.028   1.891   5.947  0.1592 -0.0599  0.0406
 1112YOPC   GL215158  11.087   1.479   5.905  0.0281  0.0202  0.0646
 1112YOPC   C1A15159  10.985   1.998   6.405 -0.0453 -0.0033 -0.0456
 1112YOPC   D2A15160  11.001   2.125   6.787 -0.0934 -0.0787 -0.4560
 1112YOPC   C3A15161  11.078   1.926   7.161  0.1244 -0.0863 -0.3316
 1112YOPC   C4A15162  11.375   1.899   7.574  0.0677  0.2880 -0.0313
 1112YOPC   C1B15163  11.323   1.522   6.331  0.3218  0.0363  0.0882
 1112YOPC   C2B15164  11.240   1.352   6.829 -0.1746 -0.2208  0.3360
 1112YOPC   D3B15165  11.145   1.438   7.273  0.1863  0.0324 -0.2658
 1112YOPC   C4B15166  10.972   1.577   7.604  0.0158  0.4069  0.3301
 1113YOPC   NC315167   4.326  10.179   5.387  0.0377  0.1429 -0.0545
 1113YOPC   PO415168   4.321  10.566   5.669  0.0688 -0.2650 -0.0137
 1113YOPC   GL115169   4.745  10.577   5.916 -0.1552 -0.0879  0.1346
 1113YOPC   GL215170   4.899  10.711   6.170 -0.0945  0.1725 -0.1202
 1113YOPC   C1A15171   4.792  10.253   6.213  0.1259 -0.0590 -0.1178
 1113YOPC   D2A15172   5.130  10.067   6.452  0.0307 -0.1934  0.2106
 1113YOPC   C3A15173   5.210  10.052   6.855 -0.1722  0.2050 -0.0612
 1113YOPC   C4A15174   5.448  10.165   7.086  0.0425  0.2741 -0.0587
 1113YOPC   C1B15175   4.867  10.951   6.635  0.1230  0.1799  0.2249
 1113YOPC   C2B15176   4.502  10.853   6.917  0.1986  0.1859  0.1286
 1113YOPC   D3B15177   4.529  10.795   7.399 -0.0623 -0.1815  0.2894
 1113YOPC   C4B15178   4.700  10.703   7.741 -0.0222 -0.0890 -0.0240
 1114YOPC   NC315179  17.755   9.184   5.563 -0.2363  0.0306 -0.0133
 1114YOPC   PO415180  17.458   8.830   5.632  0.0427  0.1479 -0.1151
 1114YOPC   GL115181  17.149   8.805   6.020 -0.0662 -0.0343 -0.1737
 1114YOPC   GL215182  17.248   8.582   6.071  0.1677 -0.0715 -0.1651
 1114YOPC   C1A15183  17.174   8.986   6.464 -0.2047 -0.0523  0.0748
 1114YOPC   D2A15184  17.220   9.235   6.759  0.3367  0.0863 -0.2431
 1114YOPC   C3A15185  17.313   9.310   7.129  0.1474 -0.0001 -0.0509
 1114YOPC   C4A15186  17.349   9.551   7.496  0.3512 -0.0465  0.2085
 1114YOPC   C1B15187  17.204   8.311   6.382 -0.2094 -0.1133 -0.0353
 1114YOPC   C2B15188  17.182   8.112   6.682 -0.0831 -0.2259  0.1818
 1114YOPC   D3B15189  16.950   7.908   6.944  0.0141 -0.1276  0.1509
 1114YOPC   C4B15190  16.501   7.722   6.839  0.1772  0.3170  0.1107
 1115YOPC   NC315191   3.583  18.241   5.390 -0.2064 -0.0918  0.2368
 1115YOPC   PO415192   4.020  18.301   5.575  0.2540 -0.2084  0.0973
 1115YOPC   GL115193   3.946  18.700   5.650  0.0728 -0.0132  0.1127
 1115YOPC   GL215194   3.563  18.753   5.744 -0.1224 -0.0159  0.1900
 1115YOPC   C1A15195   3.957  19.093   5.718  0.0451  0.0662 -0.2139
 1115YOPC   D2A15196   4.034  19.353   6.094  0.2613 -0.0173  0.1305
 1115YOPC   C3A15197   3.813  19.724   6.223  0.0964 -0.0890 -0.0017
 1115YOPC   C4A15198   4.034  20.203   6.166  0.1875  0.0894  0.2404
 1115YOPC   C1B15199   3.842  18.733   6.137  0.0709 -0.1153 -0.3152
 1115YOPC   C2B15200   3.757  18.843   6.598 -0.2322  0.0602 -0.1153
 1115YOPC   D3B15201   4.129  18.620   6.919 -0.2550 -0.0931  0.0427
 1115YOPC   C4B15202   4.430  18.435   7.193 -0.2573 -0.1953  0.3462
 1116YOPC   NC315203   4.214   6.163   5.751  0.0636 -0.3388 -0.0206
 1116YOPC   PO415204   3.930   6.484   5.801 -0.0980  0.0330 -0.2020
 1116YOPC   GL115205   3.937   6.492   6.303 -0.0582  0.2260 -0.2709
 1116YOPC   GL215206   3.985   6.149   6.373  0.2699 -0.2384  0.0636
 1116YOPC   C1A15207   3.811   6.623   6.774  0.1182  0.0843  0.0365
 1116YOPC   D2A15208   3.537   6.418   7.024 -0.3349  0.0522 -0.0144
 1116YOPC   C3A15209   3.608   6.038   7.237 -0.0051 -0.1008 -0.0653
 1116YOPC   C4A15210   3.927   5.993   7.394  0.0291 -0.2951 -0.1047
 1116YOPC   C1B15211   3.956   6.104   6.867 -0.0160 -0.2413 -0.0892
 1116YOPC   C2B15212   4.052   6.436   7.163  0.0974  0.5183  0.0258
 1116YOPC   D3B15213   3.740   6.434   7.479 -0.1039 -0.2366 -0.0367
 1116YOPC   C4B15214   3.525   6.566   7.872 -0.0618 -0.1206  0.1762
 1117YOPC   NC315215  15.958  12.246   5.113  0.0539 -0.0951  0.1902
 1117YOPC   PO415216  16.111  12.366   5.408 -0.0173 -0.0970 -0.1415
 1117YOPC   GL115217  15.945  12.541   5.809 -0.0747  0.0767  0.0011
 1117YOPC   GL215218  15.578  12.463   5.873 -0.4099  0.6479  0.1936
 1117YOPC   C1A15219  15.829  12.677   6.230 -0.0917  0.1520  0.1764
 1117YOPC   D2A15220  15.849  12.522   6.637 -0.0484  0.2564  0.3183
 1117YOPC   C3A15221  15.933  12.422   7.073  0.1961  0.2827 -0.3731
 1117YOPC   C4A15222  16.015  12.351   7.568 -0.5516  0.0725 -0.1060
 1117YOPC   C1B15223  15.422  12.921   6.150  0.2260  0.0782 -0.3144
 1117YOPC   C2B15224  15.387  13.194   6.381  0.0672 -0.0855 -0.0459
 1117YOPC   D3B15225  15.505  13.174   6.816  0.1775 -0.2059  0.0455
 1117YOPC   C4B15226  15.479  13.532   7.160 -0.2280  0.0864 -0.0170
 1118YOPC   NC315227  14.447   5.186   5.471  0.3890 -0.2254  0.0685
 1118YOPC   PO415228  14.001   5.345   5.600  0.0279 -0.3180  0.1554
 1118YOPC   GL115229  13.874   5.424   5.958  0.0487 -0.1465 -0.5202
 1118YOPC   GL215230  13.925   5.406   6.326  0.0986  0.2849 -0.3147
 1118YOPC   C1A15231  13.811   5.862   6.189  0.1015  0.2924 -0.1147
 1118YOPC   D2A15232  13.587   6.225   6.249 -0.0604  0.0181 -0.2333
 1118YOPC   C3A15233  13.420   6.204   6.823 -0.3011  0.1395  0.0424
 1118YOPC   C4A15234  13.599   6.315   7.206  0.1175 -0.1986  0.0234
 1118YOPC   C1B15235  13.620   5.119   6.551 -0.0630  0.3495  0.1446
 1118YOPC   C2B15236  13.286   5.282   6.789  0.1087 -0.1608  0.0921
 1118YOPC   D3B15237  13.484   5.275   7.127  0.0829 -0.1914 -0.0330
 1118YOPC   C4B15238  13.547   5.141   7.588  0.0001 -0.2292 -0.2078
 1119YOPC   NC315239  16.651  13.380   5.646 -0.2048  0.2116 -0.0771
 1119YOPC   PO415240  16.360  12.988   5.838 -0.2205 -0.2350  0.4735
 1119YOPC   GL115241  16.293  13.367   6.076 -0.1021  0.1125 -0.2170
 1119YOPC   GL215242  16.510  13.592   6.159 -0.1665 -0.1149 -0.1731
 1119YOPC   C1A15243  16.360  13.329   6.578  0.0489 -0.0686 -0.1899
 1119YOPC   D2A15244  16.462  13.714   6.791  0.1802  0.1435 -0.1507
 1119YOPC   C3A15245  16.352  14.153   6.941 -0.0143  0.5363  0.1968
 1119YOPC   C4A15246  16.159  14.388   7.169  0.0464 -0.1604  0.0593
 1119YOPC   C1B15247  16.632  13.990   6.278  0.2813 -0.1106 -0.0184
 1119YOPC   C2B15248  16.768  14.141   6.618  0.1608  0.1217 -0.1796
 1119YOPC   D3B15249  16.841  14.039   6.928 -0.1012  0.2742  0.0395
 1119YOPC   C4B15250  16.771  13.988   7.327 -0.1435 -0.1191  0.0638
 1120YOPC   NC315251  15.594  13.085   5.506  0.3744  0.0560  0.1838
 1120YOPC   PO415252  15.674  13.602   5.422  0.1240 -0.1011 -0.0425
 1120YOPC   GL115253  15.303  13.490   5.732  0.0052 -0.2465 -0.0289
 1120YOPC   GL215254  15.203  13.779   5.742  0.0190 -0.0333 -0.0217
 1120YOPC   C1A15255  15.051  13.285   5.972 -0.3489  0.0321  0.1940
 1120YOPC   D2A15256  14.864  13.136   6.347 -0.1579  0.0937  0.0382
 1120YOPC   C3A15257  14.783  12.630   6.524  0.1491 -0.0736  0.1524
 1120YOPC   C4A15258  14.936  12.354   6.788 -0.2995 -0.0814 -0.1537
 1120YOPC   C1B15259  15.225  13.740   6.210 -0.0878  0.0826 -0.0841
 1120YOPC   C2B15260  15.502  13.649   6.581 -0.1094  0.2752  0.0791
 1120YOPC   D3B15261  15.368  13.896   6.899 -0.0835 -0.2229  0.1876
 1120YOPC   C4B15262  15.197  14.009   7.323 -0.1762 -0.1509 -0.0324
 1121YOPC   NC315263  11.484   4.201   5.664  0.0508  0.0400  0.2061
 1121YOPC   PO415264  11.737   4.316   6.018 -0.4057  0.4207  0.0123
 1121YOPC   GL115265  12.033   4.377   6.354  0.1188 -0.0587  0.1436
 1121YOPC   GL215266  12.056   4.139   6.488 -0.0195 -0.0303 -0.2681
 1121YOPC   C1A15267  12.267   4.541   6.705  0.3063  0.2707  0.1979
 1121YOPC   D2A15268  12.524   4.602   7.151  0.2604  0.2884  0.0448
 1121YOPC   C3A15269  12.562   4.988   7.448 -0.0537  0.2621  0.0675
 1121YOPC   C4A15270  12.726   5.403   7.702 -0.0604  0.0088  0.0573
 1121YOPC   C1B15271  12.301   4.085   6.801 -0.2097 -0.1486  0.3158
 1121YOPC   C2B15272  12.684   4.086   7.042  0.2578  0.0623 -0.3198
 1121YOPC   D3B15273  12.718   4.181   7.528 -0.0764  0.3973  0.4791
 1121YOPC   C4B15274  12.622   4.126   7.955  0.1070  0.0923  0.0934
 1122YOPC   NC315275   9.328   3.279   5.542 -0.0560 -0.0975 -0.0898
 1122YOPC   PO415276   9.289   3.700   5.710 -0.0836 -0.0428 -0.0907
 1122YOPC   GL115277   8.999   3.734   6.087 -0.1159 -0.0667  0.0359
 1122YOPC   GL215278   8.604   3.844   6.104  0.1305 -0.2919  0.2108
 1122YOPC   C1A15279   9.056   3.853   6.492 -0.0728 -0.2941 -0.1334
 1122YOPC   D2A15280   9.085   3.907   6.894 -0.6423 -0.3978 -0.0359
 1122YOPC   C3A15281   9.061   4.377   7.020  0.0722 -0.1705  0.2634
 1122YOPC   C4A15282   8.769   4.683   7.050  0.1003 -0.1117 -0.1223
 1122YOPC   C1B15283   8.495   3.721   6.505 -0.0390 -0.1612 -0.0260
 1122YOPC   C2B15284   8.154   3.751   6.705 -0.1096 -0.3115 -0.0432
 1122YOPC   D3B15285   8.036   3.872   7.152  0.3445 -0.1859  0.0431
 1122YOPC   C4B15286   8.317   3.840   7.453 -0.0155 -0.1329  0.1290
 1123YOPC   NC315287   2.410  17.938   5.796  0.1104  0.2091 -0.2058
 1123YOPC   PO415288   2.652  18.269   5.898 -0.2124  0.0485 -0.1136
 1123YOPC   GL115289   2.312  18.292   6.176  0.1612 -0.2690 -0.2316
 1123YOPC   GL215290   2.279  18.545   6.381 -0.0761  0.1174 -0.3298
 1123YOPC   C1A15291   2.337  18.041   6.644 -0.1770  0.0961 -0.0187
 1123YOPC   D2A15292   2.340  17.956   7.065  0.0803  0.0065  0.2593
 1123YOPC   C3A15293   2.731  17.803   7.229  0.1636 -0.1673  0.2014
 1123YOPC   C4A15294   3.125  18.096   7.403  0.0038  0.1895  0.3008
 1123YOPC   C1B15295   2.037  18.459   6.784  0.2645  0.0793  0.1728
 1123YOPC   C2B15296   1.662  18.322   7.155  0.1755  0.2099  0.1297
 1123YOPC   D3B15297   1.557  18.618   7.446  0.1325 -0.0038 -0.4913
 1123YOPC   C4B15298   1.777  18.990   7.530  0.1486  0.2514 -0.0594
 1124YOPC   NC315299  14.052  10.749   5.250  0.0598  0.1816  0.0149
 1124YOPC   PO415300  14.500  10.895   5.395  0.0464  0.0514  0.0177
 1124YOPC   GL115301  14.672  11.023   5.863  0.2359  0.2780 -0.0642
 1124YOPC   GL215302  15.024  10.826   5.944 -0.1041  0.2084 -0.1025
 1124YOPC   C1A15303  14.596  10.965   6.303  0.1799  0.2180 -0.3928
 1124YOPC   D2A15304  14.733  11.090   6.646 -0.0484 -0.3502 -0.0311
 1124YOPC   C3A15305  14.500  11.120   7.025  0.1202 -0.2414 -0.4014
 1124YOPC   C4A15306  14.227  10.816   7.182  0.0434  0.2133 -0.0608
 1124YOPC   C1B15307  15.153  10.815   6.389  0.3448  0.1528  0.1393
 1124YOPC   C2B15308  15.065  10.624   6.797 -0.1788  0.1689  0.1591
 1124YOPC   D3B15309  15.129  10.917   7.078 -0.5080 -0.0597  0.0754
 1124YOPC   C4B15310  15.010  11.305   7.145  0.1593  0.0464 -0.5243
 1125YOPC   NC315311   7.941  14.247   5.381  0.0661 -0.1718  0.0291
 1125YOPC   PO415312   7.973  13.863   5.504 -0.0900  0.1377  0.1529
 1125YOPC   GL115313   8.021  13.728   5.884 -0.0249  0.0503  0.0448
 1125YOPC   GL215314   8.265  13.549   6.036 -0.1310 -0.0595 -0.1349
 1125YOPC   C1A15315   7.885  13.993   6.264 -0.1090 -0.1939  0.0732
 1125YOPC   D2A15316   7.725  14.076   6.684 -0.0130  0.5038  0.0345
 1125YOPC   C3A15317   7.726  13.862   7.016  0.0913 -0.0139  0.2088
 1125YOPC   C4A15318   7.991  13.715   7.398  0.1850 -0.0036  0.1228
 1125YOPC   C1B15319   8.344  13.824   6.347 -0.1155 -0.0823 -0.1228
 1125YOPC   C2B15320   8.215  14.099   6.659 -0.2071 -0.0627 -0.1024
 1125YOPC   D3B15321   8.226  14.233   7.047 -0.0230  0.3635 -0.3115
 1125YOPC   C4B15322   8.556  14.479   7.311 -0.4961 -0.0922 -0.1318
 1126YOPC   NC315323  16.006  16.228   4.890  0.0273  0.2202 -0.1513
 1126YOPC   PO415324  16.042  16.547   5.239 -0.0229  0.1459 -0.0571
 1126YOPC   GL115325  15.900  16.612   5.713 -0.1981  0.1926 -0.1837
 1126YOPC   GL215326  16.116  16.318   5.702  0.2829  0.2193 -0.2720
 1126YOPC   C1A15327  15.925  16.310   6.138 -0.0216  0.3484  0.0114
 1126YOPC   D2A15328  15.726  16.260   6.642 -0.1127 -0.1915  0.2197
 1126YOPC   C3A15329  15.967  16.320   6.991  0.1785  0.0527 -0.0687
 1126YOPC   C4A15330  15.973  16.308   7.300  0.3137  0.2469 -0.3316
 1126YOPC   C1B15331  16.062  15.901   5.854  0.0337  0.0894  0.3158
 1126YOPC   C2B15332  15.969  15.768   6.222 -0.3424  0.0240  0.1834
 1126YOPC   D3B15333  16.278  15.625   6.566  0.2772 -0.1071  0.0821
 1126YOPC   C4B15334  16.311  15.439   6.990  0.0245  0.2432  0.2666
 1127YOPC   NC315335   2.244  17.121   5.605  0.2235 -0.0453  0.0368
 1127YOPC   PO415336   2.051  16.794   5.696  0.4708 -0.2717  0.1265
 1127YOPC   GL115337   1.742  16.756   6.058  0.0797 -0.0221  0.0246
 1127YOPC   GL215338   1.708  16.439   6.279 -0.0172  0.1945 -0.0721
 1127YOPC   C1A15339   1.489  16.847   6.375  0.0650 -0.2086 -0.1133
 1127YOPC   D2A15340   1.723  17.129   6.575  0.0302 -0.1686 -0.1653
 1127YOPC   C3A15341   1.752  16.990   6.975 -0.1790  0.0665 -0.6060
 1127YOPC   C4A15342   1.636  16.894   7.395  0.0774 -0.1861  0.0603
 1127YOPC   C1B15343   1.560  16.335   6.646  0.0401  0.0411 -0.2279
 1127YOPC   C2B15344   1.456  16.621   7.042 -0.1845 -0.0372 -0.1902
 1127YOPC   D3B15345   1.154  16.681   7.476  0.2533 -0.1663  0.3768
 1127YOPC   C4B15346   0.721  16.839   7.664 -0.2457  0.0912 -0.1727
 1128YOPC   NC315347   1.306   0.500   5.696  0.0067  0.0507 -0.1356
 1128YOPC   PO415348   1.371   0.100   5.906  0.0254  0.1429 -0.1162
 1128YOPC   GL115349   1.575   0.223   6.356  0.0440 -0.3132  0.0472
 1128YOPC   GL215350   1.879   0.331   6.513 -0.0449  0.1356  0.3114
 1128YOPC   C1A15351   1.411   0.370   6.703  0.0135 -0.1843 -0.3528
 1128YOPC   D2A15352   1.475   0.478   7.162  0.2258  0.0276  0.0757
 1128YOPC   C3A15353   1.583   0.779   7.552  0.3327  0.3620  0.1597
 1128YOPC   C4A15354   1.758   0.617   7.921  0.3475  0.2230  0.1256
 1128YOPC   C1B15355   1.872   0.219   6.968  0.1336 -0.2186 -0.2078
 1128YOPC   C2B15356   2.061  -0.051   7.232  0.1321 -0.0036 -0.1398
 1128YOPC   D3B15357   2.079  -0.462   7.400  0.1588 -0.0191 -0.1029
 1128YOPC   C4B15358   2.343  -0.361   7.865 -0.1025 -0.1323  0.1053
 1129YOPC   NC315359  11.661  14.586   5.344 -0.2411 -0.1599 -0.0561
 1129YOPC   PO415360  11.236  14.615   5.259 -0.3525 -0.0455  0.0004
 1129YOPC   GL115361  11.224  14.504   5.611  0.4151  0.0251 -0.2136
 1129YOPC   GL215362  11.430  14.792   5.716 -0.3012  0.0381 -0.2881
 1129YOPC   C1A15363  10.973  14.315   5.992  0.0823 -0.1289  0.0622
 1129YOPC   D2A15364  10.910  14.196   6.396  0.0439  0.0261 -0.1983
 1129YOPC   C3A15365  11.089  14.238   6.680 -0.0516  0.0050  0.2354
 1129YOPC   C4A15366  11.019  13.984   7.132 -0.0917 -0.0688  0.0265
 1129YOPC   C1B15367  11.333  14.712   6.151  0.0823  0.3299 -0.0931
 1129YOPC   C2B15368  10.977  14.696   6.387  0.2932 -0.0896  0.0803
 1129YOPC   D3B15369  10.557  14.694   6.581 -0.0310  0.0049  0.2263
 1129YOPC   C4B15370  10.253  14.526   6.811  0.1026  0.1687  0.2818
 1130YOPC   NC315371  11.436   0.807   5.035  0.1599 -0.3582  0.1056
 1130YOPC   PO415372  11.185   0.801   5.332 -0.0826  0.0601 -0.3077
 1130YOPC   GL115373  11.400   0.834   5.713 -0.0699 -0.0890  0.0709
 1130YOPC   GL215374  11.420   1.086   6.009 -0.2003  0.1827  0.0316
 1130YOPC   C1A15375  11.443   0.595   6.023 -0.0008  0.2789 -0.2654
 1130YOPC   D2A15376  11.402   0.495   6.477 -0.0476 -0.1896 -0.1160
 1130YOPC   C3A15377  11.192   0.168   6.646  0.1187  0.0201  0.0271
 1130YOPC   C4A15378  10.864  -0.037   6.403  0.0281 -0.0274 -0.1828
 1130YOPC   C1B15379  11.454   1.042   6.405  0.0517  0.1407  0.3096
 1130YOPC   C2B15380  11.687   0.922   6.741  0.4642 -0.1351  0.0737
 1130YOPC   D3B15381  11.432   1.016   7.115  0.0016  0.1189  0.1817
 1130YOPC   C4B15382  11.705   1.042   7.552  0.0276  0.0558 -0.0889
 1131YOPC   NC315383  18.277  12.208   5.775  0.2491  0.0812  0.2888
 1131YOPC   PO415384  18.230  11.744   5.801  0.1457  0.1594  0.1198
 1131YOPC   GL115385  18.238  11.790   6.278  0.2572 -0.1317 -0.1748
 1131YOPC   GL215386  18.176  12.127   6.254 -0.1207  0.0961  0.2218
 1131YOPC   C1A15387  18.204  11.557   6.653 -0.0108 -0.1321 -0.0865
 1131YOPC   D2A15388  18.191  11.348   7.116 -0.1961 -0.3139 -0.0225
 1131YOPC   C3A15389  18.339  11.495   7.597 -0.1658  0.3281  0.2307
 1131YOPC   C4A15390  18.515  11.427   7.924  0.2101  0.1990 -0.0936
 1131YOPC   C1B15391  18.488  11.972   6.586  0.0249 -0.0168  0.1927
 1131YOPC   C2B15392  18.610  11.987   6.884 -0.1074 -0.3994  0.0405
 1131YOPC   D3B15393  18.659  12.469   6.932  0.1046  0.0420 -0.0302
 1131YOPC   C4B15394  18.590  12.951   6.809 -0.1851  0.3296 -0.1164
 1132YOPC   NC315395   2.889   3.024   4.963 -0.2692 -0.1113 -0.0634
 1132YOPC   PO415396   2.797   3.082   5.399 -0.0312  0.5180 -0.0988
 1132YOPC   GL115397   2.857   3.256   5.828  0.2445 -0.0314 -0.1322
 1132YOPC   GL215398   3.175   3.256   5.914  0.0317  0.1419  0.0482
 1132YOPC   C1A15399   2.775   3.184   6.233  0.1035  0.3767  0.0861
 1132YOPC   D2A15400   2.528   3.106   6.560 -0.1154  0.1662  0.0744
 1132YOPC   C3A15401   2.703   2.957   6.975 -0.2524  0.2535  0.1687
 1132YOPC   C4A15402   2.427   2.994   7.355 -0.1501 -0.0609  0.2742
 1132YOPC   C1B15403   3.233   2.946   6.087  0.1707  0.1862  0.0989
 1132YOPC   C2B15404   3.264   2.534   6.016 -0.0960 -0.2087  0.0119
 1132YOPC   D3B15405   3.153   2.326   6.250 -0.0491  0.2036  0.0365
 1132YOPC   C4B15406   2.966   2.026   6.385 -0.3237  0.1871  0.0333
 1133YOPC   NC315407  17.421   1.545   4.922 -0.4161  0.1095 -0.0276
 1133YOPC   PO415408  17.208   1.249   5.250 -0.1108 -0.0477  0.0914
 1133YOPC   GL115409  17.370   1.249   5.603  0.0866 -0.1445 -0.0661
 1133YOPC   GL215410  17.500   1.053   5.660  0.2057 -0.3930  0.2240
 1133YOPC   C1A15411  17.660   1.295   6.040  0.0395  0.0923  0.1600
 1133YOPC   D2A15412  17.642   0.899   6.284  0.3208  0.3390  0.2643
 1133YOPC   C3A15413  17.777   0.805   6.633 -0.1303  0.0493 -0.2130
 1133YOPC   C4A15414  17.743   0.831   7.089  0.2819  0.2767  0.3688
 1133YOPC   C1B15415  17.190   1.037   6.091 -0.3400 -0.0420 -0.1392
 1133YOPC   C2B15416  17.268   1.244   6.433  0.1273 -0.0767 -0.2081
 1133YOPC   D3B15417  17.426   1.139   6.772 -0.0644  0.2263  0.1857
 1133YOPC   C4B15418  17.512   1.250   7.231  0.0223  0.1227  0.1151
 1134YOPC   NC315419   6.272   6.874   5.811  0.3939  0.0960 -0.0639
 1134YOPC   PO415420   6.634   6.775   5.874  0.1419 -0.1895 -0.2120
 1134YOPC   GL115421   6.710   6.970   6.258  0.2679  0.1122  0.1694
 1134YOPC   GL215422   6.964   7.129   6.343 -0.0219 -0.0570  0.1065
 1134YOPC   C1A15423   6.561   7.178   6.645  0.0343  0.2061  0.2187
 1134YOPC   D2A15424   6.650   7.132   7.071  0.1071 -0.0960 -0.0233
 1134YOPC   C3A15425   6.331   6.773   7.152  0.1552 -0.1171  0.1096
 1134YOPC   C4A15426   6.183   6.543   7.431  0.1616  0.1768 -0.0684
 1134YOPC   C1B15427   7.032   6.936   6.706 -0.0711 -0.1799  0.0063
 1134YOPC   C2B15428   7.070   6.870   7.180 -0.1054 -0.0083 -0.1264
 1134YOPC   D3B15429   6.641   6.981   7.552 -0.1131  0.1792  0.1211
 1134YOPC   C4B15430   6.139   7.056   7.468 -0.1163 -0.1164 -0.0619
 1135YOPC   NC315431   6.988   3.871   5.340  0.0649  0.1822  0.0702
 1135YOPC   PO415432   7.048   3.559   5.649 -0.0660  0.3382  0.1701
 1135YOPC   GL115433   7.029   3.344   6.045  0.0863  0.2425 -0.2740
 1135YOPC   GL215434   6.960   3.126   6.126 -0.1169 -0.2819  0.0123
 1135YOPC   C1A15435   6.926   3.541   6.401  0.0962 -0.1108 -0.0888
 1135YOPC   D2A15436   7.062   3.653   6.830 -0.1306 -0.0111  0.0521
 1135YOPC   C3A15437   7.095   3.548   7.271  0.1505 -0.0086 -0.0622
 1135YOPC   C4A15438   6.911   3.433   7.610  0.0292 -0.1126 -0.1870
 1135YOPC   C1B15439   6.562   2.948   6.365  0.1317 -0.3450 -0.0974
 1135YOPC   C2B15440   6.480   2.854   6.794 -0.0426  0.2133  0.2054
 1135YOPC   D3B15441   6.565   2.603   7.128 -0.0928  0.0089 -0.4505
 1135YOPC   C4B15442   6.586   2.407   7.498  0.2607 -0.1469 -0.1839
 1136YOPC   NC315443  10.516   4.845   5.567 -0.0457  0.1100  0.0510
 1136YOPC   PO415444  10.620   5.141   5.746 -0.1737 -0.0876 -0.2128
 1136YOPC   GL115445  10.803   5.202   6.244 -0.1904  0.1018 -0.0958
 1136YOPC   GL215446  11.164   5.021   6.215  0.0002  0.1657 -0.0308
 1136YOPC   C1A15447  10.667   5.135   6.695 -0.0261  0.0178  0.0371
 1136YOPC   D2A15448  10.358   5.345   7.009 -0.0831 -0.2932  0.0337
 1136YOPC   C3A15449  10.228   4.972   7.282  0.0913  0.1811 -0.2855
 1136YOPC   C4A15450  10.196   4.854   7.724  0.1959  0.2280 -0.0967
 1136YOPC   C1B15451  11.097   4.836   6.667 -0.2316 -0.0833  0.0684
 1136YOPC   C2B15452  11.180   4.645   7.093  0.0228 -0.2553  0.0936
 1136YOPC   D3B15453  10.965   4.395   7.297 -0.2645 -0.0817 -0.2893
 1136YOPC   C4B15454  10.851   4.219   7.712  0.2304 -0.0105 -0.0238
 1137YOPC   NC315455  17.389   7.577   5.808 -0.2036  0.2586 -0.3508
 1137YOPC   PO415456  17.749   7.378   5.748  0.0861 -0.2763 -0.3365
 1137YOPC   GL115457  17.647   7.518   6.221  0.1066 -0.1105  0.0949
 1137YOPC   GL215458  17.476   7.791   6.334  0.1312 -0.2671 -0.0808
 1137YOPC   C1A15459  17.763   7.368   6.602  0.3205  0.3542  0.2051
 1137YOPC   D2A15460  18.038   7.377   6.953 -0.2045  0.0781  0.0301
 1137YOPC   C3A15461  17.922   7.666   7.076 -0.1124 -0.0015  0.0449
 1137YOPC   C4A15462  17.803   8.036   7.379  0.1995 -0.2587  0.0180
 1137YOPC   C1B15463  17.375   7.668   6.776 -0.1196 -0.2329  0.0532
 1137YOPC   C2B15464  17.361   7.678   7.193  0.2362 -0.0392  0.0522
 1137YOPC   D3B15465  17.108   7.459   7.530 -0.0434  0.1507  0.2711
 1137YOPC   C4B15466  16.683   7.205   7.560  0.0798 -0.1205  0.0510
 1138YOPC   NC315467   1.532   7.699   6.113 -0.0035  0.0955  0.2534
 1138YOPC   PO415468   1.136   7.766   5.963 -0.2069 -0.1210 -0.1605
 1138YOPC   GL115469   1.140   7.616   6.488  0.0446  0.0194  0.0191
 1138YOPC   GL215470   0.869   7.373   6.628  0.1192 -0.1452 -0.1542
 1138YOPC   C1A15471   1.312   7.454   6.842  0.2058  0.1382  0.2978
 1138YOPC   D2A15472   1.480   7.242   7.176 -0.1568  0.0271  0.0567
 1138YOPC   C3A15473   1.691   7.392   7.515  0.0362 -0.2996  0.0126
 1138YOPC   C4A15474   2.029   7.540   7.781 -0.2313  0.2090 -0.4305
 1138YOPC   C1B15475   0.995   7.265   7.123 -0.1154 -0.2998 -0.2561
 1138YOPC   C2B15476   1.001   7.205   7.607 -0.2398  0.1554 -0.2255
 1138YOPC   D3B15477   0.782   7.114   7.927 -0.0082  0.0064 -0.1468
 1138YOPC   C4B15478   0.420   7.158   8.129  0.3573 -0.1082 -0.2870
 1139YOPC   NC315479   5.829  13.565   5.742 -0.1891 -0.2404  0.0310
 1139YOPC   PO415480   5.583  13.817   5.475 -0.2750 -0.0031 -0.0261
 1139YOPC   GL115481   5.421  13.981   5.753 -0.1444  0.2484 -0.2713
 1139YOPC   GL215482   5.525  13.826   6.012 -0.0675 -0.0682  0.0954
 1139YOPC   C1A15483   5.254  14.321   6.071 -0.0136  0.1039  0.0744
 1139YOPC   D2A15484   5.406  14.509   6.518  0.0449 -0.0241 -0.1288
 1139YOPC   C3A15485   5.326  14.778   6.883  0.0297 -0.0306  0.0471
 1139YOPC   C4A15486   4.929  14.875   6.860  0.0815 -0.0772  0.2033
 1139YOPC   C1B15487   5.157  13.876   6.258  0.2043  0.3239  0.0296
 1139YOPC   C2B15488   4.920  14.218   6.444  0.3851 -0.0417  0.1454
 1139YOPC   D3B15489   5.128  14.289   6.848 -0.0047  0.3102  0.1655
 1139YOPC   C4B15490   5.015  14.478   7.217  0.0024  0.3787  0.0681
 1140YOPC   NC315491  16.396   6.127   5.200  0.2894 -0.0817 -0.2154
 1140YOPC   PO415492  16.120   5.905   5.560 -0.0798 -0.1854 -0.1945
 1140YOPC   GL115493  16.302   6.009   5.982 -0.2178  0.1151  0.2075
 1140YOPC   GL215494  16.602   6.250   6.087  0.1816 -0.1736  0.2855
 1140YOPC   C1A15495  16.263   6.016   6.413 -0.1108 -0.0490  0.0491
 1140YOPC   D2A15496  16.387   6.168   6.829  0.1508 -0.4553  0.1527
 1140YOPC   C3A15497  16.685   6.517   6.933 -0.1936  0.0567 -0.0338
 1140YOPC   C4A15498  17.041   6.625   7.091 -0.1577  0.1272 -0.5018
 1140YOPC   C1B15499  16.715   6.497   6.434 -0.2146 -0.3047  0.1022
 1140YOPC   C2B15500  17.026   6.765   6.593  0.3489 -0.0673  0.1455
 1140YOPC   D3B15501  17.523   6.705   6.816  0.1311  0.0958  0.0356
 1140YOPC   C4B15502  17.856   6.807   7.064  0.2776  0.0060 -0.0968
 1141YOPC   NC315503   0.657  16.336   5.033 -0.1522  0.1235 -0.2413
 1141YOPC   PO415504   0.530  16.217   5.465  0.5106  0.2844  0.1186
 1141YOPC   GL115505   0.439  16.383   5.824  0.1238 -0.0360 -0.0831
 1141YOPC   GL215506   0.060  16.415   5.921 -0.0075 -0.1322  0.1210
 1141YOPC   C1A15507   0.747  16.680   6.176 -0.2136  0.0659  0.0549
 1141YOPC   D2A15508   1.015  17.008   6.278  0.0159  0.0764 -0.0947
 1141YOPC   C3A15509   1.134  17.083   6.746 -0.3860 -0.2692 -0.2259
 1141YOPC   C4A15510   1.242  17.089   7.191  0.2101  0.1204 -0.0457
 1141YOPC   C1B15511   0.195  16.528   6.414 -0.2296  0.2827  0.1134
 1141YOPC   C2B15512   0.501  16.405   6.891  0.0389 -0.1205 -0.0721
 1141YOPC   D3B15513   0.460  16.490   7.202  0.1152 -0.0297  0.2063
 1141YOPC   C4B15514   0.447  16.390   7.581  0.0802  0.0580  0.0359
 1142YOPC   NC315515  16.586   3.990   5.791  0.2766 -0.0215 -0.1155
 1142YOPC   PO415516  16.846   3.607   5.542 -0.1795 -0.3153  0.2772
 1142YOPC   GL115517  16.902   3.442   5.965  0.5679  0.1757  0.0055
 1142YOPC   GL215518  16.733   3.622   6.151 -0.0164 -0.1049  0.0878
 1142YOPC   C1A15519  17.131   3.156   6.225 -0.3317  0.0870 -0.0521
 1142YOPC   D2A15520  17.480   3.062   6.522  0.1075  0.3292  0.1202
 1142YOPC   C3A15521  17.540   2.844   6.811 -0.1773 -0.0432 -0.0019
 1142YOPC   C4A15522  17.148   2.724   6.993 -0.2070  0.3003  0.0901
 1142YOPC   C1B15523  16.712   3.374   6.440 -0.0236  0.1907 -0.4785
 1142YOPC   C2B15524  16.387   3.222   6.775  0.0760  0.4059 -0.1572
 1142YOPC   D3B15525  16.293   3.467   7.097  0.1420  0.3371  0.3620
 1142YOPC   C4B15526  16.360   3.770   7.410 -0.3644  0.2920 -0.1559
 1143YOPC   NC315527  16.778   2.646   5.565 -0.0679 -0.1015 -0.0658
 1143YOPC   PO415528  16.388   2.783   5.494  0.0974  0.0201 -0.1849
 1143YOPC   GL115529  16.394   2.483   5.892 -0.0542  0.2262  0.2504
 1143YOPC   GL215530  16.625   2.282   5.939  0.3558  0.2324 -0.1239
 1143YOPC   C1A15531  16.083   2.110   5.951  0.2240 -0.2098 -0.1464
 1143YOPC   D2A15532  15.619   2.154   5.991  0.1155 -0.0723  0.0219
 1143YOPC   C3A15533  15.449   2.608   6.222  0.2485 -0.1082  0.0178
 1143YOPC   C4A15534  15.572   3.002   6.357 -0.1800  0.0193 -0.2902
 1143YOPC   C1B15535  16.744   2.199   6.322  0.0003  0.2214  0.3821
 1143YOPC   C2B15536  16.871   2.309   6.743  0.1990 -0.0450 -0.0947
 1143YOPC   D3B15537  16.624   2.406   7.031 -0.0350 -0.0556 -0.1334
 1143YOPC   C4B15538  16.330   2.381   7.412 -0.2591  0.3039 -0.0400
 1144ERGO   ROH15539  16.437   8.273   9.857 -0.2000 -0.0952 -0.0674
 1144ERGO    R115540  16.359   8.215   9.591 -0.0347 -0.2332 -0.0860
 1144ERGO    R215541  16.336   8.410   9.397 -0.2519 -0.2857 -0.1044
 1144ERGO    R315542  16.506   8.248   9.259  0.0226 -0.0585 -0.0470
 1144ERGO    R415543  16.370   8.406   9.053 -0.1500 -0.2433 -0.0964
 1144ERGO    R515544  16.384   8.189   9.062  0.1532 -0.2363 -0.0838
 1144ERGO    C115545  16.549   8.251   8.723  0.1671 -0.0055 -0.0380
 1144ERGO    C215546  16.565   8.486   8.328 -0.1693 -0.1980 -0.2097
 1145ERGO   ROH15547  15.212   9.786   9.812 -0.4231  0.1634 -0.0332
 1145ERGO    R115548  15.050   9.709   9.592 -0.2711  0.0037 -0.0910
 1145ERGO    R215549  15.145   9.704   9.332 -0.1404 -0.0212 -0.0384
 1145ERGO    R315550  15.054   9.448   9.339  0.0010 -0.0723 -0.0137
 1145ERGO    R415551  15.030   9.529   9.058 -0.2598 -0.0221  0.0112
 1145ERGO    R515552  14.872   9.445   9.184 -0.1230 -0.1327  0.1236
 1145ERGO    C115553  14.877   9.186   8.904 -0.1966 -0.0706  0.0631
 1145ERGO    C215554  14.917   9.126   8.584 -0.1819  0.0767  0.0075
 1146ERGO   ROH15555  14.439  18.504   5.794  0.0807 -0.0051 -0.0397
 1146ERGO    R115556  14.488  18.445   6.066 -0.0497 -0.1888 -0.0525
 1146ERGO    R215557  14.578  18.635   6.247  0.2506 -0.3932  0.0371
 1146ERGO    R315558  14.359  18.557   6.388  0.0909 -0.0849 -0.0349
 1146ERGO    R415559  14.574  18.569   6.586  0.0276 -0.4122  0.0309
 1146ERGO    R515560  14.443  18.399   6.547 -0.2015 -0.2144 -0.0153
 1146ERGO    C115561  14.367  18.457   6.916 -0.2523 -0.1340 -0.0404
 1146ERGO    C215562  14.220  18.312   7.280  0.0821  0.0454  0.2983
 1147ERGO   ROH15563  15.516  15.906   9.083 -0.1864 -0.1760  0.0680
 1147ERGO    R115564  15.558  15.929   8.804 -0.1180 -0.2614  0.0719
 1147ERGO    R215565  15.371  15.845   8.618 -0.2002 -0.0457  0.0600
 1147ERGO    R315566  15.396  16.099   8.525  0.1365 -0.0851  0.0270
 1147ERGO    R415567  15.307  15.944   8.293 -0.3006  0.0303  0.1019
 1147ERGO    R515568  15.482  16.074   8.303 -0.0758 -0.2444 -0.0434
 1147ERGO    C115569  15.293  16.241   8.018 -0.0429  0.0375  0.0952
 1147ERGO    C215570  15.129  16.455   7.810  0.0188 -0.0112 -0.0642
 1148ERGO   ROH15571  12.348  14.537   9.045 -0.0018  0.0346  0.1306
 1148ERGO    R115572  12.197  14.675   8.849  0.0322 -0.0218  0.0642
 1148ERGO    R215573  12.313  14.835   8.656  0.0638 -0.0535  0.0562
 1148ERGO    R315574  12.173  14.676   8.486  0.1185 -0.1040  0.0582
 1148ERGO    R415575  12.300  14.876   8.313  0.0246 -0.0453  0.0586
 1148ERGO    R515576  12.088  14.827   8.320  0.0458 -0.1328  0.0698
 1148ERGO    C115577  12.161  14.752   7.954  0.0532 -0.0879  0.0620
 1148ERGO    C215578  12.194  14.786   7.670 -0.0109  0.1095  0.0908
 1149ERGO   ROH15579  17.158   5.785   9.698 -0.0186  0.0071 -0.2230
 1149ERGO    R115580  17.051   5.811   9.437  0.0591  0.2089 -0.2360
 1149ERGO    R215581  17.150   5.991   9.252  0.4496 -0.0021 -0.2357
 1149ERGO    R315582  17.171   5.769   9.097  0.0145 -0.0622 -0.2226
 1149ERGO    R415583  17.159   5.992   8.907  0.4032 -0.0328 -0.2374
 1149ERGO    R515584  17.032   5.816   8.908  0.0650  0.1937 -0.2067
 1149ERGO    C115585  17.185   5.785   8.560 -0.0322 -0.1072 -0.2262
 1149ERGO    C215586  17.217   5.844   8.199 -0.0079  0.1099 -0.0099
 1150ERGO   ROH15587  14.631   0.339   9.187 -0.0672 -0.1479 -0.0730
 1150ERGO    R115588  14.699   0.338   8.912 -0.0421 -0.0172 -0.0680
 1150ERGO    R215589  14.566   0.181   8.727  0.0694 -0.0381 -0.1298
 1150ERGO    R315590  14.532   0.419   8.599 -0.0639 -0.0162 -0.0566
 1150ERGO    R415591  14.492   0.215   8.391 -0.0456  0.0202 -0.0991
 1150ERGO    R515592  14.630   0.384   8.383 -0.1141  0.0787 -0.0964
 1150ERGO    C115593  14.417   0.458   8.075 -0.2379  0.0746 -0.0125
 1150ERGO    C215594  14.234   0.440   7.712  0.0969  0.1398 -0.0079
 1151ERGO   ROH15595   7.574  17.613   9.449  0.0799  0.1940  0.1330
 1151ERGO    R115596   7.443  17.517   9.218  0.0166  0.0631  0.2220
 1151ERGO    R215597   7.391  17.678   8.999 -0.0883 -0.0472  0.1668
 1151ERGO    R315598   7.523  17.482   8.864 -0.1009 -0.0854  0.2086
 1151ERGO    R415599   7.331  17.592   8.670  0.0857  0.0687  0.1029
 1151ERGO    R515600   7.354  17.382   8.726 -0.0656  0.0398  0.0689
 1151ERGO    C115601   7.420  17.358   8.351  0.1752  0.1004  0.1050
 1151ERGO    C215602   7.249  17.493   8.030 -0.1360 -0.1076 -0.0430
 1152ERGO   ROH15603  15.779  13.482   9.090  0.2586  0.0857  0.0863
 1152ERGO    R115604  15.870  13.495   8.821  0.2029 -0.0217  0.0623
 1152ERGO    R215605  16.034  13.302   8.710  0.0036 -0.1778  0.0410
 1152ERGO    R315606  15.838  13.291   8.522 -0.0528 -0.0249  0.0884
 1152ERGO    R415607  16.087  13.287   8.369 -0.0759 -0.4876  0.0387
 1152ERGO    R515608  15.921  13.424   8.341  0.1105 -0.2614 -0.0197
 1152ERGO    C115609  15.934  13.268   7.994 -0.1752 -0.5243  0.0819
 1152ERGO    C215610  16.128  13.098   7.752 -0.1829  0.4206  0.0049
 1153ERGO   ROH15611   0.062   7.003  10.142 -0.3494  0.2380 -0.0957
 1153ERGO    R115612   0.179   6.903   9.905 -0.0573  0.2555  0.0380
 1153ERGO    R215613   0.051   6.913   9.660  0.0556 -0.1279 -0.0343
 1153ERGO    R315614   0.279   7.038   9.582 -0.1009  0.1865 -0.0077
 1153ERGO    R415615   0.145   6.963   9.331  0.3590 -0.7000 -0.0483
 1153ERGO    R515616   0.350   6.915   9.388  0.4130 -0.1381  0.3516
 1153ERGO    C115617   0.413   7.109   9.066  0.3888 -0.7379 -0.0314
 1153ERGO    C215618   0.428   7.108   8.767 -0.0681  0.1888  0.0405
 1154ERGO   ROH15619   5.196  17.997   9.432  0.3127  0.2383 -0.0782
 1154ERGO    R115620   5.028  18.002   9.204  0.2734  0.0874 -0.0533
 1154ERGO    R215621   5.091  18.146   8.977  0.2274 -0.0523 -0.1530
 1154ERGO    R315622   5.056  17.906   8.854  0.2159 -0.1306 -0.0006
 1154ERGO    R415623   5.140  18.088   8.640  0.1881 -0.2553 -0.1254
 1154ERGO    R515624   4.962  17.962   8.641  0.1877 -0.2601 -0.0254
 1154ERGO    C115625   5.135  17.829   8.328  0.1545 -0.4472  0.0338
 1154ERGO    C215626   5.043  17.877   8.033  0.0294 -0.1106  0.0362
 1155ERGO   ROH15627   9.896   0.334   9.649  0.0817  0.1041 -0.0737
 1155ERGO    R115628   9.793   0.416   9.398  0.0666  0.1715 -0.0456
 1155ERGO    R215629   9.931   0.584   9.228  0.1064  0.1256 -0.0600
 1155ERGO    R315630   9.889   0.383   9.049 -0.0186  0.1586 -0.0678
 1155ERGO    R415631   9.873   0.630   8.890  0.0893  0.1748 -0.0504
 1155ERGO    R515632   9.723   0.471   8.900  0.0090  0.2522 -0.0427
 1155ERGO    C115633   9.799   0.468   8.526 -0.0381  0.2344 -0.0521
 1155ERGO    C215634   9.777   0.439   8.152  0.0976 -0.2516 -0.1437
 1156ERGO   ROH15635  17.467  17.734   9.233  0.1001  0.3278 -0.0189
 1156ERGO    R115636  17.456  17.823   8.964  0.1825  0.2684 -0.0409
 1156ERGO    R215637  17.662  17.965   8.846  0.3528 -0.0299 -0.1024
 1156ERGO    R315638  17.648  17.767   8.660  0.0763 -0.0632 -0.0528
 1156ERGO    R415639  17.685  18.013   8.505  0.3937 -0.1367 -0.1159
 1156ERGO    R515640  17.527  17.864   8.478  0.1882  0.0602 -0.0678
 1156ERGO    C115641  17.686  17.855   8.131  0.1578 -0.2302 -0.0772
 1156ERGO    C215642  17.843  17.820   7.875  0.1984  0.0748 -0.0182
 1157ERGO   ROH15643   2.937   1.516   9.534  0.0528 -0.2133  0.0101
 1157ERGO    R115644   2.854   1.431   9.277 -0.1027  0.0914 -0.0451
 1157ERGO    R215645   2.669   1.572   9.125  0.0197  0.4288  0.1078
 1157ERGO    R315646   2.866   1.563   8.939 -0.0289  0.3589  0.0603
 1157ERGO    R415647   2.624   1.618   8.786 -0.0737  0.2375  0.0933
 1157ERGO    R515648   2.766   1.458   8.750 -0.0598  0.2415  0.1431
 1157ERGO    C115649   2.782   1.636   8.413 -0.1737  0.0606  0.0403
 1157ERGO    C215650   2.764   1.855   8.101  0.1928  0.4382  0.1114
 1158ERGO   ROH15651   4.342  16.632   5.689  0.1601 -0.1616  0.0841
 1158ERGO    R115652   4.270  16.746   5.938  0.0293 -0.0434 -0.0047
 1158ERGO    R215653   4.141  16.602   6.135  0.0954 -0.0072  0.0701
 1158ERGO    R315654   4.349  16.686   6.289  0.0080  0.2492  0.0522
 1158ERGO    R415655   4.144  16.601   6.481  0.1248  0.0087  0.0693
 1158ERGO    R515656   4.246  16.794   6.475 -0.1077  0.1309  0.0557
 1158ERGO    C115657   4.342  16.679   6.826  0.0600  0.2584  0.0520
 1158ERGO    C215658   4.375  16.828   7.121 -0.0918 -0.0384  0.0118
 1159ERGO   ROH15659  14.483   4.417   9.485 -0.1775 -0.2387  0.1013
 1159ERGO    R115660  14.579   4.552   9.255 -0.1778 -0.0836  0.1902
 1159ERGO    R215661  14.778   4.448   9.093 -0.0441  0.1121  0.2237
 1159ERGO    R315662  14.594   4.486   8.897  0.0041  0.0654  0.1691
 1159ERGO    R415663  14.841   4.419   8.755  0.0710  0.1617  0.2404
 1159ERGO    R515664  14.715   4.594   8.722  0.0220  0.1212  0.2160
 1159ERGO    C115665  14.704   4.439   8.373  0.1834  0.1468  0.1988
 1159ERGO    C215666  14.627   4.240   8.100  0.2341 -0.1883  0.3930
 1160ERGO   ROH15667   6.401   7.979  10.004 -0.1906 -0.1629  0.0893
 1160ERGO    R115668   6.497   7.932   9.742 -0.1339 -0.0991  0.0989
 1160ERGO    R215669   6.440   7.700   9.602 -0.1843 -0.0225 -0.0058
 1160ERGO    R315670   6.351   7.875   9.414 -0.0619  0.0843  0.0335
 1160ERGO    R415671   6.433   7.640   9.262 -0.4141 -0.0199 -0.0035
 1160ERGO    R515672   6.498   7.844   9.228 -0.1820 -0.0960 -0.0348
 1160ERGO    C115673   6.345   7.769   8.887 -0.4329  0.0820  0.0346
 1160ERGO    C215674   6.345   7.701   8.432 -0.0887 -0.0832 -0.1688
 1161ERGO   ROH15675   1.696  11.650   9.687 -0.0982 -0.1626 -0.0439
 1161ERGO    R115676   1.598  11.632   9.422  0.0206 -0.0716 -0.0956
 1161ERGO    R215677   1.689  11.794   9.218  0.1015  0.0116  0.0030
 1161ERGO    R315678   1.735  11.556   9.093  0.1734  0.0596 -0.0627
 1161ERGO    R415679   1.750  11.756   8.879 -0.1421  0.0953 -0.0519
 1161ERGO    R515680   1.625  11.578   8.882 -0.0119  0.0056  0.0277
 1161ERGO    C115681   1.828  11.512   8.566 -0.2164  0.1889 -0.1454
 1161ERGO    C215682   2.048  11.480   8.179 -0.0064 -0.3723  0.0103
 1162ERGO   ROH15683  18.610   3.617   9.929  0.0801 -0.3503 -0.0651
 1162ERGO    R115684  18.666   3.772   9.699 -0.1739 -0.1558 -0.0021
 1162ERGO    R215685  18.897   3.741   9.550 -0.1018  0.2978 -0.0153
 1162ERGO    R315686  18.722   3.709   9.345 -0.0516  0.0770 -0.0239
 1162ERGO    R415687  18.934   3.878   9.235 -0.1183  0.0805 -0.1120
 1162ERGO    R515688  18.720   3.920   9.234 -0.1278 -0.0117 -0.1809
 1162ERGO    C115689  18.790   3.927   8.859 -0.0809 -0.2534 -0.1762
 1162ERGO    C215690  18.838   3.866   8.583 -0.0855 -0.0855  0.2370
 1163ERGO   ROH15691   6.118  16.167   9.453 -0.0546  0.2122 -0.1711
 1163ERGO    R115692   6.264  16.149   9.211 -0.2678  0.2879 -0.3072
 1163ERGO    R215693   6.421  15.931   9.148 -0.0269  0.4739 -0.3407
 1163ERGO    R315694   6.270  15.928   8.922 -0.2472  0.1411 -0.1979
 1163ERGO    R415695   6.463  15.710   8.886  0.1537  0.4866 -0.3247
 1163ERGO    R515696   6.425  15.874   8.748 -0.2961  0.3998 -0.3330
 1163ERGO    C115697   6.345  15.579   8.521  0.0520  0.1816 -0.1814
 1163ERGO    C215698   6.230  15.424   8.191  0.1818 -0.2133 -0.1781
 1164ERGO   ROH15699  14.076  13.462   6.071 -0.2103 -0.0041 -0.0839
 1164ERGO    R115700  14.158  13.655   6.261 -0.1202  0.1059 -0.2319
 1164ERGO    R215701  14.080  13.920   6.248 -0.3690  0.0381 -0.1855
 1164ERGO    R315702  13.996  13.875   6.502  0.0087  0.0133 -0.0590
 1164ERGO    R415703  13.914  14.150   6.445 -0.2295 -0.0385  0.0242
 1164ERGO    R515704  14.033  14.083   6.615  0.0475  0.0449 -0.1301
 1164ERGO    C115705  13.739  14.242   6.799  0.2062 -0.1065  0.2651
 1164ERGO    C215706  13.414  14.169   7.032 -0.0497  0.3254  0.2032
 1165ERGO   ROH15707   2.833  12.689   9.914  0.1458  0.1070  0.0029
 1165ERGO    R115708   2.731  12.673   9.650  0.0785  0.3059  0.0158
 1165ERGO    R215709   2.826  12.829   9.443  0.3676  0.1175  0.0059
 1165ERGO    R315710   2.861  12.589   9.321 -0.1235  0.0395 -0.0009
 1165ERGO    R415711   2.833  12.781   9.101  0.6106  0.1858 -0.0015
 1165ERGO    R515712   2.717  12.598   9.130  0.0927  0.4639 -0.1598
 1165ERGO    C115713   2.869  12.527   8.787  0.2912  0.1524 -0.0122
 1165ERGO    C215714   3.027  12.547   8.459 -0.4137 -0.2590  0.0618
 1166ERGO   ROH15715  17.721  15.584   9.299 -0.1293 -0.0094  0.0946
 1166ERGO    R115716  17.776  15.466   9.047  0.0159  0.0181  0.1137
 1166ERGO    R215717  17.658  15.552   8.813 -0.0075 -0.0933  0.0878
 1166ERGO    R315718  17.915  15.575   8.729 -0.0080  0.1079  0.1328
 1166ERGO    R415719  17.761  15.540   8.483  0.0550 -0.0041  0.1029
 1166ERGO    R515720  17.932  15.422   8.546  0.1386  0.1234  0.1291
 1166ERGO    C115721  18.062  15.554   8.213  0.0909  0.2368  0.1539
 1166ERGO    C215722  18.088  15.511   7.864 -0.0047  0.1882  0.1869
 1167ERGO   ROH15723  11.327   3.526   9.861 -0.0670  0.2063  0.0353
 1167ERGO    R115724  11.220   3.570   9.603 -0.0558  0.2752  0.0423
 1167ERGO    R215725  11.250   3.809   9.468  0.1701  0.2261  0.0019
 1167ERGO    R315726  11.350   3.650   9.272 -0.0156  0.0926  0.0131
 1167ERGO    R415727  11.284   3.902   9.137  0.2961  0.1710 -0.0010
 1167ERGO    R515728  11.217   3.703   9.079  0.0536  0.2468  0.0058
 1167ERGO    C115729  11.399   3.806   8.760  0.1952  0.0137  0.0079
 1167ERGO    C215730  11.411   3.824   8.337 -0.3545  0.1364  0.1045
 1168ERGO   ROH15731  11.253   7.533   9.579  0.3524  0.1093 -0.0838
 1168ERGO    R115732  11.162   7.658   9.341  0.2321  0.0582 -0.0658
 1168ERGO    R215733  11.333   7.738   9.140  0.1391  0.0867 -0.1381
 1168ERGO    R315734  11.170   7.585   8.985  0.1273  0.0215 -0.0605
 1168ERGO    R415735  11.359   7.706   8.796  0.0915 -0.0349 -0.1302
 1168ERGO    R515736  11.141   7.713   8.784  0.0909 -0.0533 -0.1018
 1168ERGO    C115737  11.221   7.545   8.451  0.0528 -0.1670 -0.0528
 1168ERGO    C215738  11.250   7.516   8.083 -0.1585  0.0036  0.1961
 1169ERGO   ROH15739  10.127  17.470   9.664 -0.2303 -0.0086 -0.0817
 1169ERGO    R115740  10.214  17.626   9.444  0.0268 -0.0348 -0.0020
 1169ERGO    R215741  10.374  17.523   9.243 -0.1514 -0.2042 -0.0627
 1169ERGO    R315742  10.176  17.616   9.082 -0.0074  0.2211 -0.0060
 1169ERGO    R415743  10.416  17.615   8.912 -0.0802 -0.4428 -0.1225
 1169ERGO    R515744  10.283  17.784   8.948  0.3482 -0.0902 -0.1277
 1169ERGO    C115745  10.254  17.757   8.569  0.0966 -0.1823 -0.1041
 1169ERGO    C215746  10.164  17.949   8.293 -0.2543  0.1644 -0.1031
 1170ERGO   ROH15747   0.295  14.497   6.025  0.0276  0.0710 -0.0705
 1170ERGO    R115748   0.163  14.498   6.276  0.0067  0.2514 -0.0798
 1170ERGO    R215749   0.164  14.279   6.445 -0.3686  0.2182 -0.1091
 1170ERGO    R315750   0.260  14.459   6.625 -0.0795  0.0387 -0.0793
 1170ERGO    R415751   0.160  14.237   6.788 -0.2787  0.0995 -0.1226
 1170ERGO    R515752   0.106  14.447   6.808 -0.0187  0.1565 -0.0226
 1170ERGO    C115753   0.247  14.381   7.157  0.0450 -0.1381 -0.1026
 1170ERGO    C215754   0.211  14.302   7.480 -0.3301  0.1760 -0.0394
 1171ERGO   ROH15755   0.954  14.792   9.655 -0.3430  0.2042 -0.0344
 1171ERGO    R115756   1.086  14.817   9.406 -0.1982  0.2275  0.0430
 1171ERGO    R215757   1.055  14.633   9.201  0.0509  0.1524  0.0625
 1171ERGO    R315758   0.989  14.854   9.057 -0.0031  0.0771 -0.0276
 1171ERGO    R415759   1.121  14.678   8.865  0.0571  0.0530  0.0509
 1171ERGO    R515760   1.172  14.885   8.907 -0.0084  0.0784 -0.0262
 1171ERGO    C115761   1.096  14.910   8.534  0.0099 -0.0756 -0.0403
 1171ERGO    C215762   1.244  14.958   8.161 -0.1603  0.1426 -0.2340
 1172ERGO   ROH15763  12.957  18.138   8.876  0.2213 -0.3093  0.0539
 1172ERGO    R115764  12.871  18.047   8.621  0.1652 -0.2263  0.0436
 1172ERGO    R215765  12.872  18.209   8.398  0.2179 -0.1859  0.0759
 1172ERGO    R315766  13.019  18.007   8.291  0.1241 -0.2288  0.0247
 1172ERGO    R415767  12.907  18.147   8.060  0.1716 -0.1251  0.0591
 1172ERGO    R515768  12.892  17.934   8.102  0.0793 -0.1307  0.0138
 1172ERGO    C115769  13.066  17.921   7.763  0.0566 -0.1300  0.0012
 1172ERGO    C215770  13.167  17.895   7.397 -0.2976  0.1359 -0.0633
 1173ERGO   ROH15771   9.169  12.185   6.078  0.2645 -0.0658  0.1168
 1173ERGO    R115772   9.075  12.141   6.342  0.1118  0.0199  0.0774
 1173ERGO    R215773   9.225  12.201   6.566  0.0285 -0.0155  0.1438
 1173ERGO    R315774   9.006  12.345   6.635  0.0606  0.0991  0.0104
 1173ERGO    R415775   9.137  12.285   6.889 -0.2108 -0.1074  0.1049
 1173ERGO    R515776   8.930  12.245   6.838 -0.1933  0.0547 -0.1034
 1173ERGO    C115777   8.880  12.470   7.142 -0.3199 -0.0532 -0.0431
 1173ERGO    C215778   8.591  12.448   7.375  0.0063 -0.2378 -0.0199
 1174ERGO   ROH15779   2.767   6.983   6.483 -0.0343 -0.1394 -0.0031
 1174ERGO    R115780   2.879   7.014   6.741  0.0782 -0.2375 -0.0389
 1174ERGO    R215781   2.733   7.107   6.956  0.2713  0.0586 -0.0298
 1174ERGO    R315782   2.820   6.878   7.073 -0.0602 -0.0489  0.0159
 1174ERGO    R415783   2.704   7.035   7.293  0.1793  0.1765 -0.0116
 1174ERGO    R515784   2.905   6.948   7.286  0.0566 -0.1235 -0.0043
 1174ERGO    C115785   2.769   6.777   7.599 -0.1855  0.1442  0.0419
 1174ERGO    C215786   3.017   6.675   7.920  0.1745 -0.0694 -0.2423
 1175ERGO   ROH15787  17.139  11.841   6.391 -0.1400  0.2566 -0.1560
 1175ERGO    R115788  17.232  11.932   6.642 -0.0238  0.0806 -0.1342
 1175ERGO    R215789  17.400  12.150   6.668 -0.1054  0.1321 -0.0520
 1175ERGO    R315790  17.207  12.237   6.840 -0.0376 -0.0991  0.1479
 1175ERGO    R415791  17.456  12.358   6.938 -0.0868  0.3083 -0.1900
 1175ERGO    R515792  17.315  12.238   7.054  0.2240  0.1302  0.0234
 1175ERGO    C115793  17.308  12.561   7.256 -0.0121  0.1939 -0.0828
 1175ERGO    C215794  17.212  12.769   7.646 -0.0316 -0.3010 -0.1918
 1176ERGO   ROH15795  13.981  18.070   9.191 -0.1201 -0.2652 -0.1445
 1176ERGO    R115796  13.978  18.008   8.915 -0.2078 -0.1727 -0.1647
 1176ERGO    R215797  13.756  18.050   8.755 -0.1951  0.0601 -0.1213
 1176ERGO    R315798  13.933  18.190   8.603 -0.1013 -0.0336 -0.1000
 1176ERGO    R415799  13.761  18.054   8.409 -0.2190  0.1367 -0.1209
 1176ERGO    R515800  13.978  18.047   8.417 -0.2209 -0.0257 -0.1372
 1176ERGO    C115801  13.929  18.188   8.066 -0.1450  0.0935 -0.1008
 1176ERGO    C215802  13.919  18.182   7.682  0.0145 -0.2414  0.1851
 1177ERGO   ROH15803   1.296   1.351   9.452  0.0054  0.1143 -0.0641
 1177ERGO    R115804   1.181   1.194   9.247 -0.0048  0.0511 -0.0110
 1177ERGO    R215805   1.017   1.302   9.052 -0.1173 -0.0278  0.0340
 1177ERGO    R315806   1.195   1.184   8.883 -0.1247  0.0287 -0.0140
 1177ERGO    R415807   0.952   1.221   8.722 -0.0938  0.1466 -0.0151
 1177ERGO    R515808   1.061   1.034   8.752 -0.1306  0.1178 -0.1032
 1177ERGO    C115809   1.080   1.062   8.372 -0.0871  0.3013 -0.0887
 1177ERGO    C215810   0.900   0.984   8.191 -0.1606 -0.0610  0.0200
 1178ERGO   ROH15811   4.986  15.831   5.824 -0.1247 -0.1872  0.0678
 1178ERGO    R115812   4.984  15.908   6.097 -0.0835 -0.1442  0.0555
 1178ERGO    R215813   4.754  15.911   6.249 -0.0404 -0.2227  0.1174
 1178ERGO    R315814   4.900  15.753   6.415  0.0747 -0.1292  0.1063
 1178ERGO    R415815   4.706  15.885   6.590  0.2156  0.0050  0.1740
 1178ERGO    R515816   4.922  15.883   6.615  0.2398  0.0031  0.0088
 1178ERGO    C115817   4.816  15.723   6.945  0.4727  0.2254  0.1966
 1178ERGO    C215818   4.708  15.662   7.202  0.0801  0.0032  0.0234
 1179ERGO   ROH15819  18.233   0.540   6.009 -0.1634  0.0536  0.0904
 1179ERGO    R115820  18.373   0.639   6.234 -0.1097  0.0233  0.0708
 1179ERGO    R215821  18.250   0.791   6.430 -0.0234  0.1469  0.0313
 1179ERGO    R315822  18.351   0.601   6.596 -0.1455  0.1234  0.0790
 1179ERGO    R415823  18.229   0.797   6.775 -0.0036  0.2516  0.0309
 1179ERGO    R515824  18.434   0.723   6.784 -0.0550  0.1165  0.0425
 1179ERGO    C115825  18.312   0.622   7.131 -0.1070  0.2905  0.0754
 1179ERGO    C215826  18.039   0.595   7.417 -0.0346 -0.1417  0.5731
 1180ERGO   ROH15827   2.079  15.286   9.610  0.3344 -0.1029 -0.0469
 1180ERGO    R115828   2.152  15.189   9.354  0.2331 -0.0090 -0.1112
 1180ERGO    R215829   1.966  15.098   9.171  0.1723 -0.0427 -0.0245
 1180ERGO    R315830   2.085  15.279   9.008  0.0019  0.0446 -0.0561
 1180ERGO    R415831   1.978  15.075   8.827  0.1399 -0.0696 -0.0249
 1180ERGO    R515832   2.184  15.148   8.834  0.0884  0.1031 -0.0579
 1180ERGO    C115833   2.097  15.233   8.473 -0.0389 -0.0033 -0.0549
 1180ERGO    C215834   2.093  15.223   8.115  0.1781 -0.2096  0.0106
 1181ERGO   ROH15835  10.302   1.554   9.421 -0.3629  0.0765 -0.0145
 1181ERGO    R115836  10.274   1.483   9.148 -0.2509  0.0896 -0.0295
 1181ERGO    R215837  10.309   1.665   8.943 -0.1106  0.0841 -0.0073
 1181ERGO    R315838  10.486   1.480   8.853 -0.1125  0.0445  0.0681
 1181ERGO    R415839  10.408   1.630   8.613  0.0027  0.0565  0.0288
 1181ERGO    R515840  10.400   1.414   8.639 -0.0502  0.0548  0.0361
 1181ERGO    C115841  10.632   1.436   8.337  0.0668  0.0032  0.1207
 1181ERGO    C215842  10.637   1.665   8.098  0.2119  0.2592  0.2798
 1182ERGO   ROH15843   3.879  10.258   6.376 -0.1129 -0.0020  0.0605
 1182ERGO    R115844   4.000  10.370   6.606  0.0148 -0.0309  0.0074
 1182ERGO    R215845   3.939  10.286   6.862 -0.0174  0.0945  0.0399
 1182ERGO    R315846   4.208  10.250   6.879 -0.0383 -0.1208  0.0108
 1182ERGO    R415847   4.126  10.333   7.149  0.0484 -0.0590  0.0241
 1182ERGO    R515848   4.281  10.424   7.027  0.1141 -0.1770  0.0080
 1182ERGO    C115849   4.487  10.326   7.333  0.0670 -0.3504 -0.0124
 1182ERGO    C215850   4.425  10.303   7.720 -0.1462 -0.0635  0.2619
 1183ERGO   ROH15851  11.093  13.398   9.474 -0.0116  0.0305  0.0774
 1183ERGO    R115852  11.084  13.378   9.192  0.0319  0.0305  0.0765
 1183ERGO    R215853  11.286  13.472   9.029  0.0711 -0.0032  0.1118
 1183ERGO    R315854  11.282  13.218   8.932  0.0485 -0.0018  0.1074
 1183ERGO    R415855  11.402  13.377   8.717  0.0431  0.0031  0.0989
 1183ERGO    R515856  11.230  13.244   8.699  0.0304  0.0109  0.1095
 1183ERGO    C115857  11.465  13.084   8.444  0.0055  0.0080  0.0872
 1183ERGO    C215858  11.652  13.102   8.222  0.0138  0.0381 -0.2381
 1184ERGO   ROH15859  16.534   7.409   9.861 -0.0856  0.0003 -0.1935
 1184ERGO    R115860  16.768   7.365   9.707 -0.0145  0.0987 -0.1197
 1184ERGO    R215861  16.760   7.264   9.449  0.1209 -0.0374 -0.0864
 1184ERGO    R315862  16.904   7.488   9.393 -0.0438  0.0509 -0.1466
 1184ERGO    R415863  17.003   7.288   9.204  0.1328  0.0871 -0.0600
 1184ERGO    R515864  17.122   7.407   9.341  0.0193  0.2180 -0.0965
 1184ERGO    C115865  17.278   7.512   9.009 -0.0149  0.2425 -0.1010
 1184ERGO    C215866  17.253   7.596   8.638 -0.3658  0.2266  0.3401
 1185ERGO   ROH15867  11.043  15.679   9.259  0.3287  0.3886 -0.0050
 1185ERGO    R115868  11.117  15.632   8.990  0.1340  0.1699 -0.0230
 1185ERGO    R215869  10.932  15.595   8.789 -0.0177  0.3184  0.0880
 1185ERGO    R315870  11.069  15.797   8.669  0.1873  0.0903 -0.0725
 1185ERGO    R415871  10.918  15.670   8.452 -0.0237  0.1328  0.0458
 1185ERGO    R515872  11.133  15.707   8.457  0.0245 -0.1142 -0.0388
 1185ERGO    C115873  11.039  15.903   8.143  0.1653 -0.1895 -0.1295
 1185ERGO    C215874  10.894  16.297   7.868  0.1795 -0.1013 -0.0320
 1186ERGO   ROH15875   3.922  12.272   6.412  0.0136 -0.2431 -0.0400
 1186ERGO    R115876   3.877  12.364   6.676  0.1134 -0.0949 -0.0735
 1186ERGO    R215877   3.627  12.366   6.794  0.1208  0.1649 -0.0493
 1186ERGO    R315878   3.753  12.224   6.988  0.0204  0.1376 -0.0047
 1186ERGO    R415879   3.642  12.457   7.127  0.1453  0.2314 -0.0690
 1186ERGO    R515880   3.850  12.391   7.130  0.1042  0.1122 -0.0348
 1186ERGO    C115881   3.770  12.377   7.503  0.0654  0.2444 -0.0387
 1186ERGO    C215882   3.934  12.537   7.884  0.1945  0.2870  0.1869
 1187ERGO   ROH15883  17.968   1.826   9.279 -0.2484  0.0022 -0.1553
 1187ERGO    R115884  18.056   1.774   9.015 -0.2357 -0.0146 -0.1464
 1187ERGO    R215885  17.937   1.889   8.794 -0.1210  0.0922 -0.1457
 1187ERGO    R315886  18.191   1.968   8.738 -0.0608 -0.0634 -0.0982
 1187ERGO    R415887  18.049   1.986   8.482 -0.1420  0.4938 -0.0349
 1187ERGO    R515888  18.235   1.878   8.521 -0.2279  0.2424 -0.2692
 1187ERGO    C115889  18.353   2.117   8.248 -0.0979  0.5817  0.0743
 1187ERGO    C215890  18.553   2.034   8.007  0.1033 -0.0168  0.1538
 1188ERGO   ROH15891  10.412   4.827   6.123 -0.1451 -0.0844 -0.2234
 1188ERGO    R115892  10.407   4.827   6.406 -0.0886 -0.0291 -0.2216
 1188ERGO    R215893  10.175   4.867   6.550 -0.0520  0.0533 -0.1812
 1188ERGO    R315894  10.245   4.632   6.667 -0.0832  0.0585 -0.1532
 1188ERGO    R415895  10.095   4.776   6.874  0.0971  0.1803 -0.1081
 1188ERGO    R515896  10.295   4.691   6.894  0.0725  0.1032 -0.1992
 1188ERGO    C115897  10.115   4.503   7.173  0.1549  0.2592 -0.0393
 1188ERGO    C215898  10.033   4.281   7.384 -0.3717  0.0791 -0.2682
 1189ERGO   ROH15899  15.122   2.193   9.012  0.0848 -0.2048 -0.0456
 1189ERGO    R115900  15.162   2.239   8.736  0.0780 -0.2138 -0.0479
 1189ERGO    R215901  15.203   2.034   8.555 -0.1105 -0.2315 -0.0700
 1189ERGO    R315902  14.993   2.150   8.426 -0.0406 -0.0574 -0.0302
 1189ERGO    R415903  15.153   2.027   8.213  0.0062  0.1098 -0.0971
 1189ERGO    R515904  15.088   2.235   8.223  0.0503  0.1185  0.0824
 1189ERGO    C115905  14.928   2.132   7.892  0.1396  0.4720 -0.0754
 1189ERGO    C215906  14.829   2.150   7.575 -0.1999  0.0380  0.0392
 1190ERGO   ROH15907  18.270  17.464   8.365  0.1497 -0.1607  0.1838
 1190ERGO    R115908  18.394  17.491   8.112  0.1577 -0.0921  0.1947
 1190ERGO    R215909  18.253  17.477   7.874  0.1787 -0.1214  0.1836
 1190ERGO    R315910  18.371  17.718   7.828  0.0949 -0.0739  0.2142
 1190ERGO    R415911  18.219  17.662   7.584  0.1370 -0.1093  0.1960
 1190ERGO    R515912  18.431  17.711   7.596  0.1181 -0.0325  0.2190
 1190ERGO    C115913  18.311  17.995   7.371  0.0340 -0.0578  0.2320
 1190ERGO    C215914  18.324  18.288   7.103  0.1791 -0.0627  0.1286
 1191ERGO   ROH15915  17.232   0.631   5.896 -0.0415  0.2468 -0.0941
 1191ERGO    R115916  17.178   0.556   6.163 -0.0398  0.0753 -0.1404
 1191ERGO    R215917  17.378   0.497   6.345 -0.0339  0.0531 -0.1516
 1191ERGO    R315918  17.253   0.686   6.495 -0.1255 -0.0788 -0.0599
 1191ERGO    R415919  17.398   0.520   6.689  0.2905  0.1420 -0.1730
 1191ERGO    R515920  17.185   0.569   6.693  0.2270 -0.1314  0.0354
 1191ERGO    C115921  17.292   0.711   7.030  0.3934  0.0699 -0.0993
 1191ERGO    C215922  17.219   0.898   7.268  0.1881  0.2503 -0.4970
 1192ERGO   ROH15923   1.910   3.721   6.260 -0.1801  0.1647  0.0968
 1192ERGO    R115924   2.051   3.841   6.474 -0.0606  0.1301  0.0386
 1192ERGO    R215925   1.978   4.084   6.583 -0.0931  0.0438  0.2188
 1192ERGO    R315926   1.977   3.943   6.815  0.1701 -0.0737  0.1525
 1192ERGO    R415927   2.128   4.188   6.876 -0.3246  0.2079  0.2814
 1192ERGO    R515928   2.194   3.983   6.909  0.0888  0.3201  0.1879
 1192ERGO    C115929   2.214   4.117   7.265 -0.2123  0.1931  0.2556
 1192ERGO    C215930   2.250   4.257   7.554  0.2546 -0.2086 -0.2496
 1193ERGO   ROH15931  15.886  10.402   6.573  0.0963 -0.2312  0.0393
 1193ERGO    R115932  15.971  10.356   6.839 -0.0199 -0.1050  0.0999
 1193ERGO    R215933  16.101  10.548   6.989  0.0971 -0.0986 -0.0050
 1193ERGO    R315934  15.902  10.497   7.167 -0.0000  0.1993 -0.0242
 1193ERGO    R415935  16.094  10.661   7.315  0.2666 -0.1437  0.0149
 1193ERGO    R515936  16.015  10.467   7.376 -0.0591 -0.0259 -0.0236
 1193ERGO    C115937  15.903  10.680   7.672  0.2739  0.1098  0.0085
 1193ERGO    C215938  15.869  10.723   7.932  0.2340  0.0131 -0.0991
 1194ERGO   ROH15939   2.855   0.617   6.273  0.3328  0.3113 -0.2059
 1194ERGO    R115940   2.929   0.758   6.507  0.3931  0.3560 -0.2515
 1194ERGO    R215941   2.908   0.647   6.759  0.0159  0.5646 -0.1834
 1194ERGO    R315942   3.171   0.715   6.776  0.1261  0.1347 -0.0410
 1194ERGO    R415943   3.059   0.787   7.037  0.0694  0.4423 -0.1498
 1194ERGO    R515944   3.172   0.917   6.904  0.3796  0.1957 -0.1359
 1194ERGO    C115945   3.393   0.932   7.214  0.2040 -0.0325  0.0035
 1194ERGO    C215946   3.417   0.868   7.532  0.0179 -0.2608  0.2726
 1195ERGO   ROH15947  11.334  18.056   9.112 -0.2508  0.1486  0.0003
 1195ERGO    R115948  11.383  18.011   8.836 -0.0251  0.2856  0.0159
 1195ERGO    R215949  11.225  17.845   8.682  0.2282  0.1914 -0.1473
 1195ERGO    R315950  11.205  18.065   8.524  0.1327  0.2280 -0.0856
 1195ERGO    R415951  11.242  17.843   8.337  0.1240  0.2817 -0.1535
 1195ERGO    R515952  11.360  18.025   8.346  0.0882  0.3055 -0.1433
 1195ERGO    C115953  11.233  18.048   7.987 -0.0262  0.3686 -0.0994
 1195ERGO    C215954  11.212  17.910   7.652  0.1006  0.0449  0.0234
 1196ERGO   ROH15955   1.174  12.418   6.252 -0.0394 -0.1056  0.0373
 1196ERGO    R115956   1.292  12.361   6.503  0.0977  0.1760  0.0436
 1196ERGO    R215957   1.309  12.548   6.706 -0.1210  0.3046 -0.0380
 1196ERGO    R315958   1.184  12.355   6.851  0.1724  0.1901  0.0639
 1196ERGO    R415959   1.287  12.542   7.051  0.0108  0.3579 -0.0304
 1196ERGO    R515960   1.322  12.327   7.044  0.2713  0.4063  0.0170
 1196ERGO    C115961   1.158  12.358   7.387  0.3630  0.2815  0.0697
 1196ERGO    C215962   1.171  12.572   7.680  0.0216  0.4813 -0.3881
 1197ERGO   ROH15963  12.918   7.851   6.016  0.3117  0.0488 -0.1122
 1197ERGO    R115964  12.916   7.725   6.270  0.1771  0.0264 -0.1252
 1197ERGO    R215965  13.147   7.659   6.405  0.1028 -0.0191 -0.0277
 1197ERGO    R315966  13.032   7.803   6.606  0.0339 -0.0234 -0.0623
 1197ERGO    R415967  13.257   7.663   6.733  0.1134  0.1221 -0.0310
 1197ERGO    R515968  13.048   7.660   6.797  0.1134  0.0321 -0.0241
 1197ERGO    C115969  13.213   7.799   7.112  0.0551  0.2002 -0.0655
 1197ERGO    C215970  13.370   7.834   7.322  0.1470 -0.0179 -0.0659
 1198ERGO   ROH15971  13.277   0.406   9.108 -0.2617  0.1580 -0.1058
 1198ERGO    R115972  13.421   0.449   8.868 -0.1970  0.1418 -0.0710
 1198ERGO    R215973  13.394   0.285   8.647 -0.0048  0.0189 -0.0103
 1198ERGO    R315974  13.341   0.520   8.520 -0.1134 -0.0728 -0.1345
 1198ERGO    R415975  13.456   0.346   8.313  0.1037 -0.0762 -0.0075
 1198ERGO    R515976  13.523   0.547   8.367 -0.0646 -0.0066 -0.0616
 1198ERGO    C115977  13.442   0.602   7.998  0.0649 -0.2176 -0.1224
 1198ERGO    C215978  13.602   0.543   7.708 -0.3439 -0.0071 -0.0488
 1199ERGO   ROH15979   6.153   8.408   6.567  0.1488 -0.0394 -0.0157
 1199ERGO    R115980   6.262   8.548   6.787  0.1019  0.0210 -0.0294
 1199ERGO    R215981   6.292   8.823   6.790 -0.0014  0.0370 -0.0526
 1199ERGO    R315982   6.149   8.803   7.021  0.0088 -0.0021 -0.0507
 1199ERGO    R415983   6.282   9.062   7.040 -0.0710  0.0315 -0.0511
 1199ERGO    R515984   6.288   8.903   7.187 -0.0226  0.0378 -0.0529
 1199ERGO    C115985   6.142   9.182   7.401 -0.1018 -0.0082 -0.0483
 1199ERGO    C215986   6.204   9.312   7.729  0.1517  0.1390 -0.4011
 1200ERGO   ROH15987  10.432  11.208   6.239 -0.2769 -0.0916 -0.1001
 1200ERGO    R115988  10.462  11.249   6.518 -0.2064 -0.0016 -0.1205
 1200ERGO    R215989  10.259  11.351   6.676 -0.2280 -0.1190 -0.0722
 1200ERGO    R315990  10.304  11.126   6.821 -0.0018 -0.0511 -0.0323
 1200ERGO    R415991  10.233  11.330   7.020 -0.3118 -0.1105 -0.0776
 1200ERGO    R515992  10.411  11.204   7.020 -0.1579  0.1029 -0.0064
 1200ERGO    C115993  10.260  11.106   7.357 -0.1482 -0.0416 -0.0433
 1200ERGO    C215994  10.002  11.094   7.637 -0.3249  0.2062 -0.0298
 1201ERGO   ROH15995  10.096   6.025   6.088 -0.1532  0.0080  0.1157
 1201ERGO    R115996  10.053   6.091   6.360  0.0084  0.0430  0.1328
 1201ERGO    R215997  10.026   5.899   6.556 -0.0043  0.0686  0.1509
 1201ERGO    R315998  10.227   6.037   6.675  0.1251 -0.0359  0.0572
 1201ERGO    R415999  10.150   5.834   6.872 -0.1135  0.1960  0.2214
 1201ERGO    R516000  10.163   6.049   6.906  0.1026  0.2190  0.0443
 1201ERGO    C116001  10.412   5.925   7.168 -0.0557  0.1720  0.1745
 1201ERGO    C216002  10.663   5.828   7.533 -0.0942  0.0093 -0.0307
 1202ERGO   ROH16003   0.174  11.096  10.024 -0.0652  0.2134 -0.2595
 1202ERGO    R116004   0.233  10.893   9.835 -0.0418  0.1596 -0.1951
 1202ERGO    R216005   0.040  10.784   9.669 -0.0085  0.1588 -0.2345
 1202ERGO    R316006   0.215  10.855   9.474  0.0697  0.0820 -0.1925
 1202ERGO    R416007  -0.014  10.741   9.331  0.0117  0.2709 -0.2522
 1202ERGO    R516008   0.195  10.681   9.310 -0.0257  0.1319 -0.2337
 1202ERGO    C116009   0.119  10.782   8.950  0.0968  0.2640 -0.2230
 1202ERGO    C216010   0.142  10.649   8.555 -0.2071  0.0893 -0.1582
 1203ERGO   ROH16011   1.928  14.125   9.584 -0.3052  0.1655 -0.0708
 1203ERGO    R116012   2.096  14.054   9.368 -0.2533  0.0765 -0.0015
 1203ERGO    R216013   1.998  13.954   9.130 -0.2142  0.1876 -0.0636
 1203ERGO    R316014   2.140  14.159   9.022 -0.0096  0.1002  0.0350
 1203ERGO    R416015   2.071  13.989   8.794 -0.2437  0.3112 -0.0582
 1203ERGO    R516016   2.271  14.056   8.849 -0.1548  0.0596 -0.0535
 1203ERGO    C116017   2.248  14.201   8.497 -0.0687  0.3011  0.0374
 1203ERGO    C216018   2.151  14.219   8.090  0.1644 -0.2035  0.0666
 1204ERGO   ROH16019   8.991   4.468   9.917 -0.0036 -0.1044  0.0833
 1204ERGO    R116020   9.156   4.556   9.704  0.0471 -0.0582  0.1410
 1204ERGO    R216021   9.359   4.401   9.599  0.0235 -0.0659  0.1051
 1204ERGO    R316022   9.229   4.448   9.365  0.0659  0.0613  0.1066
 1204ERGO    R416023   9.506   4.387   9.286  0.0685  0.0590  0.1204
 1204ERGO    R516024   9.390   4.564   9.230  0.1023  0.1012  0.1847
 1204ERGO    C116025   9.470   4.424   8.884  0.1346  0.2511  0.1308
 1204ERGO    C216026   9.622   4.311   8.610  0.1379  0.0218  0.0740
 1205ERGO   ROH16027  15.998   4.540   6.395  0.0769 -0.0244 -0.0720
 1205ERGO    R116028  15.985   4.605   6.670  0.0254  0.0664 -0.0968
 1205ERGO    R216029  16.069   4.432   6.869 -0.0960  0.0996 -0.0237
 1205ERGO    R316030  16.221   4.644   6.944 -0.0375  0.0652 -0.0398
 1205ERGO    R416031  16.169   4.497   7.193  0.2975 -0.1624 -0.0854
 1205ERGO    R516032  16.132   4.709   7.157  0.2094 -0.1306  0.1358
 1205ERGO    C116033  16.371   4.733   7.453  0.5813 -0.3472 -0.1364
 1205ERGO    C216034  16.383   4.813   7.762 -0.0748  0.1726 -0.3924
 1206ERGO   ROH16035   0.866  16.836   9.166  0.0091 -0.2092 -0.0081
 1206ERGO    R116036   1.040  16.892   8.950 -0.0511 -0.0345 -0.0126
 1206ERGO    R216037   1.195  16.698   8.829  0.1628  0.1224  0.0021
 1206ERGO    R316038   1.074  16.788   8.603  0.0618 -0.0255 -0.0045
 1206ERGO    R416039   1.353  16.743   8.526  0.1330  0.3586  0.0197
 1206ERGO    R516040   1.239  16.927   8.499 -0.1150  0.2074  0.0202
 1206ERGO    C116041   1.333  16.854   8.136  0.0209  0.3571  0.0237
 1206ERGO    C216042   1.564  16.891   7.879 -0.1287 -0.0836 -0.1826
 1207ERGO   ROH16043   4.826   0.752   5.647 -0.1741 -0.2204  0.1776
 1207ERGO    R116044   4.746   0.649   5.898 -0.0552 -0.2232  0.2143
 1207ERGO    R216045   4.818   0.767   6.137 -0.0198 -0.1745  0.1748
 1207ERGO    R316046   4.549   0.766   6.181 -0.0051 -0.2668  0.2690
 1207ERGO    R416047   4.669   0.798   6.447  0.0817  0.1880  0.1926
 1207ERGO    R516048   4.524   0.646   6.387  0.1427  0.0097  0.4585
 1207ERGO    C116049   4.331   0.814   6.670  0.1546  0.3125  0.2914
 1207ERGO    C216050   4.447   0.937   6.942  0.1088 -0.1397 -0.1990
 1208ERGO   ROH16051   8.785  15.656   9.232  0.1416 -0.0334  0.0298
 1208ERGO    R116052   8.879  15.660   8.965  0.2973 -0.0268  0.0820
 1208ERGO    R216053   9.088  15.502   8.878  0.1393 -0.2734  0.1190
 1208ERGO    R316054   8.907  15.423   8.690  0.1243  0.0648 -0.0137
 1208ERGO    R416055   9.169  15.349   8.579  0.0642 -0.3706  0.1490
 1208ERGO    R516056   9.016  15.470   8.481  0.3384 -0.0916  0.0655
 1208ERGO    C116057   9.048  15.186   8.228  0.0065 -0.1096  0.0418
 1208ERGO    C216058   8.967  15.050   7.939 -0.0257  0.3875 -0.0828
 1209ERGO   ROH16059   8.296   4.835   9.708  0.1912  0.0311  0.1991
 1209ERGO    R116060   8.323   4.647   9.497  0.0683  0.1333  0.0910
 1209ERGO    R216061   8.203   4.683   9.251  0.1271  0.3750  0.0960
 1209ERGO    R316062   8.457   4.647   9.159  0.1113  0.2269  0.1070
 1209ERGO    R416063   8.288   4.638   8.919  0.1033  0.2273  0.1091
 1209ERGO    R516064   8.433   4.488   8.981  0.0348  0.1783  0.1585
 1209ERGO    C116065   8.574   4.579   8.639  0.0746  0.0022  0.1271
 1209ERGO    C216066   8.642   4.538   8.283 -0.0479  0.1945  0.0105
 1210ERGO   ROH16067   2.958   7.408  10.249  0.1618 -0.1366  0.1019
 1210ERGO    R116068   2.786   7.469  10.033  0.0754 -0.0670  0.1898
 1210ERGO    R216069   2.848   7.658   9.842  0.0329 -0.0591  0.1843
 1210ERGO    R316070   2.801   7.453   9.670 -0.0988 -0.0260  0.1796
 1210ERGO    R416071   2.905   7.668   9.501 -0.0781 -0.0461  0.1656
 1210ERGO    R516072   2.719   7.559   9.471 -0.1282  0.0230  0.2174
 1210ERGO    C116073   2.894   7.482   9.141 -0.2664 -0.0075  0.1503
 1210ERGO    C216074   2.882   7.505   8.797  0.1693 -0.1405 -0.0497
 1211ERGO   ROH16075  10.537   2.814   6.146 -0.2702  0.0352  0.1018
 1211ERGO    R116076  10.597   2.663   6.378 -0.2073  0.0201  0.0760
 1211ERGO    R216077  10.852   2.647   6.484 -0.1577 -0.0778 -0.0586
 1211ERGO    R316078  10.728   2.731   6.711 -0.0034 -0.0206  0.0062
 1211ERGO    R416079  10.997   2.656   6.798  0.0130 -0.1431 -0.1347
 1211ERGO    R516080  10.809   2.585   6.881  0.0214 -0.0591 -0.0364
 1211ERGO    C116081  10.965   2.740   7.193  0.2573 -0.1275 -0.1181
 1211ERGO    C216082  10.989   2.672   7.470  0.1444 -0.0410 -0.0494
 1212ERGO   ROH16083   4.402   8.003   9.817  0.0859  0.0235 -0.0450
 1212ERGO    R116084   4.340   7.877   9.571  0.2669 -0.0110 -0.0736
 1212ERGO    R216085   4.111   7.933   9.429  0.1404 -0.3681 -0.0184
 1212ERGO    R316086   4.286   7.982   9.227  0.0283  0.0037 -0.0332
 1212ERGO    R416087   4.039   7.897   9.092  0.1721 -0.4761 -0.0142
 1212ERGO    R516088   4.238   7.812   9.064  0.3458 -0.0812 -0.0453
 1212ERGO    C116089   4.162   7.922   8.707  0.0854 -0.1901 -0.0257
 1212ERGO    C216090   4.127   7.856   8.367 -0.0625 -0.0863 -0.0659
 1213ERGO   ROH16091   7.350   9.197   6.359 -0.1029 -0.0308  0.0471
 1213ERGO    R116092   7.325   9.344   6.600 -0.1697 -0.1420  0.1069
 1213ERGO    R216093   7.260   9.225   6.840  0.2511 -0.3326  0.1257
 1213ERGO    R316094   7.487   9.348   6.926  0.1046  0.0662 -0.0246
 1213ERGO    R416095   7.299   9.373   7.150  0.2267 -0.4024  0.1639
 1213ERGO    R516096   7.409   9.535   7.053 -0.1592 -0.1324  0.1312
 1213ERGO    C116097   7.536   9.574   7.410  0.0750 -0.0687  0.0451
 1213ERGO    C216098   7.703   9.496   7.666 -0.2170  0.3740  0.1077
 1214ERGO   ROH16099   2.740  11.692   9.753 -0.1415  0.0832 -0.0587
 1214ERGO    R116100   2.758  11.582   9.492  0.1314  0.0644 -0.0350
 1214ERGO    R216101   2.589  11.658   9.287  0.0606 -0.2612 -0.1019
 1214ERGO    R316102   2.823  11.707   9.157  0.0244  0.1203 -0.0357
 1214ERGO    R416103   2.669  11.538   8.973  0.3999 -0.2525 -0.0222
 1214ERGO    R516104   2.872  11.502   9.044  0.4501  0.1557  0.0692
 1214ERGO    C116105   2.935  11.513   8.668  0.5636  0.1107  0.0865
 1214ERGO    C216106   3.238  11.576   8.378  0.0896 -0.3413  0.1579
 1215ERGO   ROH16107  11.164   5.905   9.857  0.0385  0.2767  0.0152
 1215ERGO    R116108  11.125   5.999   9.593  0.1869  0.2857 -0.0042
 1215ERGO    R216109  11.291   6.186   9.476  0.5235 -0.0433 -0.0656
 1215ERGO    R316110  11.311   5.997   9.281  0.1612 -0.1355 -0.0229
 1215ERGO    R416111  11.307   6.253   9.137  0.4938 -0.1617 -0.0913
 1215ERGO    R516112  11.177   6.082   9.102  0.2155  0.0216  0.0071
 1215ERGO    C116113  11.336   6.115   8.757  0.1363 -0.3172 -0.0663
 1215ERGO    C216114  11.271   6.254   8.447  0.2583 -0.0916 -0.0764
 1216ERGO   ROH16115  17.833  11.880   9.682 -0.0008  0.1281  0.0396
 1216ERGO    R116116  17.755  11.941   9.417  0.0579  0.1764  0.0314
 1216ERGO    R216117  17.935  11.947   9.207  0.0922  0.1102  0.0463
 1216ERGO    R316118  17.760  11.772   9.094  0.0286  0.1875  0.0283
 1216ERGO    R416119  17.896  11.900   8.867  0.0926  0.1168  0.0467
 1216ERGO    R516120  17.680  11.887   8.899  0.0934  0.2103  0.0241
 1216ERGO    C116121  17.709  11.709   8.563  0.0329  0.1933  0.0299
 1216ERGO    C216122  17.812  11.732   8.276  0.1673 -0.1166  0.1565
 1217ERGO   ROH16123   5.979  16.392   6.194 -0.2188 -0.0174 -0.2329
 1217ERGO    R116124   5.828  16.436   6.429 -0.0812  0.0049 -0.1479
 1217ERGO    R216125   5.802  16.246   6.627 -0.0534 -0.0156 -0.1648
 1217ERGO    R316126   5.893  16.446   6.787  0.1063 -0.0755 -0.1785
 1217ERGO    R416127   5.833  16.225   6.971 -0.1675  0.0156 -0.1519
 1217ERGO    R516128   5.759  16.429   6.985  0.0342  0.0961 -0.2108
 1217ERGO    C116129   5.937  16.400   7.321 -0.0839 -0.0227 -0.1572
 1217ERGO    C216130   6.038  16.234   7.597 -0.0150  0.1074 -0.2492
 1218ERGO   ROH16131  10.891   0.566   9.291 -0.0737 -0.0480  0.0729
 1218ERGO    R116132  10.846   0.647   9.024 -0.1481 -0.0318  0.0899
 1218ERGO    R216133  11.044   0.639   8.831 -0.2007 -0.0175  0.0352
 1218ERGO    R316134  10.861   0.491   8.695 -0.2362 -0.0110  0.0758
 1218ERGO    R416135  10.982   0.663   8.492 -0.2403 -0.0496  0.0400
 1218ERGO    R516136  10.770   0.643   8.534 -0.2379 -0.0185  0.0693
 1218ERGO    C116137  10.775   0.539   8.167 -0.2968 -0.0623  0.0808
 1218ERGO    C216138  10.598   0.678   7.859  0.0334  0.0046 -0.2232
 1219ERGO   ROH16139   0.977  16.186   5.989  0.1314 -0.0476  0.0048
 1219ERGO    R116140   1.065  16.205   6.257  0.0279 -0.0862  0.0418
 1219ERGO    R216141   1.170  16.438   6.363  0.0387 -0.1182  0.0983
 1219ERGO    R316142   0.977  16.401   6.551 -0.0457 -0.0862  0.0201
 1219ERGO    R416143   1.140  16.621   6.655 -0.0981 -0.0630  0.0514
 1219ERGO    R516144   1.090  16.437   6.759 -0.1405 -0.0440  0.0646
 1219ERGO    C116145   0.942  16.692   7.001 -0.2569 -0.0012 -0.0494
 1219ERGO    C216146   0.732  16.896   7.140 -0.1892  0.0186  0.2674
 1220ERGO   ROH16147  11.105  12.535   6.251  0.2709  0.0947 -0.1842
 1220ERGO    R116148  11.200  12.603   6.509  0.2431 -0.1499 -0.1066
 1220ERGO    R216149  11.127  12.837   6.637  0.5631 -0.0634 -0.0754
 1220ERGO    R316150  11.054  12.667   6.836  0.1601 -0.0113 -0.1695
 1220ERGO    R416151  11.092  12.927   6.969  0.2726 -0.0600 -0.1045
 1220ERGO    R516152  11.185  12.737   7.025  0.0186 -0.1624 -0.0111
 1220ERGO    C116153  11.002  12.819   7.349 -0.2751 -0.0092 -0.2098
 1220ERGO    C216154  10.911  12.810   7.706  0.0671 -0.2817  0.2176
 1221ERGO   ROH16155  14.932  15.797   8.500 -0.2962  0.1415 -0.1193
 1221ERGO    R116156  14.829  15.674   8.267 -0.1671 -0.0024 -0.1019
 1221ERGO    R216157  14.902  15.754   8.012 -0.1868 -0.0186 -0.1098
 1221ERGO    R316158  14.963  15.491   7.983  0.0160  0.0177 -0.0307
 1221ERGO    R416159  15.006  15.608   7.717 -0.1050 -0.0271 -0.0773
 1221ERGO    R516160  14.882  15.435   7.764  0.0322 -0.1134 -0.0070
 1221ERGO    C116161  15.126  15.276   7.518  0.1329  0.0019  0.0160
 1221ERGO    C216162  15.396  15.242   7.360 -0.2129  0.1246  0.2299
 1222ERGO   ROH16163  10.397   8.024   9.652 -0.0102 -0.0362 -0.2016
 1222ERGO    R116164  10.462   8.109   9.390 -0.0229 -0.1053 -0.2278
 1222ERGO    R216165  10.356   7.989   9.164 -0.2452  0.0067 -0.1884
 1222ERGO    R316166  10.282   8.244   9.103  0.0040  0.0901 -0.1540
 1222ERGO    R416167  10.300   8.108   8.844 -0.3212  0.0510 -0.1583
 1222ERGO    R516168  10.399   8.294   8.901 -0.0714 -0.0569 -0.2344
 1222ERGO    C116169  10.197   8.416   8.602 -0.1313  0.1551 -0.1084
 1222ERGO    C216170  10.138   8.473   8.344 -0.1980  0.0167  0.1744
 1223ERGO   ROH16171   6.558   0.734   9.455 -0.1480  0.0392  0.0108
 1223ERGO    R116172   6.632   0.766   9.184 -0.0392 -0.0476  0.0308
 1223ERGO    R216173   6.739   0.560   9.034 -0.1202 -0.1333  0.1006
 1223ERGO    R316174   6.535   0.621   8.864 -0.0235 -0.0326  0.0169
 1223ERGO    R416175   6.767   0.581   8.690  0.0373 -0.1765  0.1094
 1223ERGO    R516176   6.637   0.755   8.695  0.1266 -0.0978  0.0461
 1223ERGO    C116177   6.592   0.650   8.331  0.2199 -0.1071  0.0359
 1223ERGO    C216178   6.705   0.554   7.920 -0.0506  0.1870 -0.2457
 1224ERGO   ROH16179  11.354   3.256   6.079  0.1222 -0.1178  0.1849
 1224ERGO    R116180  11.474   3.389   6.298 -0.0849  0.0264  0.2120
 1224ERGO    R216181  11.329   3.542   6.477 -0.3043 -0.1315  0.1642
 1224ERGO    R316182  11.446   3.380   6.661 -0.1677  0.0103  0.2069
 1224ERGO    R416183  11.344   3.606   6.817 -0.3163  0.0010  0.1414
 1224ERGO    R516184  11.548   3.530   6.817 -0.2557  0.1432  0.1454
 1224ERGO    C116185  11.462   3.490   7.187 -0.1951  0.2113  0.1682
 1224ERGO    C216186  11.420   3.313   7.495  0.0420  0.0854  0.1556
 1225ERGO   ROH16187   8.596  18.610   9.384  0.1502 -0.0481  0.0056
 1225ERGO    R116188   8.631  18.633   9.104  0.1482 -0.0458  0.0057
 1225ERGO    R216189   8.672  18.415   8.941  0.1164 -0.0467  0.0002
 1225ERGO    R316190   8.459  18.516   8.806  0.1275 -0.0157  0.0055
 1225ERGO    R416191   8.611  18.368   8.604  0.2433  0.1834 -0.0567
 1225ERGO    R516192   8.547  18.576   8.591  0.1796  0.1734  0.0774
 1225ERGO    C116193   8.376  18.436   8.281  0.3276  0.3464 -0.0850
 1225ERGO    C216194   8.200  18.275   7.947 -0.3157  0.2576 -0.1278
 1226ERGO   ROH16195  18.539   9.539   6.246  0.0332  0.2560 -0.0052
 1226ERGO    R116196  18.434   9.546   6.509  0.0380  0.1400  0.0004
 1226ERGO    R216197  18.570   9.442   6.727  0.0818  0.1248 -0.0347
 1226ERGO    R316198  18.531   9.691   6.828 -0.0059  0.0810  0.0410
 1226ERGO    R416199  18.564   9.520   7.063 -0.1392 -0.0115 -0.0048
 1226ERGO    R516200  18.398   9.656   7.024 -0.1283 -0.0113 -0.0559
 1226ERGO    C116201  18.524   9.800   7.354 -0.3506 -0.1320  0.0837
 1226ERGO    C216202  18.579   9.988   7.598  0.1040 -0.1540  0.3952
 1227ERGO   ROH16203   7.729  13.416   6.141 -0.2076  0.1667  0.1561
 1227ERGO    R116204   7.817  13.408   6.409 -0.1122  0.1232  0.1242
 1227ERGO    R216205   8.081  13.367   6.478 -0.1126 -0.0640  0.0284
 1227ERGO    R316206   8.048  13.597   6.618  0.1053 -0.0266  0.0221
 1227ERGO    R416207   8.298  13.482   6.721 -0.0714 -0.3210  0.1169
 1227ERGO    R516208   8.125  13.543   6.839 -0.0441 -0.1207  0.0499
 1227ERGO    C116209   8.393  13.766   6.995  0.1572 -0.4354  0.1627
 1227ERGO    C216210   8.629  14.013   6.993  0.4840  0.3074  0.2282
 1228ERGO   ROH16211   8.292   9.111   6.311  0.0103  0.1275  0.1333
 1228ERGO    R116212   8.412   9.091   6.566  0.1128  0.0247  0.0779
 1228ERGO    R216213   8.306   8.936   6.769  0.0917  0.0900  0.1149
 1228ERGO    R316214   8.555   8.827   6.772  0.0151 -0.0925 -0.0028
 1228ERGO    R416215   8.427   8.726   7.015  0.0532  0.0047  0.0619
 1228ERGO    R516216   8.618   8.829   7.002  0.1256 -0.1339 -0.0307
 1228ERGO    C116217   8.731   8.502   7.161 -0.0411 -0.2162 -0.0794
 1228ERGO    C216218   8.674   8.116   7.258 -0.3383  0.3599  0.4034
 1229ERGO   ROH16219  18.384  10.387   9.869 -0.3308  0.0961  0.0417
 1229ERGO    R116220  18.517  10.421   9.621 -0.1324 -0.2124  0.1000
 1229ERGO    R216221  18.583  10.208   9.457 -0.6510 -0.3743  0.0856
 1229ERGO    R316222  18.444  10.351   9.271 -0.1967  0.0568  0.0569
 1229ERGO    R416223  18.574  10.138   9.119 -0.7376 -0.3051  0.0723
 1229ERGO    R516224  18.586  10.351   9.078 -0.1190 -0.3139  0.1051
 1229ERGO    C116225  18.440  10.230   8.748 -0.3614  0.1398  0.0378
 1229ERGO    C216226  18.468  10.363   8.344 -0.2447  0.1254 -0.1314
 1230ERGO   ROH16227   3.666   9.250   6.361 -0.1789 -0.0642  0.0044
 1230ERGO    R116228   3.546   9.316   6.609 -0.0364 -0.0270  0.0642
 1230ERGO    R216229   3.692   9.407   6.826  0.0645  0.2067 -0.0987
 1230ERGO    R316230   3.515   9.613   6.817 -0.1085  0.0622 -0.0721
 1230ERGO    R416231   3.623   9.620   7.089 -0.0592  0.1606 -0.0929
 1230ERGO    R516232   3.413   9.613   7.033 -0.0668 -0.0146 -0.0512
 1230ERGO    C116233   3.417   9.938   7.233 -0.2936 -0.0019 -0.0646
 1230ERGO    C216234   3.659  10.202   7.269  0.1221  0.0858  0.1815
 1231ERGO   ROH16235   5.816   7.785  10.024 -0.2178  0.1622 -0.0039
 1231ERGO    R116236   5.844   7.887   9.761 -0.1055  0.0029 -0.0581
 1231ERGO    R216237   6.002   7.765   9.570  0.0054 -0.1036  0.0814
 1231ERGO    R316238   5.773   7.771   9.424  0.0664 -0.2230 -0.0155
 1231ERGO    R416239   5.989   7.788   9.226  0.1215  0.1074  0.0916
 1231ERGO    R516240   5.821   7.925   9.246 -0.0086 -0.0699  0.1066
 1231ERGO    C116241   5.766   7.808   8.888  0.2464  0.1180  0.0066
 1231ERGO    C216242   5.690   7.751   8.556  0.0957  0.2050 -0.2266
 1232ERGO   ROH16243  11.427  12.264   6.403  0.0126 -0.1707 -0.1053
 1232ERGO    R116244  11.365  12.242   6.678 -0.1303 -0.1003 -0.1302
 1232ERGO    R216245  11.421  12.015   6.826 -0.1849 -0.0569 -0.0349
 1232ERGO    R316246  11.550  12.191   6.987 -0.2858  0.0028 -0.0200
 1232ERGO    R416247  11.490  11.963   7.161 -0.1871 -0.0228 -0.0297
 1232ERGO    R516248  11.439  12.171   7.199 -0.2911 -0.0519 -0.0311
 1232ERGO    C116249  11.652  12.099   7.507 -0.2831  0.0529 -0.0126
 1232ERGO    C216250  11.863  12.058   7.681  0.2194  0.0656 -0.3118
 1233ERGO   ROH16251   9.310  15.799   9.447 -0.0411  0.5551  0.0473
 1233ERGO    R116252   9.259  15.762   9.171 -0.0533  0.2711  0.0842
 1233ERGO    R216253   9.195  15.971   9.002 -0.0320  0.1052 -0.1370
 1233ERGO    R316254   9.404  15.876   8.857 -0.0471 -0.0750 -0.0419
 1233ERGO    R416255   9.267  16.061   8.676  0.2962  0.1792 -0.0484
 1233ERGO    R516256   9.317  15.852   8.635  0.0735  0.1372 -0.1130
 1233ERGO    C116257   9.504  16.023   8.350  0.4731  0.0531  0.0924
 1233ERGO    C216258   9.610  15.910   8.090 -0.0132 -0.2079 -0.0072
 1234ERGO   ROH16259  11.895   9.151   9.566  0.0136  0.4352 -0.0920
 1234ERGO    R116260  12.004   9.109   9.308  0.0190  0.3977 -0.0836
 1234ERGO    R216261  11.862   8.987   9.105  0.0761  0.2393 -0.0274
 1234ERGO    R316262  11.926   9.214   8.968 -0.0623  0.2208 -0.1209
 1234ERGO    R416263  11.839   9.024   8.762  0.2018  0.0232 -0.0603
 1234ERGO    R516264  12.028   9.135   8.766  0.1033  0.1943 -0.0301
 1234ERGO    C116265  11.886   9.258   8.434  0.1451 -0.1202 -0.1672
 1234ERGO    C216266  11.850   9.166   8.129 -0.2210 -0.4468  0.2872
 1235ERGO   ROH16267  11.280  15.901   5.869  0.0306  0.0000  0.1062
 1235ERGO    R116268  11.275  16.090   6.081  0.1181  0.0334  0.0780
 1235ERGO    R216269  11.392  16.041   6.326  0.0773  0.0070  0.0881
 1235ERGO    R316270  11.520  16.275   6.275  0.2044 -0.0654  0.0663
 1235ERGO    R416271  11.508  16.260   6.567 -0.2954  0.2238  0.0790
 1235ERGO    R516272  11.440  16.425   6.443 -0.0633  0.1177 -0.2100
 1235ERGO    C116273  11.696  16.607   6.659 -0.3931  0.2820  0.0532
 1235ERGO    C216274  11.678  16.796   6.922  0.3771 -0.0640 -0.0110
 1236ERGO   ROH16275  15.124   3.955   6.284  0.0071 -0.1127  0.0872
 1236ERGO    R116276  15.281   3.933   6.518  0.0394 -0.1853  0.0579
 1236ERGO    R216277  15.291   4.131   6.710  0.2237 -0.1596  0.0183
 1236ERGO    R316278  15.221   3.929   6.877  0.1123 -0.0782  0.0727
 1236ERGO    R416279  15.281   4.154   7.055  0.2694 -0.0669  0.0145
 1236ERGO    R516280  15.367   3.954   7.066  0.1481 -0.1210  0.0540
 1236ERGO    C116281  15.210   3.976   7.413  0.1916  0.0635  0.0634
 1236ERGO    C216282  15.042   4.091   7.810 -0.0079 -0.0786  0.2458
 1237ERGO   ROH16283  13.123   0.100   6.418  0.1735 -0.1577  0.0542
 1237ERGO    R116284  13.155   0.199   6.682  0.0518 -0.1458  0.0661
 1237ERGO    R216285  13.215   0.036   6.896  0.2241 -0.1048  0.0584
 1237ERGO    R316286  13.421   0.210   6.930  0.0325  0.1218  0.0756
 1237ERGO    R416287  13.445   0.022   7.153  0.4286 -0.0546 -0.1199
 1237ERGO    R516288  13.435   0.239   7.167  0.1656 -0.0811  0.0897
 1237ERGO    C116289  13.772   0.177   7.335  0.3678  0.1873 -0.2074
 1237ERGO    C216290  13.930   0.002   7.552 -0.1375  0.2207  0.2866
 1238ERGO   ROH16291  18.596  15.518   6.329  0.1314  0.0128  0.0163
 1238ERGO    R116292  18.644  15.438   6.596 -0.0365 -0.0857  0.0204
 1238ERGO    R216293  18.876  15.309   6.673 -0.0759 -0.1121  0.1240
 1238ERGO    R316294  18.891  15.512   6.853 -0.1994 -0.1730  0.2008
 1238ERGO    R416295  18.985  15.276   6.999 -0.0153 -0.1508  0.0986
 1238ERGO    R516296  18.826  15.411   7.061 -0.1001 -0.2920  0.1690
 1238ERGO    C116297  19.062  15.447   7.359 -0.0959 -0.2304  0.1559
 1238ERGO    C216298  19.066  15.518   7.670 -0.4228  0.0083 -0.4387
 1239ERGO   ROH16299   4.073   5.072   9.900 -0.0510  0.2782 -0.0062
 1239ERGO    R116300   4.107   5.217   9.659  0.0739  0.1236 -0.0830
 1239ERGO    R216301   4.286   5.139   9.462 -0.0855 -0.2087 -0.1024
 1239ERGO    R316302   4.066   5.152   9.303 -0.1191  0.0141 -0.0422
 1239ERGO    R416303   4.290   5.203   9.123 -0.1273 -0.0515 -0.0746
 1239ERGO    R516304   4.114   5.328   9.148 -0.0391  0.0567  0.0286
 1239ERGO    C116305   4.087   5.251   8.775 -0.1832  0.2490 -0.0018
 1239ERGO    C216306   4.057   5.179   8.522 -0.0013 -0.2009  0.2879
 1240ERGO   ROH16307   7.296  11.889   9.757 -0.4251  0.0814  0.0032
 1240ERGO    R116308   7.371  11.691   9.569  0.1040  0.3428 -0.0838
 1240ERGO    R216309   7.196  11.494   9.482  0.6807 -0.2666  0.0356
 1240ERGO    R316310   7.263  11.589   9.237  0.1620  0.0229 -0.0039
 1240ERGO    R416311   7.097  11.356   9.181  0.4314 -0.1684  0.0716
 1240ERGO    R516312   7.295  11.394   9.103  0.2507  0.1848 -0.2073
 1240ERGO    C116313   7.102  11.365   8.776 -0.2007  0.1605  0.0554
 1240ERGO    C216314   7.071  11.358   8.474 -0.1236  0.2009  0.0024
 1241ERGO   ROH16315   0.452  11.706   6.165  0.0025  0.0983  0.0622
 1241ERGO    R116316   0.591  11.537   6.344  0.0211  0.2118  0.1568
 1241ERGO    R216317   0.800  11.375   6.264 -0.2260 -0.1225  0.1548
 1241ERGO    R316318   0.933  11.503   6.463  0.1207  0.0406 -0.1681
 1241ERGO    R416319   1.041  11.230   6.465 -0.3138 -0.1369  0.2499
 1241ERGO    R516320   0.956  11.337   6.635 -0.0259  0.3138  0.1224
 1241ERGO    C116321   1.306  11.266   6.769 -0.0393  0.0077  0.0022
 1241ERGO    C216322   1.586  11.072   6.991 -0.2480 -0.2286  0.0350
 1242ERGO   ROH16323  14.143   3.683   6.135  0.1381  0.1304  0.0502
 1242ERGO    R116324  14.157   3.556   6.388  0.0514  0.2487  0.1149
 1242ERGO    R216325  14.242   3.295   6.419 -0.1496  0.1983  0.2441
 1242ERGO    R316326  14.416   3.408   6.595 -0.0535  0.1526  0.1798
 1242ERGO    R416327  14.414   3.123   6.665  0.0506  0.1143  0.0494
 1242ERGO    R516328  14.378   3.290   6.800  0.1060  0.0470  0.1530
 1242ERGO    C116329  14.677   3.129   6.973  0.2573  0.0226 -0.1243
 1242ERGO    C216330  14.864   3.120   7.284  0.1632  0.3394 -0.1646
 1243ERGO   ROH16331   2.301   5.621   6.536 -0.1383 -0.0701 -0.1496
 1243ERGO    R116332   2.306   5.536   6.806 -0.2827 -0.0338 -0.1345
 1243ERGO    R216333   2.384   5.703   7.013 -0.0072 -0.1213 -0.1630
 1243ERGO    R316334   2.143   5.633   7.116 -0.1319  0.2956 -0.1529
 1243ERGO    R416335   2.304   5.708   7.349  0.0034  0.0448 -0.1625
 1243ERGO    R516336   2.196   5.521   7.321 -0.3175  0.2206 -0.1437
 1243ERGO    C116337   2.031   5.646   7.642 -0.1075  0.5329 -0.1527
 1243ERGO    C216338   2.013   5.683   7.972 -0.2435 -0.0554 -0.0440
 1244ERGO   ROH16339  17.017   5.263   9.520  0.1282  0.2702 -0.1709
 1244ERGO    R116340  17.167   5.369   9.305  0.2126  0.0188 -0.2398
 1244ERGO    R216341  17.392   5.244   9.205  0.0482 -0.2842 -0.2441
 1244ERGO    R316342  17.258   5.264   8.969  0.0212 -0.2089 -0.2223
 1244ERGO    R416343  17.541   5.285   8.896  0.0090 -0.1667 -0.2479
 1244ERGO    R516344  17.383   5.425   8.843 -0.0039 -0.1582 -0.1805
 1244ERGO    C116345  17.502   5.327   8.494 -0.0391 -0.0277 -0.2296
 1244ERGO    C216346  17.515   5.403   8.206  0.5395  0.2306 -0.0563
 1245ERGO   ROH16347   7.971   0.680   9.338  0.3832  0.0979  0.0325
 1245ERGO    R116348   7.845   0.693   9.085  0.2761  0.1981  0.0880
 1245ERGO    R216349   7.940   0.850   8.878  0.2744  0.1763  0.0566
 1245ERGO    R316350   7.934   0.616   8.741  0.0880  0.1891  0.0436
 1245ERGO    R416351   7.948   0.823   8.534  0.1130  0.1695  0.0537
 1245ERGO    R516352   7.801   0.663   8.548  0.0396  0.2583  0.1049
 1245ERGO    C116353   7.948   0.587   8.204 -0.1559  0.1775  0.0399
 1245ERGO    C216354   8.098   0.586   7.936  0.1610 -0.1231  0.1484
 1246ERGO   ROH16355   8.201   7.056  10.130 -0.0614 -0.1272 -0.0013
 1246ERGO    R116356   8.120   7.167   9.882 -0.0677 -0.1245  0.0009
 1246ERGO    R216357   8.288   7.321   9.725 -0.1334  0.0532  0.0939
 1246ERGO    R316358   8.222   7.139   9.534  0.0720  0.0467  0.0284
 1246ERGO    R416359   8.291   7.382   9.385  0.0112  0.1026  0.1042
 1246ERGO    R516360   8.107   7.267   9.368  0.0888  0.0022 -0.0128
 1246ERGO    C116361   8.231   7.247   9.008  0.2881  0.1253  0.0487
 1246ERGO    C216362   8.193   7.212   8.731  0.1296 -0.0163  0.1277
 1247ERGO   ROH16363  15.030   6.383   6.036 -0.0928 -0.1389  0.1267
 1247ERGO    R116364  14.971   6.291   6.297  0.0591 -0.0648  0.1902
 1247ERGO    R216365  15.087   6.399   6.523  0.0587  0.1250  0.1095
 1247ERGO    R316366  14.829   6.432   6.601  0.0580 -0.0248  0.1689
 1247ERGO    R416367  14.981   6.422   6.851  0.1161  0.1142  0.1278
 1247ERGO    R516368  14.809   6.299   6.799  0.1849  0.0006  0.1935
 1247ERGO    C116369  14.677   6.467   7.115  0.1487 -0.0328  0.1942
 1247ERGO    C216370  14.774   6.613   7.530 -0.0939 -0.1078  0.3094
 1248ERGO   ROH16371  15.233   7.567   9.656 -0.1728  0.2595 -0.0503
 1248ERGO    R116372  15.125   7.584   9.395 -0.1409  0.2938 -0.0605
 1248ERGO    R216373  15.126   7.817   9.247  0.0916  0.2504 -0.1198
 1248ERGO    R316374  15.248   7.660   9.061 -0.0478  0.0868 -0.0774
 1248ERGO    R416375  15.150   7.893   8.911  0.4174  0.2985 -0.0893
 1248ERGO    R516376  15.111   7.683   8.866  0.0971  0.3614 -0.1581
 1248ERGO    C116377  15.278   7.790   8.540  0.4761  0.1729 -0.0318
 1248ERGO    C216378  15.492   7.831   8.304 -0.1887 -0.2061  0.0761
 1249ERGO   ROH16379  11.208   2.141   9.726 -0.1920 -0.0378 -0.1732
 1249ERGO    R116380  11.103   2.107   9.466 -0.1137  0.0790 -0.2211
 1249ERGO    R216381  11.216   2.224   9.243 -0.0021  0.1192 -0.1449
 1249ERGO    R316382  11.219   1.969   9.149 -0.0463  0.1481 -0.2262
 1249ERGO    R416383  11.300   2.134   8.920 -0.1062  0.2124 -0.1987
 1249ERGO    R516384  11.138   1.988   8.925 -0.1132  0.2220 -0.1954
 1249ERGO    C116385  11.352   1.843   8.644 -0.2084  0.2937 -0.3062
 1249ERGO    C216386  11.517   1.923   8.504  0.1967 -0.1000  0.4109
 1250ERGO   ROH16387   1.234   4.834   6.555  0.1415  0.2344  0.0486
 1250ERGO    R116388   1.226   4.790   6.834  0.1907  0.1313  0.0352
 1250ERGO    R216389   1.042   4.623   6.954  0.0882  0.2283  0.0276
 1250ERGO    R316390   1.264   4.506   7.059  0.0308  0.0109 -0.0916
 1250ERGO    R416391   1.040   4.338   7.149 -0.1036  0.3794  0.2522
 1250ERGO    R516392   1.193   4.429   7.275  0.1357  0.2726  0.0333
 1250ERGO    C116393   1.248   4.061   7.360 -0.2693  0.2632  0.2710
 1250ERGO    C216394   1.228   3.716   7.535  0.0618 -0.3203  0.0167
 1251ERGO   ROH16395   6.698   6.432   6.269 -0.3327 -0.0144 -0.0627
 1251ERGO    R116396   6.714   6.169   6.372 -0.2510  0.0005 -0.0369
 1251ERGO    R216397   6.950   6.026   6.378 -0.1953  0.0960  0.0302
 1251ERGO    R316398   6.890   6.002   6.643 -0.2466  0.0934  0.0186
 1251ERGO    R416399   7.073   5.779   6.586 -0.1714  0.1396  0.0682
 1251ERGO    R516400   6.876   5.765   6.678 -0.1891  0.0900  0.0262
 1251ERGO    C116401   7.089   5.612   6.955 -0.2057  0.1626  0.0795
 1251ERGO    C216402   7.356   5.625   7.224 -0.1692  0.1483  0.0446
 1252ERGO   ROH16403   7.834  14.135   9.356  0.0154 -0.1384 -0.1534
 1252ERGO    R116404   7.726  14.003   9.130 -0.1523  0.1004 -0.2156
 1252ERGO    R216405   7.658  14.137   8.899  0.2426  0.2657 -0.2428
 1252ERGO    R316406   7.821  13.953   8.783 -0.0788 -0.0758 -0.1715
 1252ERGO    R416407   7.633  14.030   8.571  0.1902  0.3543 -0.2683
 1252ERGO    R516408   7.676  13.827   8.639 -0.2766  0.2448 -0.2642
 1252ERGO    C116409   7.772  13.794   8.271 -0.1421  0.0853 -0.2161
 1252ERGO    C216410   7.874  13.700   7.871 -0.0804 -0.1067 -0.1149
 1253ERGO   ROH16411  13.999  11.561   9.747 -0.1287  0.0830  0.1411
 1253ERGO    R116412  14.057  11.411   9.514 -0.1704  0.0412  0.1576
 1253ERGO    R216413  13.861  11.316   9.345 -0.1938  0.1429  0.1268
 1253ERGO    R316414  14.005  11.447   9.156 -0.0872  0.0562  0.1471
 1253ERGO    R416415  13.913  11.203   9.022 -0.1320  0.0659  0.1631
 1253ERGO    R516416  14.119  11.273   9.036 -0.1115 -0.0057  0.2142
 1253ERGO    C116417  14.080  11.261   8.657  0.0040 -0.0603  0.2033
 1253ERGO    C216418  14.121  11.037   8.415  0.2703 -0.0135  0.1527
 1254ERGO   ROH16419   9.977  16.583   9.161 -0.1158 -0.1096 -0.1121
 1254ERGO    R116420  10.135  16.692   8.952 -0.1334  0.0519 -0.0421
 1254ERGO    R216421  10.177  16.560   8.713  0.1257  0.0838 -0.0152
 1254ERGO    R316422  10.083  16.792   8.606 -0.0763 -0.0231 -0.0733
 1254ERGO    R416423  10.226  16.661   8.386  0.1752  0.1106  0.0005
 1254ERGO    R516424  10.257  16.864   8.459 -0.0792  0.1543  0.0047
 1254ERGO    C116425  10.166  16.936   8.095  0.0144  0.0261 -0.0448
 1254ERGO    C216426  10.245  17.130   7.837 -0.1479  0.3429  0.0413
 1255ERGO   ROH16427   5.531  15.736   9.415  0.2943  0.1202 -0.0126
 1255ERGO    R116428   5.438  15.513   9.267  0.2589  0.0935  0.0504
 1255ERGO    R216429   5.281  15.539   9.041  0.2141  0.0526  0.0787
 1255ERGO    R316430   5.475  15.386   8.928  0.1860  0.0246  0.0673
 1255ERGO    R416431   5.261  15.393   8.729  0.1696  0.0533  0.0808
 1255ERGO    R516432   5.356  15.215   8.812  0.1517  0.0394  0.0772
 1255ERGO    C116433   5.432  15.163   8.441  0.1173  0.0275  0.0712
 1255ERGO    C216434   5.456  15.059   8.064 -0.0068 -0.2633 -0.1489
 1256ERGO   ROH16435   4.877   3.501   9.688 -0.0978  0.2204  0.1879
 1256ERGO    R116436   4.930   3.673   9.470 -0.0752  0.1412  0.1303
 1256ERGO    R216437   5.086   3.596   9.255  0.0144  0.0898  0.2106
 1256ERGO    R316438   4.868   3.671   9.111  0.0378 -0.0311  0.1110
 1256ERGO    R416439   5.071   3.606   8.910  0.0739 -0.1757  0.1984
 1256ERGO    R516440   4.958   3.792   8.925  0.0629 -0.1705  0.0340
 1256ERGO    C116441   4.857   3.682   8.574  0.1304 -0.4439  0.0978
 1256ERGO    C216442   4.857   3.808   8.290  0.2848  0.0792  0.0192
 1257ERGO   ROH16443  16.275  13.810   7.376 -0.1474  0.1251  0.1015
 1257ERGO    R116444  16.450  13.606   7.289 -0.1116  0.1825  0.0392
 1257ERGO    R216445  16.399  13.337   7.331  0.0918  0.1745  0.2459
 1257ERGO    R316446  16.433  13.322   7.061 -0.1726  0.0417  0.2155
 1257ERGO    R416447  16.422  13.043   7.150  0.3002  0.0756  0.4296
 1257ERGO    R516448  16.579  13.135   7.031  0.0554  0.2147  0.1977
 1257ERGO    C116449  16.468  12.858   6.793  0.1734 -0.1068  0.5080
 1257ERGO    C216450  16.327  12.576   6.711  0.0552  0.0441 -0.0673
 1258ERGO   ROH16451   3.096  16.304   9.339  0.1371  0.0528 -0.0723
 1258ERGO    R116452   3.216  16.258   9.087  0.0485 -0.0563 -0.0959
 1258ERGO    R216453   3.397  16.054   9.043  0.1101 -0.0152 -0.0459
 1258ERGO    R316454   3.224  15.988   8.844  0.0488 -0.2045  0.0677
 1258ERGO    R416455   3.486  16.001   8.714 -0.0652  0.1970 -0.1297
 1258ERGO    R516456   3.306  16.106   8.652 -0.2620 -0.0383  0.0338
 1258ERGO    C116457   3.376  15.908   8.334 -0.2247  0.1428 -0.0718
 1258ERGO    C216458   3.364  15.822   8.001  0.1247 -0.0489 -0.0232
 1259ERGO   ROH16459   3.378  17.739   9.619  0.0468 -0.0051 -0.1051
 1259ERGO    R116460   3.362  17.914   9.397 -0.1459  0.0878 -0.0196
 1259ERGO    R216461   3.351  17.824   9.136  0.0450  0.2022 -0.0658
 1259ERGO    R316462   3.127  17.978   9.126 -0.1732 -0.1031 -0.0432
 1259ERGO    R416463   3.164  17.882   8.851  0.1045  0.1715 -0.1119
 1259ERGO    R516464   3.142  18.090   8.915 -0.2214  0.0952  0.0533
 1259ERGO    C116465   2.846  18.061   8.676 -0.0657 -0.1328 -0.1174
 1259ERGO    C216466   2.895  18.085   8.350  0.2378 -0.0151 -0.2950
 1260ERGO   ROH16467  12.752  15.216   5.883 -0.0505 -0.0044 -0.1433
 1260ERGO    R116468  12.723  15.436   6.059  0.1301  0.0859 -0.2247
 1260ERGO    R216469  12.652  15.406   6.324 -0.0181  0.2491 -0.2477
 1260ERGO    R316470  12.878  15.550   6.368  0.1331  0.0030 -0.1943
 1260ERGO    R416471  12.783  15.479   6.635 -0.0441  0.1477 -0.2119
 1260ERGO    R516472  12.830  15.679   6.563  0.2071  0.0893 -0.2294
 1260ERGO    C116473  13.072  15.657   6.857  0.0827 -0.1424 -0.1408
 1260ERGO    C216474  13.185  15.782   7.086  0.0707 -0.0006 -0.0199
 1261ERGO   ROH16475  10.464   9.986   6.272  0.1794  0.0833 -0.0845
 1261ERGO    R116476  10.636   9.986   6.496  0.0610 -0.1180  0.0093
 1261ERGO    R216477  10.756  10.216   6.592  0.3728 -0.2715 -0.0015
 1261ERGO    R316478  10.641  10.140   6.826  0.1224 -0.0188 -0.0374
 1261ERGO    R416479  10.849  10.332   6.904  0.2006 -0.1140 -0.0066
 1261ERGO    R516480  10.823  10.129   6.981 -0.0107 -0.0419  0.1214
 1261ERGO    C116481  10.796  10.328   7.305 -0.1346  0.2150 -0.0433
 1261ERGO    C216482  10.852  10.428   7.619  0.0126 -0.0539 -0.1759
 1262ERGO   ROH16483  17.040   2.225   9.303  0.2122 -0.1039 -0.0601
 1262ERGO    R116484  17.055   2.382   9.068  0.3263 -0.2477 -0.1509
 1262ERGO    R216485  17.113   2.274   8.820 -0.1000 -0.4969 -0.1548
 1262ERGO    R316486  16.882   2.397   8.748  0.0721 -0.0658 -0.0076
 1262ERGO    R416487  17.010   2.327   8.494 -0.2114 -0.2962 -0.0884
 1262ERGO    R516488  16.939   2.524   8.554  0.1851 -0.1631 -0.0365
 1262ERGO    C116489  16.733   2.473   8.237 -0.1147  0.2253  0.0884
 1262ERGO    C216490  16.541   2.560   7.916 -0.0694 -0.2724 -0.2736
 1263ERGO   ROH16491   9.170  13.221   6.152 -0.0928 -0.1058  0.1111
 1263ERGO    R116492   9.357  13.224   6.364 -0.0336  0.0364  0.0584
 1263ERGO    R216493   9.337  13.400   6.577 -0.1560 -0.0330  0.1098
 1263ERGO    R316494   9.350  13.172   6.724  0.1215 -0.0614  0.0472
 1263ERGO    R416495   9.362  13.388   6.921 -0.0822 -0.1052  0.1019
 1263ERGO    R516496   9.503  13.223   6.901  0.0954  0.0560  0.0328
 1263ERGO    C116497   9.388  13.167   7.260  0.2213 -0.1739  0.0385
 1263ERGO    C216498   9.267  13.124   7.540  0.0412  0.2014  0.2031
 1264ERGO   ROH16499   4.820   2.751   9.627 -0.1595 -0.2515  0.2168
 1264ERGO    R116500   4.813   2.841   9.358 -0.0840 -0.0540  0.2796
 1264ERGO    R216501   4.893   2.683   9.146 -0.0200  0.1043  0.1872
 1264ERGO    R316502   4.645   2.742   9.051  0.0067  0.1685  0.1550
 1264ERGO    R416503   4.816   2.732   8.813 -0.0129 -0.1602  0.1442
 1264ERGO    R516504   4.685   2.896   8.872  0.0908 -0.0200  0.0046
 1264ERGO    C116505   4.538   2.816   8.529  0.0164 -0.2540  0.0889
 1264ERGO    C216506   4.242   2.884   8.292  0.2024 -0.0201  0.2023
 1265ERGO   ROH16507  16.394  17.264   5.835 -0.0694 -0.1745 -0.0090
 1265ERGO    R116508  16.292  17.178   6.084 -0.1678 -0.0725 -0.0131
 1265ERGO    R216509  16.436  17.199   6.319 -0.1905 -0.1360  0.0079
 1265ERGO    R316510  16.214  17.331   6.405 -0.1177  0.0247 -0.0473
 1265ERGO    R416511  16.402  17.350   6.628 -0.2337 -0.2956  0.0823
 1265ERGO    R516512  16.198  17.276   6.638 -0.3127 -0.1058 -0.0899
 1265ERGO    C116513  16.175  17.562   6.889 -0.1906 -0.2379  0.0738
 1265ERGO    C216514  15.899  17.771   7.065 -0.2852 -0.0997 -0.1734
 1266ERGO   ROH16515  13.158   2.107   9.593  0.0241  0.1149  0.0596
 1266ERGO    R116516  12.927   2.149   9.435  0.0517  0.0516  0.0027
 1266ERGO    R216517  12.880   2.385   9.299  0.0260  0.0338 -0.0161
 1266ERGO    R316518  12.855   2.219   9.085  0.1167  0.0210 -0.0175
 1266ERGO    R416519  12.737   2.473   8.997  0.1507  0.0190 -0.0801
 1266ERGO    R516520  12.643   2.276   8.990  0.1540  0.0160 -0.1082
 1266ERGO    C116521  12.631   2.368   8.620  0.3085 -0.0016 -0.1186
 1266ERGO    C216522  12.695   2.395   8.260 -0.1790  0.0318 -0.3276
 1267ERGO   ROH16523   0.980   0.869   6.008 -0.1007 -0.0854  0.0591
 1267ERGO    R116524   0.896   0.915   6.275 -0.1706 -0.0230  0.0278
 1267ERGO    R216525   0.667   0.802   6.380 -0.1257 -0.1153  0.0395
 1267ERGO    R316526   0.838   0.713   6.572 -0.0995  0.0636  0.0998
 1267ERGO    R416527   0.573   0.697   6.695 -0.1134 -0.1460  0.0321
 1267ERGO    R516528   0.748   0.798   6.776 -0.2246  0.0172  0.0613
 1267ERGO    C116529   0.678   0.552   7.059 -0.0816  0.0042  0.0844
 1267ERGO    C216530   0.631   0.485   7.391 -0.4046  0.0361  0.0320
 1268ERGO   ROH16531  14.211   5.777   9.794  0.0009  0.0992 -0.0303
 1268ERGO    R116532  14.273   5.934   9.567 -0.0919  0.0328 -0.1047
 1268ERGO    R216533  14.467   5.861   9.383  0.0373  0.1143 -0.0157
 1268ERGO    R316534  14.264   5.893   9.205  0.0450 -0.1914 -0.0816
 1268ERGO    R416535  14.508   5.893   9.042  0.1002  0.3331  0.0122
 1268ERGO    R516536  14.352   6.045   9.042 -0.1831  0.0388  0.0150
 1268ERGO    C116537  14.342   5.942   8.676  0.1439  0.1735 -0.0337
 1268ERGO    C216538  14.423   6.017   8.498 -0.2608  0.2213  0.2608
 1269ERGO   ROH16539   8.471   2.116   9.386  0.0015 -0.1746  0.1713
 1269ERGO    R116540   8.576   2.148   9.124  0.1468 -0.2011  0.2251
 1269ERGO    R216541   8.587   1.941   8.942  0.0028 -0.1572  0.1651
 1269ERGO    R316542   8.451   2.115   8.784  0.2531  0.0399  0.1601
 1269ERGO    R416543   8.596   1.941   8.597  0.0120 -0.1754  0.1654
 1269ERGO    R516544   8.601   2.159   8.602  0.3250 -0.1771  0.1627
 1269ERGO    C116545   8.473   2.105   8.247  0.2524 -0.0009  0.1610
 1269ERGO    C216546   8.482   2.030   7.946 -0.3429  0.0182 -0.1675
 1270ERGO   ROH16547  13.888   3.304   9.637  0.1011 -0.1410  0.0463
 1270ERGO    R116548  14.041   3.430   9.435  0.1386 -0.1407  0.0734
 1270ERGO    R216549  14.208   3.289   9.265  0.1321 -0.1487  0.0661
 1270ERGO    R316550  14.063   3.414   9.072  0.1636 -0.1020  0.0744
 1270ERGO    R416551  14.287   3.289   8.929  0.1676 -0.0813  0.0753
 1270ERGO    R516552  14.228   3.499   8.920  0.1815 -0.0805  0.1109
 1270ERGO    C116553  14.197   3.406   8.551  0.2180  0.0017  0.0883
 1270ERGO    C216554  14.103   3.338   8.355 -0.0617  0.2688  0.3094
 1271ERGO   ROH16555   0.988  13.001   9.566 -0.1615 -0.1086  0.0780
 1271ERGO    R116556   0.848  12.941   9.328 -0.0704  0.1159 -0.0365
 1271ERGO    R216557   0.888  13.080   9.092  0.3446  0.0601 -0.0123
 1271ERGO    R316558   0.934  12.832   8.991  0.0335 -0.0200  0.0346
 1271ERGO    R416559   0.926  13.007   8.757  0.3915 -0.0391  0.0149
 1271ERGO    R516560   0.809  12.826   8.787  0.1183  0.1342 -0.0185
 1271ERGO    C116561   0.992  12.731   8.467  0.1268 -0.1720  0.0747
 1271ERGO    C216562   1.102  12.828   8.222  0.1849 -0.4471  0.0791
 1272ERGO   ROH16563  15.651   0.178   8.919 -0.1613 -0.1097 -0.0400
 1272ERGO    R116564  15.780   0.091   8.683  0.0626  0.0863  0.0079
 1272ERGO    R216565  15.642   0.031   8.451  0.2370 -0.1470 -0.0314
 1272ERGO    R316566  15.814   0.210   8.341 -0.0093  0.1256  0.0116
 1272ERGO    R416567  15.684   0.083   8.112  0.4069 -0.2808 -0.0328
 1272ERGO    R516568  15.898   0.100   8.146  0.3639  0.1524  0.1410
 1272ERGO    C116569  15.870   0.281   7.811  0.2747 -0.1028  0.0068
 1272ERGO    C216570  16.002   0.523   7.528  0.0251  0.0415  0.1487
 1273ERGO   ROH16571   1.723   8.301   6.500 -0.2166  0.2621 -0.1165
 1273ERGO    R116572   1.725   8.288   6.782 -0.2288  0.3177 -0.1145
 1273ERGO    R216573   1.957   8.246   6.928 -0.2929 -0.0645 -0.1203
 1273ERGO    R316574   1.879   8.473   7.055  0.1172  0.1063 -0.1580
 1273ERGO    R416575   1.998   8.307   7.265 -0.3583 -0.1774 -0.0905
 1273ERGO    R516576   1.800   8.398   7.268 -0.1774  0.2557 -0.2062
 1273ERGO    C116577   1.949   8.556   7.582 -0.0114 -0.0828 -0.1086
 1273ERGO    C216578   1.958   8.819   7.853 -0.2404 -0.2257 -0.0038
 1274ERGO   ROH16579   5.110   9.053   9.963 -0.0333 -0.0202 -0.0966
 1274ERGO    R116580   5.284   9.004   9.745 -0.0231  0.0517 -0.1057
 1274ERGO    R216581   5.292   8.761   9.613  0.0416  0.0660 -0.1356
 1274ERGO    R316582   5.247   8.916   9.394 -0.0072  0.0814 -0.1137
 1274ERGO    R416583   5.325   8.655   9.285  0.0902  0.1340 -0.1525
 1274ERGO    R516584   5.414   8.848   9.237  0.0192  0.1704 -0.1195
 1274ERGO    C116585   5.301   8.739   8.889  0.0727  0.1880 -0.1415
 1274ERGO    C216586   5.287   8.687   8.569  0.1415 -0.1074 -0.0316
 1275ERGO   ROH16587  12.217   6.627   7.031 -0.0503  0.1102 -0.1198
 1275ERGO    R116588  11.973   6.497   6.971  0.0534 -0.0699 -0.1620
 1275ERGO    R216589  11.952   6.223   6.947  0.2242 -0.0999  0.0005
 1275ERGO    R316590  11.755   6.254   7.133  0.1131 -0.0937 -0.1173
 1275ERGO    R416591  11.708   5.988   7.019  0.1921 -0.1050 -0.1237
 1275ERGO    R516592  11.563   6.150   7.034  0.1754 -0.1106 -0.2222
 1275ERGO    C116593  11.382   5.881   7.235  0.0690 -0.1024 -0.3067
 1275ERGO    C216594  11.163   5.564   7.396  0.2450 -0.0035 -0.3847
 1276ERGO   ROH16595   2.706   8.794  10.148 -0.0408 -0.1839 -0.1309
 1276ERGO    R116596   2.794   8.758   9.881  0.0056 -0.1070 -0.1264
 1276ERGO    R216597   2.648   8.617   9.694  0.0831 -0.1363 -0.1670
 1276ERGO    R316598   2.675   8.846   9.549  0.0098 -0.1019 -0.1261
 1276ERGO    R416599   2.659   8.632   9.349  0.0231 -0.0622 -0.1658
 1276ERGO    R516600   2.815   8.783   9.365 -0.0080 -0.0329 -0.1618
 1276ERGO    C116601   2.689   8.855   9.012 -0.0805  0.0135 -0.1268
 1276ERGO    C216602   2.769   8.884   8.668 -0.0844 -0.1331  0.0413
 1277ERGO   ROH16603  13.329   6.156   9.632  0.1297  0.1632  0.0592
 1277ERGO    R116604  13.429   6.241   9.382  0.0187  0.5087  0.1264
 1277ERGO    R216605  13.416   6.084   9.155  0.6993  0.4405  0.1083
 1277ERGO    R316606  13.294   6.303   9.050  0.0115  0.0492  0.0385
 1277ERGO    R416607  13.400   6.159   8.818  0.6071  0.3736  0.0983
 1277ERGO    R516608  13.435   6.368   8.867 -0.1073  0.5106  0.1032
 1277ERGO    C116609  13.276   6.407   8.523 -0.0923 -0.0328  0.0270
 1277ERGO    C216610  13.259   6.563   8.130 -0.0097  0.0235  0.0663
 1278ERGO   ROH16611  15.506  15.027   9.213 -0.0284 -0.2791 -0.1154
 1278ERGO    R116612  15.602  14.902   8.978 -0.1225 -0.2576 -0.1670
 1278ERGO    R216613  15.462  14.907   8.739 -0.1290 -0.0707 -0.1659
 1278ERGO    R316614  15.695  15.006   8.642 -0.0624 -0.1930 -0.1293
 1278ERGO    R416615  15.535  14.945   8.404 -0.1911  0.2089 -0.1489
 1278ERGO    R516616  15.738  14.876   8.446 -0.2452 -0.0297 -0.2784
 1278ERGO    C116617  15.798  15.061   8.117 -0.1647  0.2568 -0.1044
 1278ERGO    C216618  15.799  15.369   7.859 -0.0456 -0.1406  0.3014
 1279ERGO   ROH16619  12.599   9.076   9.512  0.2462  0.1313 -0.0811
 1279ERGO    R116620  12.550   9.144   9.241  0.1912  0.0687 -0.0869
 1279ERGO    R216621  12.751   9.227   9.070  0.1788 -0.0923 -0.1795
 1279ERGO    R316622  12.658   9.024   8.915  0.0192 -0.0959 -0.0857
 1279ERGO    R416623  12.710   9.243   8.727  0.2216 -0.2255 -0.1918
 1279ERGO    R516624  12.523   9.132   8.749  0.1216 -0.0605 -0.1503
 1279ERGO    C116625  12.598   9.061   8.382  0.0966 -0.3063 -0.1108
 1279ERGO    C216626  12.584   8.884   8.083 -0.3217 -0.2853  0.1846
 1280ERGO   ROH16627   3.887  12.505   9.821 -0.1619  0.1323 -0.1437
 1280ERGO    R116628   3.775  12.464   9.565 -0.0805 -0.1236 -0.1417
 1280ERGO    R216629   3.855  12.608   9.342 -0.2740 -0.0758 -0.1847
 1280ERGO    R316630   3.895  12.360   9.237  0.1068 -0.0570 -0.0941
 1280ERGO    R416631   3.915  12.541   9.009 -0.1555 -0.1142 -0.1561
 1280ERGO    R516632   3.786  12.367   9.025  0.1080 -0.3038 -0.1014
 1280ERGO    C116633   3.988  12.270   8.716  0.2710 -0.1190 -0.0543
 1280ERGO    C216634   3.998  12.313   8.356 -0.1295  0.1076  0.2989
 1281ERGO   ROH16635   7.188   0.575   5.821 -0.0103 -0.1397  0.0153
 1281ERGO    R116636   7.134   0.614   6.096 -0.0824 -0.0047 -0.0164
 1281ERGO    R216637   7.293   0.507   6.296 -0.2039 -0.0138  0.0798
 1281ERGO    R316638   7.303   0.766   6.380 -0.0955  0.0148 -0.0196
 1281ERGO    R416639   7.355   0.607   6.621 -0.1641  0.0875  0.0411
 1281ERGO    R516640   7.203   0.761   6.597 -0.0979  0.1422 -0.0188
 1281ERGO    C116641   7.401   0.908   6.889 -0.0390  0.1734 -0.0748
 1281ERGO    C216642   7.608   1.181   7.070 -0.1150 -0.1810 -0.1967
 1282ERGO   ROH16643   6.597  11.226   5.900  0.0746 -0.0493 -0.0667
 1282ERGO    R116644   6.453  11.310   6.129  0.1616  0.0716 -0.0544
 1282ERGO    R216645   6.286  11.140   6.270 -0.0803  0.2447 -0.1244
 1282ERGO    R316646   6.438  11.218   6.481  0.0068 -0.0240 -0.0846
 1282ERGO    R416647   6.171  11.179   6.593 -0.0648  0.3082 -0.1267
 1282ERGO    R516648   6.294  11.358   6.611  0.1810  0.1388 -0.0611
 1282ERGO    C116649   6.247  11.275   6.980  0.0259  0.0929 -0.0906
 1282ERGO    C216650   6.207  11.434   7.323  0.2006 -0.1362 -0.1929
 1283ERGO   ROH16651  11.463  13.665   6.029 -0.1470  0.1150 -0.0419
 1283ERGO    R116652  11.412  13.675   6.308  0.0511  0.0631 -0.0026
 1283ERGO    R216653  11.611  13.721   6.494  0.1420  0.2876 -0.1541
 1283ERGO    R316654  11.444  13.921   6.574 -0.0217  0.1059 -0.0325
 1283ERGO    R416655  11.635  13.890   6.795  0.0719  0.1958 -0.0964
 1283ERGO    R516656  11.417  13.885   6.809  0.0770 -0.0102 -0.0369
 1283ERGO    C116657  11.493  14.175   7.045 -0.1225 -0.0283  0.0514
 1283ERGO    C216658  11.343  14.320   7.366  0.0465 -0.2758  0.2065
 1284ERGO   ROH16659   9.362   1.324   9.324  0.1889 -0.2304 -0.0117
 1284ERGO    R116660   9.297   1.308   9.049  0.0806 -0.1897  0.0106
 1284ERGO    R216661   9.290   1.530   8.885 -0.1387 -0.1437  0.0795
 1284ERGO    R316662   9.463   1.385   8.734 -0.1056  0.0168 -0.0390
 1284ERGO    R416663   9.362   1.594   8.553 -0.2136  0.0923  0.1068
 1284ERGO    R516664   9.360   1.379   8.517 -0.1361  0.1135 -0.0277
 1284ERGO    C116665   9.567   1.495   8.218 -0.2262  0.3805  0.0115
 1284ERGO    C216666   9.548   1.688   7.879 -0.0446  0.2803  0.0623
 1285ERGO   ROH16667  17.089   6.326   6.159  0.1585 -0.0943  0.0681
 1285ERGO    R116668  17.128   6.193   6.406  0.3167  0.0037  0.0966
 1285ERGO    R216669  17.280   6.299   6.611 -0.0450  0.3716  0.1800
 1285ERGO    R316670  17.054   6.259   6.756 -0.0506 -0.1407  0.0539
 1285ERGO    R416671  17.274   6.222   6.947 -0.0415  0.5001  0.2111
 1285ERGO    R516672  17.112   6.082   6.907  0.3223  0.0545  0.1638
 1285ERGO    C116673  17.059   6.139   7.280 -0.0444  0.0941  0.1108
 1285ERGO    C216674  17.097   6.251   7.502  0.0319  0.1677  0.2390
 1286ERGO   ROH16675  10.546   9.161   9.592  0.2028  0.0964 -0.1432
 1286ERGO    R116676  10.388   9.174   9.358  0.1468  0.0950 -0.1061
 1286ERGO    R216677  10.389   9.395   9.190  0.0370  0.1328 -0.0603
 1286ERGO    R316678  10.447   9.209   9.001  0.0581  0.1927 -0.1119
 1286ERGO    R416679  10.333   9.433   8.851 -0.1222  0.1565 -0.0318
 1286ERGO    R516680  10.268   9.225   8.843 -0.0157  0.1230 -0.0360
 1286ERGO    C116681  10.356   9.281   8.476 -0.1949  0.2268 -0.0635
 1286ERGO    C216682  10.448   9.278   8.188 -0.0150 -0.2621 -0.1813
 1287ERGO   ROH16683   7.476   4.408   6.377 -0.2676  0.0396 -0.2321
 1287ERGO    R116684   7.370   4.365   6.636 -0.0180  0.0037 -0.1324
 1287ERGO    R216685   7.101   4.390   6.693  0.0647  0.2562  0.1912
 1287ERGO    R316686   7.130   4.137   6.788 -0.0851  0.1668  0.0064
 1287ERGO    R416687   6.922   4.257   6.957 -0.0055  0.1649  0.0984
 1287ERGO    R516688   7.105   4.161   7.026 -0.0640  0.0048  0.0234
 1287ERGO    C116689   6.846   3.943   7.201 -0.1871  0.0278 -0.1291
 1287ERGO    C216690   6.528   3.758   7.388 -0.2779 -0.1651 -0.1372
 1288ERGO   ROH16691   8.585   9.221  10.013 -0.2398 -0.0282  0.0201
 1288ERGO    R116692   8.405   9.227   9.795 -0.2762 -0.1626  0.0452
 1288ERGO    R216693   8.457   9.368   9.563 -0.5084  0.0595  0.1232
 1288ERGO    R316694   8.410   9.127   9.445 -0.1653  0.0551 -0.0175
 1288ERGO    R416695   8.365   9.323   9.233 -0.3599  0.1160  0.0737
 1288ERGO    R516696   8.227   9.168   9.297 -0.1805 -0.1013 -0.0449
 1288ERGO    C116697   8.267   9.072   8.930  0.0486  0.1449 -0.0871
 1288ERGO    C216698   8.203   9.015   8.461 -0.0691  0.4776 -0.2897
 1289ERGO   ROH16699   4.620   7.083   6.456 -0.0224 -0.1387 -0.0043
 1289ERGO    R116700   4.481   7.005   6.689 -0.1891 -0.2684 -0.1450
 1289ERGO    R216701   4.468   7.163   6.915 -0.0370 -0.5479  0.0649
 1289ERGO    R316702   4.200   7.130   6.884 -0.0780 -0.1535 -0.0569
 1289ERGO    R416703   4.245   7.111   7.174 -0.1752 -0.6013 -0.0637
 1289ERGO    R516704   4.142   6.965   7.048 -0.3387 -0.3018 -0.2900
 1289ERGO    C116705   3.863   7.049   7.295 -0.2942 -0.2622 -0.2528
 1289ERGO    C216706   3.684   6.926   7.522  0.0592  0.0749 -0.1394
 1290ERGO   ROH16707   9.949  13.205   9.655 -0.2048  0.1242  0.1715
 1290ERGO    R116708  10.055  13.109   9.411 -0.2594 -0.0063  0.1988
 1290ERGO    R216709   9.897  13.055   9.191 -0.2735  0.1641  0.1682
 1290ERGO    R316710  10.070  13.223   9.066 -0.0535 -0.0358  0.1963
 1290ERGO    R416711   9.973  13.045   8.854 -0.4333  0.2342  0.1287
 1290ERGO    R516712  10.181  13.085   8.905 -0.3404 -0.1274  0.0680
 1290ERGO    C116713  10.180  13.197   8.540 -0.3199  0.0872  0.1321
 1290ERGO    C216714  10.220  13.101   8.218  0.1551  0.3042  0.0900
 1291ERGO   ROH16715  13.220  10.618   9.455  0.1568  0.0561 -0.0411
 1291ERGO    R116716  13.136  10.589   9.186  0.0887 -0.0689 -0.0081
 1291ERGO    R216717  13.263  10.715   8.976 -0.1156  0.0368 -0.0770
 1291ERGO    R316718  13.280  10.463   8.877  0.1116  0.0365 -0.0391
 1291ERGO    R416719  13.352  10.635   8.651 -0.0675  0.0615 -0.0690
 1291ERGO    R516720  13.198  10.480   8.653  0.0786 -0.0788 -0.0329
 1291ERGO    C116721  13.419  10.351   8.370  0.1737  0.0758 -0.0288
 1291ERGO    C216722  13.648  10.275   8.033 -0.2703  0.0258  0.1680
 1292ERGO   ROH16723   4.864   8.245   6.439  0.1564 -0.2957  0.0199
 1292ERGO    R116724   4.915   8.038   6.626  0.2253 -0.1773  0.1331
 1292ERGO    R216725   5.035   8.085   6.870 -0.0092  0.0351  0.2092
 1292ERGO    R316726   4.814   7.959   6.967  0.0441 -0.1577  0.0860
 1292ERGO    R416727   4.965   8.038   7.206 -0.2716  0.2064  0.1814
 1292ERGO    R516728   4.894   7.838   7.158  0.0129  0.0781  0.2563
 1292ERGO    C116729   4.717   7.893   7.491 -0.3743  0.1253  0.0496
 1292ERGO    C216730   4.502   8.015   7.732  0.0845  0.2202 -0.0313
 1293ERGO   ROH16731   2.536  14.828   6.294  0.1434 -0.1330  0.0462
 1293ERGO    R116732   2.508  14.918   6.560  0.1639  0.0033  0.0031
 1293ERGO    R216733   2.567  14.759   6.779  0.0279  0.0587  0.0819
 1293ERGO    R316734   2.726  14.969   6.847  0.1567 -0.0146  0.0116
 1293ERGO    R416735   2.650  14.847   7.102 -0.0027  0.1773  0.0581
 1293ERGO    R516736   2.626  15.056   7.047  0.1604  0.1649 -0.0633
 1293ERGO    C116737   2.847  15.095   7.355  0.1004  0.1776 -0.0217
 1293ERGO    C216738   2.691  15.065   7.691  0.0462  0.1689  0.1180
 1294ERGO   ROH16739  13.260  14.261   8.864  0.1856  0.1801  0.0632
 1294ERGO    R116740  13.153  14.229   8.604  0.3134 -0.2081  0.0498
 1294ERGO    R216741  13.078  14.444   8.447 -0.4230 -0.4461  0.0286
 1294ERGO    R316742  13.245  14.328   8.267  0.0236  0.1101  0.0601
 1294ERGO    R416743  13.031  14.445   8.105 -0.3434 -0.5876  0.0176
 1294ERGO    R516744  13.099  14.238   8.099  0.3537 -0.3762  0.0189
 1294ERGO    C116745  13.160  14.337   7.736  0.1222 -0.1478  0.0409
 1294ERGO    C216746  13.193  14.497   7.377  0.1434 -0.2620 -0.2402
 1295ERGO   ROH16747   5.528   5.226   6.380 -0.0723  0.0324 -0.0727
 1295ERGO    R116748   5.614   5.003   6.532  0.0235  0.1716  0.0772
 1295ERGO    R216749   5.659   5.017   6.805 -0.3228  0.2907  0.1222
 1295ERGO    R316750   5.485   4.808   6.810 -0.0691  0.0662 -0.0343
 1295ERGO    R416751   5.654   4.771   7.047 -0.3283  0.3973  0.2334
 1295ERGO    R516752   5.616   4.624   6.891  0.0758  0.2672  0.2304
 1295ERGO    C116753   5.488   4.431   7.194 -0.0934  0.2485  0.1512
 1295ERGO    C216754   5.560   4.265   7.451  0.2028  0.2026  0.2637
 1296ERGO   ROH16755  18.004   9.207   6.159  0.0536  0.0568 -0.0163
 1296ERGO    R116756  18.077   9.412   6.339 -0.0067  0.1662 -0.1131
 1296ERGO    R216757  17.960   9.663   6.335 -0.3492  0.0221  0.0041
 1296ERGO    R316758  17.911   9.609   6.596  0.0231 -0.0404  0.0644
 1296ERGO    R416759  17.997   9.888   6.595 -0.3375  0.0634 -0.0349
 1296ERGO    R516760  18.080   9.728   6.716  0.0065  0.1734 -0.1300
 1296ERGO    C116761  17.972   9.968   6.992  0.0189  0.0288 -0.0010
 1296ERGO    C216762  18.040   9.950   7.284 -0.0313 -0.2752 -0.4802
 1297ERGO   ROH16763   7.746  15.618   9.124 -0.3311  0.1974  0.0455
 1297ERGO    R116764   7.854  15.609   8.863 -0.0735  0.0260  0.1525
 1297ERGO    R216765   7.700  15.650   8.637  0.0818 -0.4032 -0.0515
 1297ERGO    R316766   7.889  15.838   8.583 -0.0842 -0.2420 -0.0701
 1297ERGO    R416767   7.754  15.792   8.326  0.0032 -0.4173 -0.0708
 1297ERGO    R516768   7.969  15.782   8.364  0.0011 -0.2107 -0.0407
 1297ERGO    C116769   7.962  16.052   8.095 -0.1985 -0.2744 -0.0995
 1297ERGO    C216770   7.941  16.145   7.745 -0.0247 -0.1239 -0.1459
 1298ERGO   ROH16771   3.898  13.184   6.140  0.2605 -0.0736 -0.0236
 1298ERGO    R116772   3.801  13.351   6.347  0.0040 -0.1279 -0.0958
 1298ERGO    R216773   3.628  13.260   6.542  0.0801 -0.2903 -0.0931
 1298ERGO    R316774   3.817  13.359   6.710 -0.0695  0.0107 -0.0967
 1298ERGO    R416775   3.604  13.265   6.887  0.0949 -0.3362 -0.0923
 1298ERGO    R516776   3.693  13.464   6.886 -0.2254 -0.1940 -0.0881
 1298ERGO    C116777   3.769  13.361   7.245 -0.0370 -0.0802 -0.0952
 1298ERGO    C216778   3.758  13.407   7.569  0.3159 -0.2655  0.1767
 1299ERGO   ROH16779  13.688  17.034   9.034 -0.2288  0.0971 -0.1648
 1299ERGO    R116780  13.795  16.871   8.829 -0.0620  0.1246 -0.1015
 1299ERGO    R216781  13.637  16.747   8.639  0.0494 -0.2074  0.0131
 1299ERGO    R316782  13.802  16.874   8.465 -0.1757 -0.0733 -0.1065
 1299ERGO    R416783  13.705  16.641   8.317 -0.0337 -0.1957 -0.0079
 1299ERGO    R516784  13.913  16.698   8.347 -0.0697  0.0146 -0.1392
 1299ERGO    C116785  13.900  16.699   7.966 -0.2934 -0.0633 -0.1325
 1299ERGO    C216786  13.901  16.802   7.778  0.1400  0.0329  0.2421
 1300ERGO   ROH16787   1.892   7.656  10.311  0.0044  0.0602  0.0028
 1300ERGO    R116788   1.914   7.513  10.067  0.0197  0.0632  0.0021
 1300ERGO    R216789   1.694   7.428   9.924  0.0272 -0.0391  0.0466
 1300ERGO    R316790   1.814   7.564   9.721 -0.0718  0.0107  0.0213
 1300ERGO    R416791   1.667   7.349   9.588  0.0363 -0.0806  0.0558
 1300ERGO    R516792   1.878   7.394   9.565  0.0064  0.0358  0.0283
 1300ERGO    C116793   1.764   7.430   9.203 -0.0513 -0.0579  0.0375
 1300ERGO    C216794   1.789   7.492   8.821  0.2583 -0.1584 -0.2333
 1301ERGO   ROH16795   8.393   5.931   9.974 -0.4068  0.1331 -0.0390
 1301ERGO    R116796   8.533   5.850   9.742 -0.3932 -0.0765  0.0386
 1301ERGO    R216797   8.413   5.708   9.538 -0.4978  0.1061 -0.0372
 1301ERGO    R316798   8.508   5.910   9.384 -0.1001 -0.0272  0.0257
 1301ERGO    R416799   8.419   5.707   9.192 -0.3962  0.1636 -0.0346
 1301ERGO    R516800   8.616   5.800   9.200 -0.2364 -0.1781  0.0393
 1301ERGO    C116801   8.512   5.897   8.846  0.0363  0.0720  0.0260
 1301ERGO    C216802   8.278   6.061   8.485  0.1034 -0.2305  0.0892
 1302ERGO   ROH16803  13.096  15.365   8.903 -0.0398 -0.3645 -0.0470
 1302ERGO    R116804  13.113  15.467   8.639 -0.0259 -0.1408  0.0376
 1302ERGO    R216805  13.201  15.315   8.426  0.0303  0.0505 -0.0843
 1302ERGO    R316806  12.964  15.390   8.316  0.0279  0.0975 -0.0440
 1302ERGO    R416807  13.154  15.401   8.094 -0.0429 -0.0629 -0.1029
 1302ERGO    R516808  13.022  15.561   8.159  0.0409  0.0099 -0.1290
 1302ERGO    C116809  12.905  15.521   7.798 -0.0879 -0.0849 -0.0760
 1302ERGO    C216810  12.763  15.599   7.440 -0.2630  0.1172  0.0183
 1303ERGO   ROH16811  12.279   3.003   9.751 -0.3221 -0.2717  0.0780
 1303ERGO    R116812  12.189   3.018   9.484 -0.0831 -0.1723  0.0025
 1303ERGO    R216813  12.165   3.258   9.348  0.0075 -0.1266  0.0882
 1303ERGO    R316814  12.323   3.133   9.165  0.1840 -0.0211  0.1622
 1303ERGO    R416815  12.170   3.328   9.009 -0.1187 -0.3193  0.0431
 1303ERGO    R516816  12.185   3.114   8.970  0.1858 -0.3379  0.1758
 1303ERGO    C116817  12.320   3.251   8.641 -0.0266 -0.3325  0.0863
 1303ERGO    C216818  12.364   3.315   8.258 -0.2372 -0.2112 -0.0999
 1304ERGO   ROH16819  13.968   5.408   6.815 -0.0249  0.0753  0.0171
 1304ERGO    R116820  14.056   5.375   7.082 -0.0065  0.1294  0.0185
 1304ERGO    R216821  13.944   5.189   7.253  0.0684  0.0964  0.0358
 1304ERGO    R316822  14.201   5.106   7.281  0.1018  0.2000  0.0345
 1304ERGO    R416823  14.058   4.980   7.504  0.1122 -0.0307 -0.0895
 1304ERGO    R516824  14.238   5.103   7.517  0.0491  0.0457  0.0404
 1304ERGO    C116825  14.366   4.781   7.675  0.1691 -0.0075 -0.1636
 1304ERGO    C216826  14.457   4.694   7.987 -0.2266 -0.2781 -0.0922
 1305ERGO   ROH16827   8.244  14.936   9.155  0.0509  0.0737 -0.1332
 1305ERGO    R116828   8.264  14.758   8.936  0.3424  0.0082 -0.0572
 1305ERGO    R216829   8.125  14.795   8.700  0.0934 -0.4396  0.0110
 1305ERGO    R316830   8.372  14.777   8.589  0.0805  0.1039 -0.1363
 1305ERGO    R416831   8.188  14.715   8.370  0.0679 -0.4225  0.0016
 1305ERGO    R516832   8.355  14.594   8.436  0.4124 -0.0076 -0.0509
 1305ERGO    C116833   8.456  14.652   8.073  0.0411  0.0975 -0.1421
 1305ERGO    C216834   8.640  14.690   7.779  0.1265  0.2307 -0.1394
 1306ERGO   ROH16835   2.950  10.872   6.224  0.2138  0.0544  0.0068
 1306ERGO    R116836   3.029  10.788   6.483  0.3244  0.1516  0.0050
 1306ERGO    R216837   3.196  10.937   6.643  0.0958  0.3913  0.0230
 1306ERGO    R316838   2.994  10.912   6.823  0.1199  0.0792  0.0125
 1306ERGO    R416839   3.222  11.006   6.981 -0.0725  0.6147 -0.0067
 1306ERGO    R516840   3.101  10.830   7.021  0.2676  0.3853  0.0666
 1306ERGO    C116841   3.047  11.023   7.346 -0.1479  0.4517 -0.0339
 1306ERGO    C216842   3.131  10.981   7.715 -0.2440 -0.1211  0.1749
 1307ERGO   ROH16843   1.556   8.736  10.207  0.0233 -0.0585 -0.0930
 1307ERGO    R116844   1.670   8.865   9.983  0.1072 -0.1906 -0.1285
 1307ERGO    R216845   1.772   8.726   9.767 -0.1671 -0.3138 -0.1866
 1307ERGO    R316846   1.601   8.884   9.626 -0.0180 -0.0692 -0.0985
 1307ERGO    R416847   1.723   8.708   9.425 -0.2735 -0.1515 -0.1808
 1307ERGO    R516848   1.716   8.926   9.420 -0.0196 -0.1405 -0.1121
 1307ERGO    C116849   1.535   8.845   9.094 -0.1955  0.1726 -0.0945
 1307ERGO    C216850   1.630   8.789   8.845  0.2477  0.1465  0.2855
 1308ERGO   ROH16851   6.347  17.807   5.897 -0.1695 -0.2830 -0.0066
 1308ERGO    R116852   6.431  17.730   6.156 -0.2889 -0.2895  0.0302
 1308ERGO    R216853   6.558  17.904   6.328 -0.0060 -0.4032 -0.0647
 1308ERGO    R316854   6.359  17.830   6.498 -0.1254  0.0014 -0.0155
 1308ERGO    R416855   6.575  17.925   6.673  0.2011 -0.5860 -0.0607
 1308ERGO    R516856   6.474  17.732   6.684 -0.2686 -0.3620 -0.1052
 1308ERGO    C116857   6.398  17.867   7.033  0.2096 -0.3127 -0.0122
 1308ERGO    C216858   6.380  17.790   7.335  0.4138 -0.4688  0.2718
 1309ERGO   ROH16859   0.289  12.628   6.588 -0.0477  0.2706 -0.1045
 1309ERGO    R116860   0.426  12.688   6.828 -0.0361  0.2243 -0.0983
 1309ERGO    R216861   0.537  12.936   6.878  0.0716  0.1826 -0.1032
 1309ERGO    R316862   0.386  12.923   7.104  0.0469  0.2581 -0.1165
 1309ERGO    R416863   0.597  13.117   7.167  0.2466  0.0081 -0.0282
 1309ERGO    R516864   0.544  12.940   7.283  0.0531  0.0211 -0.1008
 1309ERGO    C116865   0.489  13.210   7.546  0.3255 -0.0227  0.0030
 1309ERGO    C216866   0.589  13.500   7.729  0.2329  0.3633 -0.0878
 1310ERGO   ROH16867  15.329  10.379   6.388 -0.2299 -0.0849 -0.0279
 1310ERGO    R116868  15.342  10.284   6.654 -0.1214 -0.0499 -0.0184
 1310ERGO    R216869  15.572  10.177   6.761 -0.0864 -0.0899 -0.1108
 1310ERGO    R316870  15.531  10.364   6.954  0.0474 -0.0464 -0.1266
 1310ERGO    R416871  15.646  10.133   7.096 -0.2604 -0.1636 -0.0823
 1310ERGO    R516872  15.460  10.237   7.145 -0.1608  0.0377 -0.1525
 1310ERGO    C116873  15.651  10.283   7.473 -0.2362 -0.1658 -0.0805
 1310ERGO    C216874  15.641  10.190   7.829  0.0029 -0.0462 -0.2450
 1311ERGO   ROH16875  13.086   7.670   9.484 -0.0224  0.0334 -0.0853
 1311ERGO    R116876  13.280   7.632   9.282 -0.0835 -0.1451 -0.1104
 1311ERGO    R216877  13.214   7.583   9.019 -0.1663  0.1242 -0.1370
 1311ERGO    R316878  13.376   7.796   8.972  0.1724 -0.0966 -0.0095
 1311ERGO    R416879  13.314   7.689   8.705 -0.4430  0.4561 -0.1198
 1311ERGO    R516880  13.513   7.727   8.787 -0.2319 -0.0615 -0.3405
 1311ERGO    C116881  13.524   7.951   8.479 -0.2863  0.4421  0.0098
 1311ERGO    C216882  13.700   8.096   8.223  0.2141  0.1460  0.0560
 1312ERGO   ROH16883   1.204  18.470   6.318  0.3863  0.1195  0.0689
 1312ERGO    R116884   1.123  18.304   6.532  0.2521  0.1825  0.0684
 1312ERGO    R216885   1.227  18.051   6.572  0.0329  0.0867  0.0539
 1312ERGO    R316886   1.281  18.148   6.820  0.1339  0.0332  0.0529
 1312ERGO    R416887   1.233  17.861   6.861 -0.0404  0.0628  0.0399
 1312ERGO    R516888   1.135  18.026   6.965  0.0807  0.1163  0.0676
 1312ERGO    C116889   1.288  17.842   7.262  0.0117 -0.0013  0.0310
 1312ERGO    C216890   1.148  17.534   7.517 -0.1908  0.1687 -0.2155
 1313ERGO   ROH16891   0.720  11.776   9.748  0.1222  0.1454 -0.1303
 1313ERGO    R116892   0.593  11.819   9.499  0.0180  0.1139 -0.0845
 1313ERGO    R216893   0.734  11.883   9.269 -0.0904  0.2600 -0.1178
 1313ERGO    R316894   0.602  11.668   9.168  0.0258  0.1893 -0.1174
 1313ERGO    R416895   0.751  11.778   8.940  0.1151  0.1423 -0.0711
 1313ERGO    R516896   0.537  11.736   8.948  0.1274  0.0876 -0.1759
 1313ERGO    C116897   0.636  11.515   8.654  0.3438  0.0074 -0.0435
 1313ERGO    C216898   0.607  11.523   8.323  0.0331  0.2221 -0.3387
 1314ERGO   ROH16899  12.260  11.083   9.357  0.1334  0.0518 -0.1467
 1314ERGO    R116900  12.299  10.995   9.091  0.0636  0.1448 -0.1858
 1314ERGO    R216901  12.174  11.114   8.875  0.0865  0.2795 -0.1125
 1314ERGO    R316902  12.428  11.138   8.782  0.0818  0.2135 -0.1502
 1314ERGO    R416903  12.263  11.106   8.542  0.0092  0.3337 -0.1367
 1314ERGO    R516904  12.438  10.987   8.596 -0.0148  0.2502 -0.1959
 1314ERGO    C116905  12.554  11.124   8.260 -0.0402  0.3034 -0.1861
 1314ERGO    C216906  12.518  11.086   7.864  0.0941 -0.1281 -0.3908
 1315ERGO   ROH16907   7.392   7.781   6.605 -0.0333  0.0729  0.0398
 1315ERGO    R116908   7.391   7.900   6.862 -0.0272  0.0902  0.0299
 1315ERGO    R216909   7.164   7.917   7.017  0.0157 -0.0420  0.0938
 1315ERGO    R316910   7.319   7.793   7.203  0.1469  0.0732  0.0653
 1315ERGO    R416911   7.084   7.887   7.352 -0.1303 -0.4742  0.0278
 1315ERGO    R516912   7.294   7.927   7.400 -0.2120 -0.1299  0.1744
 1315ERGO    C116913   7.184   7.753   7.721 -0.0922 -0.6176 -0.0373
 1315ERGO    C216914   7.154   7.807   8.012 -0.0890  0.0765  0.0846
 1316ERGO   ROH16915  16.412  10.341   9.558  0.0020  0.1442 -0.0236
 1316ERGO    R116916  16.393  10.531   9.350  0.0183  0.1334 -0.0341
 1316ERGO    R216917  16.555  10.755   9.337  0.0909  0.0750 -0.0890
 1316ERGO    R316918  16.612  10.660   9.089  0.0013  0.0385 -0.0971
 1316ERGO    R416919  16.562  10.947   9.050  0.2181  0.0842 -0.0809
 1316ERGO    R516920  16.466  10.783   8.944  0.0820  0.1593 -0.0818
 1316ERGO    C116921  16.620  10.970   8.650  0.2084  0.0553 -0.0840
 1316ERGO    C216922  16.530  11.165   8.438  0.1342 -0.0878 -0.1654
 1317ERGO   ROH16923   1.230   3.269   9.808 -0.2761  0.1877 -0.0279
 1317ERGO    R116924   1.255   3.235   9.528 -0.2610  0.1814 -0.0249
 1317ERGO    R216925   1.146   3.412   9.346  0.0077  0.3401 -0.0290
 1317ERGO    R316926   1.401   3.421   9.251  0.0413  0.0195  0.0186
 1317ERGO    R416927   1.231   3.442   9.013  0.0918  0.4222 -0.0010
 1317ERGO    R516928   1.391   3.298   9.046 -0.1202  0.1542 -0.0628
 1317ERGO    C116929   1.520   3.468   8.729  0.1723  0.1691  0.0599
 1317ERGO    C216930   1.459   3.484   8.445 -0.1649  0.0828 -0.1789
 1318ERGO   ROH16931   7.001   1.578   5.846  0.0487  0.0210 -0.0605
 1318ERGO    R116932   6.904   1.674   6.093 -0.0008  0.0630 -0.0951
 1318ERGO    R216933   7.046   1.650   6.328 -0.1275 -0.0696 -0.0239
 1318ERGO    R316934   7.009   1.919   6.341  0.0631 -0.0423 -0.0196
 1318ERGO    R416935   6.956   1.824   6.614 -0.3015 -0.0419 -0.0950
 1318ERGO    R516936   6.824   1.946   6.491 -0.0758  0.0781 -0.2147
 1318ERGO    C116937   6.868   2.177   6.792 -0.2238 -0.0002 -0.1325
 1318ERGO    C216938   6.912   2.257   7.120 -0.3443  0.1827 -0.0590
 1319ERGO   ROH16939   2.563   6.112   9.997 -0.1503 -0.4276  0.2055
 1319ERGO    R116940   2.560   6.001   9.737 -0.1526 -0.3523  0.1752
 1319ERGO    R216941   2.354   6.045   9.558 -0.0210 -0.0785  0.0979
 1319ERGO    R316942   2.556   6.127   9.395  0.1414 -0.2543  0.2035
 1319ERGO    R416943   2.330   6.081   9.215  0.1042  0.1992  0.1131
 1319ERGO    R516944   2.530   5.996   9.197 -0.0072 -0.0827  0.1026
 1319ERGO    C116945   2.505   6.178   8.863  0.3297  0.1959  0.2209
 1319ERGO    C216946   2.439   6.208   8.546 -0.0751 -0.0635 -0.1705
 1320ERGO   ROH16947  12.239  12.639   5.987  0.0633 -0.0401  0.1019
 1320ERGO    R116948  12.398  12.669   6.219  0.0400 -0.0545  0.1200
 1320ERGO    R216949  12.293  12.662   6.474  0.0113 -0.0501  0.1092
 1320ERGO    R316950  12.479  12.468   6.512 -0.0073 -0.0642  0.1262
 1320ERGO    R416951  12.405  12.553   6.783  0.0120 -0.0242  0.1179
 1320ERGO    R516952  12.607  12.544   6.700  0.0073 -0.0548  0.1119
 1320ERGO    C116953  12.645  12.308   6.997 -0.0050 -0.0225  0.1389
 1320ERGO    C216954  12.871  12.197   7.329  0.2328  0.3216 -0.1538
 1321ERGO   ROH16955  13.495  10.212   6.149  0.0035 -0.0661  0.0903
 1321ERGO    R116956  13.402  10.340   6.384 -0.0667 -0.0421  0.0494
 1321ERGO    R216957  13.248  10.211   6.573  0.0793 -0.0941  0.1320
 1321ERGO    R316958  13.442  10.295   6.743  0.0362  0.1518  0.0640
 1321ERGO    R416959  13.199  10.288   6.906  0.0816 -0.0844  0.1304
 1321ERGO    R516960  13.334  10.457   6.882 -0.1071  0.0623  0.0615
 1321ERGO    C116961  13.354  10.412   7.260  0.0426  0.1522  0.0657
 1321ERGO    C216962  13.538  10.441   7.565 -0.1372 -0.2078  0.0353
 1322ERGO   ROH16963  13.902   2.535   5.800 -0.2212 -0.0123 -0.0787
 1322ERGO    R116964  13.908   2.350   6.013 -0.0528  0.0160 -0.0578
 1322ERGO    R216965  14.060   2.390   6.241 -0.0746  0.1710 -0.0691
 1322ERGO    R316966  13.822   2.351   6.367 -0.0366 -0.0169 -0.0539
 1322ERGO    R416967  14.020   2.362   6.583 -0.0742  0.5262 -0.0362
 1322ERGO    R516968  13.875   2.203   6.548  0.1541  0.2723  0.1336
 1322ERGO    C116969  13.774   2.309   6.901 -0.0384  0.5568 -0.0029
 1322ERGO    C216970  13.848   2.307   7.275 -0.0557 -0.1623 -0.1707
 1323ERGO   ROH16971  11.635  13.737   9.035 -0.0764  0.3163  0.1156
 1323ERGO    R116972  11.729  13.801   8.776  0.1396  0.3831  0.2060
 1323ERGO    R216973  11.605  13.710   8.546  0.5834  0.0579  0.0663
 1323ERGO    R316974  11.600  13.974   8.484  0.1783  0.0349 -0.0194
 1323ERGO    R416975  11.615  13.838   8.225  0.2998 -0.0017  0.0320
 1323ERGO    R516976  11.748  13.995   8.297  0.0864  0.2091 -0.0623
 1323ERGO    C116977  11.616  14.161   7.980 -0.2455 -0.0580 -0.0683
 1323ERGO    C216978  11.724  14.324   7.729 -0.3116  0.1134  0.2883
 1324ERGO   ROH16979   0.058   8.510   9.985  0.1557  0.0965  0.0572
 1324ERGO    R116980   0.164   8.549   9.726  0.3534 -0.1035  0.1050
 1324ERGO    R216981   0.272   8.342   9.576 -0.1610 -0.3628  0.0748
 1324ERGO    R316982   0.092   8.428   9.390  0.1205  0.2005  0.0399
 1324ERGO    R416983   0.319   8.328   9.234 -0.1448 -0.5403  0.0833
 1324ERGO    R516984   0.226   8.524   9.218  0.4707 -0.2280  0.0523
 1324ERGO    C116985   0.178   8.400   8.861  0.1289 -0.1148  0.0556
 1324ERGO    C216986   0.265   8.344   8.654 -0.1440 -0.1850 -0.1674
 1325ERGO   ROH16987   8.233  14.613   5.694  0.3365 -0.2598 -0.1012
 1325ERGO    R116988   8.353  14.758   5.906  0.1759  0.1020 -0.2493
 1325ERGO    R216989   8.281  15.018   5.969 -0.4650 -0.0657 -0.2216
 1325ERGO    R316990   8.243  14.913   6.216  0.0730 -0.1450 -0.1607
 1325ERGO    R416991   8.212  15.201   6.254 -0.1829 -0.1804 -0.0764
 1325ERGO    R516992   8.345  15.070   6.365  0.1574 -0.0519 -0.3151
 1325ERGO    C116993   8.137  15.209   6.652  0.4864 -0.3216  0.0653
 1325ERGO    C216994   7.937  15.261   6.992  0.1873  0.0691  0.0953
 1326ERGO   ROH16995  11.524   4.537   6.569 -0.2534 -0.1163  0.0393
 1326ERGO    R116996  11.729   4.546   6.764 -0.2883 -0.0143  0.0716
 1326ERGO    R216997  11.684   4.490   7.031 -0.2696 -0.2073  0.0365
 1326ERGO    R316998  11.886   4.312   6.994 -0.0821  0.0155 -0.0364
 1326ERGO    R416999  11.895   4.377   7.280 -0.1915 -0.1408  0.0010
 1326ERGO    R517000  12.060   4.390   7.139 -0.1809  0.1075  0.0337
 1326ERGO    C117001  12.208   4.144   7.390  0.0300  0.1071 -0.0881
 1326ERGO    C217002  12.231   3.877   7.568 -0.0701 -0.3378  0.3743
 1327ERGO   ROH17003  13.458  16.898   5.405 -0.1530  0.0457 -0.0967
 1327ERGO    R117004  13.306  16.985   5.628 -0.1412 -0.1218 -0.0211
 1327ERGO    R217005  13.279  16.835   5.858  0.2106 -0.1177  0.0302
 1327ERGO    R317006  13.370  17.062   5.977 -0.0290  0.0368 -0.0760
 1327ERGO    R417007  13.181  16.948   6.170  0.0124 -0.0077 -0.0708
 1327ERGO    R517008  13.178  17.151   6.090 -0.1411 -0.0597 -0.1931
 1327ERGO    C117009  13.208  17.227   6.462 -0.3278  0.2015 -0.2292
 1327ERGO    C217010  13.131  17.083   6.749 -0.0689 -0.2622 -0.1033
 1328ERGO   ROH17011   8.774  12.700   9.452  0.1399 -0.0505 -0.0156
 1328ERGO    R117012   8.908  12.706   9.202  0.0376  0.1281 -0.0655
 1328ERGO    R217013   8.782  12.640   8.965  0.0418 -0.0619 -0.0044
 1328ERGO    R317014   8.872  12.885   8.887 -0.3329  0.0635 -0.0684
 1328ERGO    R417015   8.895  12.716   8.647  0.3671 -0.1301  0.0899
 1328ERGO    R517016   9.054  12.836   8.738  0.0055  0.2798  0.2429
 1328ERGO    C117017   9.045  12.990   8.389  0.2048 -0.0521  0.0848
 1328ERGO    C217018   9.093  13.218   8.225 -0.1507 -0.3441  0.0630
 1329ERGO   ROH17019  17.504  14.725   6.062  0.0357 -0.0540  0.0147
 1329ERGO    R117020  17.612  14.651   6.313  0.0584  0.0375  0.0327
 1329ERGO    R217021  17.660  14.835   6.514  0.1128  0.1190 -0.0495
 1329ERGO    R317022  17.506  14.666   6.661  0.1048  0.2036  0.0395
 1329ERGO    R417023  17.617  14.855   6.856  0.0128  0.3672 -0.0751
 1329ERGO    R517024  17.628  14.638   6.865  0.0501  0.3794  0.0946
 1329ERGO    C117025  17.447  14.709   7.193 -0.0529  0.5911 -0.0065
 1329ERGO    C217026  17.405  14.791   7.568  0.0909  0.0828  0.1997
 1330ERGO   ROH17027   6.983  12.191   9.559  0.1943  0.1649 -0.0171
 1330ERGO    R117028   7.060  12.003   9.362  0.0401 -0.0066  0.0824
 1330ERGO    R217029   6.877  11.846   9.226 -0.0988  0.1273  0.1098
 1330ERGO    R317030   6.998  11.952   9.007  0.0668 -0.0956  0.0906
 1330ERGO    R417031   6.807  11.757   8.900 -0.3698  0.2998  0.1184
 1330ERGO    R517032   7.020  11.767   8.856 -0.3517 -0.1344  0.0650
 1330ERGO    C117033   6.879  11.804   8.504 -0.3720  0.1910  0.1052
 1330ERGO    C217034   6.885  11.757   8.151  0.0043  0.2525  0.4803
 1331ERGO   ROH17035  16.958   9.615   6.415 -0.1513  0.2649  0.0102
 1331ERGO    R117036  16.850   9.711   6.658 -0.1047  0.2297  0.0452
 1331ERGO    R217037  16.957   9.648   6.905 -0.0650  0.1839  0.0160
 1331ERGO    R317038  16.964   9.918   6.935 -0.0473  0.1785  0.0599
 1331ERGO    R417039  16.975   9.812   7.208 -0.0733  0.1335  0.0439
 1331ERGO    R517040  16.834   9.959   7.131 -0.0575  0.1564  0.0579
 1331ERGO    C117041  16.992  10.162   7.413 -0.0616  0.0992  0.1014
 1331ERGO    C217042  16.886  10.253   7.765 -0.0257  0.3007  0.1648
 1332ERGO   ROH17043   5.823   3.839   9.826 -0.1437 -0.2894 -0.0357
 1332ERGO    R117044   5.889   4.017   9.615 -0.2732 -0.1854  0.0103
 1332ERGO    R217045   5.993   3.930   9.375 -0.0465 -0.0333  0.0531
 1332ERGO    R317046   5.784   4.069   9.271 -0.1799 -0.2930 -0.0361
 1332ERGO    R417047   5.970   4.032   9.045  0.1420  0.2287  0.1176
 1332ERGO    R517048   5.886   4.221   9.116 -0.2620  0.0305  0.2131
 1332ERGO    C117049   5.759   4.223   8.756  0.1267  0.1376  0.0714
 1332ERGO    C217050   5.718   4.245   8.376 -0.1322 -0.2817 -0.0348
 1333ERGO   ROH17051  11.414   7.494   6.060  0.1916  0.1716  0.0135
 1333ERGO    R117052  11.384   7.442   6.336  0.0590  0.1990  0.0039
 1333ERGO    R217053  11.598   7.430   6.510 -0.0022 -0.0216  0.0634
 1333ERGO    R317054  11.455   7.617   6.647  0.1473  0.1232  0.0276
 1333ERGO    R417055  11.665   7.531   6.834 -0.0668 -0.2009  0.1340
 1333ERGO    R517056  11.450   7.533   6.872 -0.0935  0.0600  0.0035
 1333ERGO    C117057  11.569   7.764   7.152  0.0360 -0.1694  0.1416
 1333ERGO    C217058  11.685   7.919   7.359  0.1280  0.3972  0.1001
 1334ERGO   ROH17059   7.886   7.040   6.347  0.1830 -0.1157 -0.1203
 1334ERGO    R117060   7.908   6.928   6.606  0.2082 -0.0252 -0.0834
 1334ERGO    R217061   8.109   6.998   6.782  0.0873  0.2111 -0.0405
 1334ERGO    R317062   7.901   7.049   6.949 -0.0131  0.0605 -0.1160
 1334ERGO    R417063   8.109   6.936   7.122 -0.0230  0.1181 -0.0565
 1334ERGO    R517064   7.903   6.867   7.104  0.0155  0.0158 -0.1644
 1334ERGO    C117065   7.913   6.949   7.477 -0.1815 -0.0775 -0.1367
 1334ERGO    C217066   7.841   6.828   7.861  0.2231  0.0304 -0.2469
 1335ERGO   ROH17067  11.511  13.109   9.282 -0.0329  0.1629 -0.1000
 1335ERGO    R117068  11.554  12.923   9.074 -0.0879  0.2415 -0.1820
 1335ERGO    R217069  11.660  12.996   8.829  0.2374  0.2656 -0.0381
 1335ERGO    R317070  11.839  12.799   8.885 -0.0727 -0.0131  0.0038
 1335ERGO    R417071  11.845  12.825   8.593  0.3076  0.2487  0.0284
 1335ERGO    R517072  11.811  12.641   8.706 -0.0602  0.1817 -0.1733
 1335ERGO    C117073  12.121  12.540   8.507  0.0574 -0.0229  0.1065
 1335ERGO    C217074  12.329  12.504   8.206  0.4011  0.0407 -0.1148
 1336ERGO   ROH17075  12.913   5.455   9.738 -0.1868 -0.2520  0.1445
 1336ERGO    R117076  12.830   5.321   9.503 -0.2212 -0.1250  0.0829
 1336ERGO    R217077  12.602   5.393   9.363 -0.1178  0.1010  0.0210
 1336ERGO    R317078  12.775   5.409   9.154 -0.0303  0.0098  0.0862
 1336ERGO    R417079  12.514   5.480   9.041  0.0266 -0.0205 -0.0523
 1336ERGO    R517080  12.649   5.326   8.967  0.0470 -0.0543  0.0653
 1336ERGO    C117081  12.624   5.545   8.656  0.1927 -0.1769 -0.0339
 1336ERGO    C217082  12.558   5.536   8.274 -0.0042 -0.4013 -0.0495
 1337ERGO   ROH17083  14.860   3.083   9.356  0.2683 -0.3358 -0.0149
 1337ERGO    R117084  14.694   3.097   9.127  0.0621 -0.2027  0.1382
 1337ERGO    R217085  14.791   3.067   8.870 -0.1477  0.0476  0.0187
 1337ERGO    R317086  14.599   2.875   8.855 -0.0893 -0.0107  0.0337
 1337ERGO    R417087  14.638   2.964   8.578 -0.2981  0.1481  0.0624
 1337ERGO    R517088  14.449   2.954   8.687 -0.2234  0.0228  0.1733
 1337ERGO    C117089  14.368   2.724   8.394 -0.3307  0.1518  0.1018
 1337ERGO    C217090  14.291   2.648   8.017 -0.0259  0.1235  0.1084
 1338ERGO   ROH17091   3.101   2.528   9.420 -0.1523 -0.4139  0.0807
 1338ERGO    R117092   3.146   2.448   9.152 -0.2021 -0.2447  0.0202
 1338ERGO    R217093   2.978   2.519   8.945 -0.1305  0.0591  0.0609
 1338ERGO    R317094   3.207   2.613   8.833 -0.0424 -0.0452  0.1517
 1338ERGO    R417095   3.013   2.609   8.613  0.0118  0.1534  0.1008
 1338ERGO    R517096   3.210   2.516   8.614 -0.0468  0.0295  0.1191
 1338ERGO    C117097   3.249   2.750   8.315  0.1774  0.1103  0.2092
 1338ERGO    C217098   3.088   2.820   8.064 -0.1335 -0.2130 -0.1652
 1339ERGO   ROH17099  18.495   6.656  10.026 -0.2619  0.2608 -0.0107
 1339ERGO    R117100  18.393   6.577   9.774 -0.1728  0.1249 -0.0063
 1339ERGO    R217101  18.246   6.748   9.612 -0.1125  0.0440 -0.1567
 1339ERGO    R317102  18.435   6.682   9.428 -0.0426 -0.0634 -0.0478
 1339ERGO    R417103  18.182   6.679   9.280  0.0181 -0.2214 -0.1290
 1339ERGO    R517104  18.328   6.518   9.290  0.0396 -0.1845  0.0392
 1339ERGO    C117105  18.321   6.577   8.913  0.1599 -0.4767 -0.0108
 1339ERGO    C217106  18.364   6.600   8.558  0.2390  0.1251  0.3019
 1340ERGO   ROH17107  14.910  11.411   5.992  0.1014 -0.0315 -0.0105
 1340ERGO    R117108  14.991  11.280   6.229  0.0732 -0.0569 -0.0150
 1340ERGO    R217109  15.256  11.249   6.299  0.0662 -0.1055 -0.0102
 1340ERGO    R317110  15.176  11.368   6.530  0.0808 -0.1033 -0.0062
 1340ERGO    R417111  15.434  11.244   6.595 -0.0505 -0.3472  0.0586
 1340ERGO    R517112  15.246  11.216   6.702 -0.1169 -0.2153 -0.0223
 1340ERGO    C117113  15.463  11.353   6.985 -0.1047 -0.4859  0.1023
 1340ERGO    C217114  15.454  11.411   7.315  0.0033  0.1221  0.0560
 1341ERGO   ROH17115   6.114   5.638   6.985  0.0436  0.2680 -0.0206
 1341ERGO    R117116   5.899   5.615   7.168  0.1311  0.0355  0.0586
 1341ERGO    R217117   5.937   5.545   7.433  0.3183  0.1874  0.0800
 1341ERGO    R317118   5.800   5.776   7.479  0.0105  0.0192  0.0272
 1341ERGO    R417119   5.791   5.633   7.734  0.1844  0.0647  0.0509
 1341ERGO    R517120   5.621   5.711   7.624  0.0874 -0.1826  0.0289
 1341ERGO    C117121   5.578   5.899   7.953 -0.1826 -0.1647 -0.0156
 1341ERGO    C217122   5.378   6.048   8.311 -0.0678  0.4107 -0.0187
 1342ERGO   ROH17123  13.173   8.717   6.115  0.1783  0.1725  0.0068
 1342ERGO    R117124  13.296   8.709   6.370  0.1104  0.1410  0.0376
 1342ERGO    R217125  13.158   8.762   6.603  0.0442  0.0836  0.0046
 1342ERGO    R317126  13.254   8.519   6.677  0.0523  0.0829 -0.0037
 1342ERGO    R417127  13.238   8.670   6.927 -0.4465 -0.0836  0.0885
 1342ERGO    R517128  13.413   8.567   6.849 -0.2524  0.0609  0.3012
 1342ERGO    C117129  13.375   8.389   7.184 -0.7246 -0.1818  0.1294
 1342ERGO    C217130  13.264   8.371   7.481  0.2742 -0.1724  0.0706
 1343ERGO   ROH17131  17.813   2.075   5.942 -0.0421 -0.1341  0.0642
 1343ERGO    R117132  17.712   2.038   6.204  0.0498 -0.1162  0.1028
 1343ERGO    R217133  17.603   1.798   6.288 -0.1170 -0.0467  0.0895
 1343ERGO    R317134  17.786   1.823   6.487  0.0008 -0.2573  0.0100
 1343ERGO    R417135  17.635   1.580   6.555 -0.2644 -0.0778  0.0825
 1343ERGO    R517136  17.670   1.752   6.684 -0.0020 -0.1105  0.0626
 1343ERGO    C117137  17.826   1.477   6.897 -0.2395 -0.2937  0.0038
 1343ERGO    C217138  17.970   1.229   6.928 -0.3136  0.1317  0.0777
 1344ERGO   ROH17139   6.186  12.838   9.664  0.0823 -0.1495  0.1179
 1344ERGO    R117140   6.226  12.933   9.400  0.0573 -0.0038  0.1656
 1344ERGO    R217141   6.448  12.864   9.249  0.0271  0.0579  0.0944
 1344ERGO    R317142   6.261  12.785   9.069 -0.0036  0.1832  0.0755
 1344ERGO    R417143   6.503  12.825   8.910  0.0622 -0.0782  0.1151
 1344ERGO    R517144   6.307  12.914   8.873  0.1536  0.0883  0.0523
 1344ERGO    C117145   6.359  12.728   8.544  0.0538 -0.0399  0.1092
 1344ERGO    C217146   6.356  12.645   8.243  0.1578 -0.0923  0.0486
 1345ERGO   ROH17147   8.390  16.925   9.086  0.4468 -0.1207 -0.0705
 1345ERGO    R117148   8.288  16.935   8.822  0.2131 -0.2476  0.0124
 1345ERGO    R217149   8.351  17.139   8.646 -0.1941 -0.1627 -0.0391
 1345ERGO    R317150   8.426  16.933   8.486 -0.0610 -0.0649 -0.1055
 1345ERGO    R417151   8.404  17.163   8.306 -0.3456 -0.0422 -0.0559
 1345ERGO    R517152   8.306  16.970   8.282 -0.1769 -0.1338 -0.0544
 1345ERGO    C117153   8.505  16.984   7.957 -0.3088  0.1200 -0.1281
 1345ERGO    C217154   8.472  16.930   7.604 -0.1924  0.3269 -0.1224
 1346W        W17155  17.266   8.623  13.203 -0.0970 -0.1340 -0.1249
 1347W        W17156  14.071  18.127  12.690 -0.0511  0.0305 -0.0270
 1348W        W17157  11.050  14.502  14.218 -0.0940 -0.1257  0.0642
 1349W        W17158  12.880  13.887   4.542 -0.2674  0.0651  0.0120
 1350W        W17159  10.203   2.065   2.937 -0.0900 -0.2584  0.0990
 1351W        W17160   3.531   6.101  11.884 -0.0183 -0.3151 -0.0759
 1352W        W17161   8.077   1.902  13.797  0.1073 -0.0333  0.1159
 1353W        W17162   0.025   0.846   4.114  0.0493  0.1642 -0.0736
 1354W        W17163  15.088   9.598   1.007 -0.1920 -0.2955 -0.2853
 1355W        W17164  16.979  14.236  14.114 -0.1363 -0.0745 -0.2709
 1356W        W17165   4.610   7.365   4.243 -0.1107  0.0039  0.1309
 1357W        W17166  12.043   1.159   1.351  0.1442  0.3114  0.2937
 1358W        W17167   7.317   9.792  12.368 -0.3597  0.3351  0.0509
 1359W        W17168  14.188   6.528  14.649  0.2274 -0.1132 -0.4378
 1360W        W17169  13.570  18.390  10.094  0.1644 -0.3026  0.0882
 1361W        W17170   6.827   3.574   4.835  0.1713 -0.0816 -0.1317
 1362W        W17171  16.697  16.865  13.058  0.0675 -0.2909  0.1931
 1363W        W17172   8.745   8.200  12.221  0.1876 -0.1017 -0.2957
 1364W        W17173  16.567   3.739   3.990 -0.0211 -0.1213 -0.4620
 1365W        W17174  17.706  14.773  14.454 -0.2270 -0.1718 -0.0444
 1366W        W17175   9.669   6.138  11.666  0.1102 -0.2141  0.0046
 1367W        W17176   3.055   2.180  14.057 -0.1690 -0.3634 -0.0054
 1368W        W17177  12.700   0.870   3.917  0.1360 -0.0043  0.1364
 1369W        W17178  16.938  17.995   5.249 -0.2393 -0.0123  0.2423
 1370W        W17179  12.899  15.113   4.962  0.1311 -0.1471 -0.2616
 1371W        W17180  11.582  14.213  13.611 -0.2852 -0.2793  0.1144
 1372W        W17181  14.934  13.717  12.600  0.3363  0.1049 -0.2668
 1373W        W17182  14.439  10.924   2.170 -0.1515  0.4184  0.2164
 1374W        W17183  10.040   4.716   1.540  0.1077 -0.2116 -0.1426
 1375W        W17184   9.666   7.582   1.576  0.0315  0.0938  0.1542
 1376W        W17185   8.430  10.120   0.077 -0.2265  0.0026  0.4133
 1377W        W17186   2.849  14.329   0.788  0.0828  0.0914 -0.1036
 1378W        W17187   8.763   5.182   0.758 -0.0577  0.0119 -0.1410
 1379W        W17188  10.841   7.880   3.290  0.4204  0.2917 -0.2196
 1380W        W17189  17.284   6.979  14.035  0.1072  0.2202  0.0884
 1381W        W17190  12.352  14.678   4.586  0.3790 -0.0968  0.1213
 1382W        W17191  10.614   1.629   2.912 -0.0829 -0.0668 -0.1529
 1383W        W17192   7.606  12.692  13.327 -0.1968  0.1070  0.0022
 1384W        W17193  16.189   4.128   3.895  0.2852 -0.1902 -0.1508
 1385W        W17194  15.254   7.081  10.444  0.1100 -0.0308  0.0606
 1386W        W17195  14.931   2.087  14.736 -0.0535  0.0867  0.2083
 1387W        W17196   6.326   5.542  10.955 -0.0627  0.0357 -0.1279
 1388W        W17197   1.576  15.448   1.891 -0.0300 -0.1839 -0.1180
 1389W        W17198  14.766  14.557  12.395 -0.0986 -0.5021  0.2101
 1390W        W17199  16.525   7.428  12.532 -0.1238  0.2794 -0.1319
 1391W        W17200   6.441   2.230   1.841  0.0110 -0.2483 -0.0889
 1392W        W17201   8.426   0.688  13.395 -0.1518 -0.2083 -0.1940
 1393W        W17202  12.607  11.766   1.879  0.3833  0.2987 -0.1445
 1394W        W17203   2.369  18.120  15.194  0.0105 -0.0490 -0.0968
 1395W        W17204  10.237   5.672   2.638  0.1358  0.2236 -0.4085
 1396W        W17205  15.285  12.942   3.456 -0.1125  0.0115  0.2901
 1397W        W17206  14.287   2.230  13.928  0.0907 -0.0934 -0.0694
 1398W        W17207  16.940   0.807  13.736 -0.2317 -0.1416  0.3878
 1399W        W17208  18.044   0.408   1.117 -0.1124  0.2288  0.0186
 1400W        W17209  13.950  10.356  14.118  0.1677  0.1124 -0.1926
 1401W        W17210   3.284   2.819  12.532  0.0369 -0.2335 -0.0379
 1402W        W17211   9.533  11.940  15.024 -0.1468  0.0854  0.0926
 1403W        W17212  10.096   0.936   3.269  0.1979 -0.3152 -0.3102
 1404W        W17213   9.954  12.981  14.465 -0.0951 -0.0954 -0.0916
 1405W        W17214  14.546  17.070  11.801  0.1192  0.0798  0.2341
 1406W        W17215  12.219   1.696  12.263  0.3265 -0.0149 -0.0627
 1407W        W17216  16.673  11.086   1.949 -0.1265 -0.0480  0.1565
 1408W        W17217   1.558  18.095  14.688  0.1615 -0.0320  0.1236
 1409W        W17218   9.227   2.040   5.101 -0.0301 -0.2678 -0.0947
 1410W        W17219  18.198   4.109  14.871 -0.1866  0.0213 -0.1444
 1411W        W17220  16.859   3.192   4.654 -0.0795  0.1837  0.0030
 1412W        W17221  13.005   5.091  14.528 -0.0829 -0.3114 -0.1883
 1413W        W17222  11.396  14.713   0.111  0.1532 -0.1513  0.1209
 1414W        W17223  16.221   7.987   3.337 -0.1277 -0.0431 -0.0258
 1415W        W17224  13.545   6.134   1.718 -0.1686  0.1008  0.3330
 1416W        W17225   8.197  12.375   2.957 -0.1331 -0.0953 -0.2810
 1417W        W17226  11.099   3.878   3.264  0.3090  0.0043 -0.1345
 1418W        W17227  10.401  10.869  12.058  0.0394 -0.2374 -0.1087
 1419W        W17228  15.019  16.805  11.536 -0.3099 -0.0154  0.2966
 1420W        W17229   6.455   5.066   6.046  0.0849  0.0539  0.0685
 1421W        W17230   7.351   2.773   1.511  0.2139 -0.0742 -0.1753
 1422W        W17231   2.144   3.463   2.392  0.0118 -0.0237 -0.2192
 1423W        W17232   6.098   1.632  11.868  0.2078 -0.3085  0.3742
 1424W        W17233  18.007  10.129   1.411 -0.2733  0.0808 -0.2883
 1425W        W17234  17.830   9.063   4.287 -0.1855 -0.1447 -0.1916
 1426W        W17235   5.680  13.103  13.219 -0.0287  0.0541 -0.0931
 1427W        W17236  18.514  12.451  12.842  0.2939  0.1326 -0.0195
 1428W        W17237   5.136   6.767   1.770  0.1012  0.0974  0.0546
 1429W        W17238  10.986  17.847  12.779 -0.1139  0.1579 -0.1501
 1430W        W17239  16.427  12.717  13.212  0.0495 -0.2214  0.1458
 1431W        W17240  12.161   3.462   1.444 -0.0385 -0.0135  0.1073
 1432W        W17241  16.412   8.354  14.886  0.1213  0.1460  0.0931
 1433W        W17242   0.050   6.734   4.884 -0.2445 -0.0398  0.0362
 1434W        W17243  13.230   8.729   0.878  0.1323  0.1080  0.1970
 1435W        W17244   5.441   9.235   1.698 -0.0851  0.1453 -0.0787
 1436W        W17245   9.029   1.209  11.944 -0.2823 -0.1069 -0.3874
 1437W        W17246  11.014  14.452  11.461  0.0441  0.0399 -0.0230
 1438W        W17247  16.239  12.342  14.942 -0.2713 -0.0633  0.0321
 1439W        W17248  10.603  10.735  12.501 -0.1007  0.2388 -0.1805
 1440W        W17249   0.436   0.426  12.428 -0.0893  0.0553  0.2654
 1441W        W17250   4.605   1.626   3.927 -0.1661 -0.2274 -0.0478
 1442W        W17251  13.923  15.138  13.880 -0.2734 -0.0381 -0.0793
 1443W        W17252   2.276   1.309   1.888  0.0427 -0.0918 -0.1573
 1444W        W17253  10.640   0.883   3.842  0.0187 -0.1690  0.1158
 1445W        W17254   1.405   7.715   2.585 -0.0166  0.1410 -0.0232
 1446W        W17255   6.725  15.640   5.130  0.1596  0.0149  0.0710
 1447W        W17256   4.036  11.313   1.715  0.1094  0.1375  0.1083
 1448W        W17257  17.875  10.218   2.116  0.1072 -0.2246 -0.5259
 1449W        W17258  10.559   4.459   3.854 -0.0974 -0.3952 -0.1085
 1450W        W17259   7.077   4.448  11.051 -0.1723 -0.4243  0.1698
 1451W        W17260   0.762   3.944  14.845  0.2441 -0.0813  0.1242
 1452W        W17261   6.609  17.045   4.974  0.0676  0.1395 -0.3788
 1453W        W17262   8.430  15.788   2.177 -0.0437 -0.0285 -0.1515
 1454W        W17263   4.449   4.038  13.003  0.0371  0.1414 -0.1051
 1455W        W17264  16.035   9.880   2.458 -0.0104 -0.4267 -0.2357
 1456W        W17265   5.118   7.919  11.457  0.0796 -0.0793 -0.0100
 1457W        W17266  12.483   4.616   2.864 -0.1457 -0.0435 -0.0079
 1458W        W17267  11.837   2.060  11.168  0.0638  0.3428  0.1540
 1459W        W17268   8.698  10.731  11.994  0.0709  0.1199 -0.1727
 1460W        W17269  16.144   6.383   0.352 -0.0480  0.0137 -0.1792
 1461W        W17270   0.289  13.953  14.417 -0.3363  0.1696  0.0201
 1462W        W17271  15.950   4.001   3.353  0.0021 -0.2130 -0.2441
 1463W        W17272   0.997   4.265  12.420 -0.1964  0.1003 -0.1319
 1464W        W17273   0.182   4.792   2.393 -0.1382  0.0074 -0.3668
 1465W        W17274   0.741  15.619   0.229 -0.4267  0.1232 -0.0195
 1466W        W17275   2.369  11.055   1.839  0.1231 -0.0949  0.0199
 1467W        W17276  15.826   3.100   2.064  0.2689  0.2492 -0.3369
 1468W        W17277  15.903   0.337  11.558  0.2765  0.0622 -0.1511
 1469W        W17278  15.653  17.705  14.133  0.1171  0.0912  0.1341
 1470W        W17279   3.305   4.668  12.801 -0.2880 -0.1050 -0.2525
 1471W        W17280   1.915  15.312   2.252  0.2629  0.1068 -0.1137
 1472W        W17281  17.294   1.695  12.911 -0.1629  0.1042 -0.3044
 1473W        W17282  15.156  15.691   5.413  0.2390  0.1641 -0.1749
 1474W        W17283  17.483  10.661  14.129  0.0703 -0.0111 -0.1353
 1475W        W17284  15.798   6.692   0.199 -0.0055  0.2900 -0.0532
 1476W        W17285  15.954   2.335  11.509  0.2253 -0.2296 -0.0899
 1477W        W17286   7.527  18.145  14.076  0.1547  0.1572  0.1867
 1478W        W17287  15.339  16.129   4.640 -0.0909  0.0053 -0.0929
 1479W        W17288   0.194   8.805   5.126  0.1511  0.1239 -0.2789
 1480W        W17289  13.625   1.858  14.450  0.0582 -0.0841  0.2028
 1481W        W17290   4.903  15.114   1.090  0.0471  0.2603 -0.0600
 1482W        W17291   0.200  13.902  13.880 -0.1626  0.1229 -0.2146
 1483W        W17292  14.538   6.262   6.080 -0.0180  0.2395  0.1051
 1484W        W17293   9.791   5.621  13.255 -0.0654 -0.0898  0.0824
 1485W        W17294   4.856   0.950   0.608 -0.0379 -0.2232 -0.2024
 1486W        W17295   3.804   6.058   5.460  0.1535 -0.1856 -0.0187
 1487W        W17296  17.190  17.999   4.324  0.0740  0.0968 -0.1763
 1488W        W17297  16.046   6.579  13.576 -0.0244  0.1896  0.1547
 1489W        W17298   0.117   7.232  15.176 -0.2704 -0.0627 -0.1251
 1490W        W17299   3.925   8.760  13.293  0.0327 -0.0806 -0.3119
 1491W        W17300  12.664   7.141  11.761 -0.2013 -0.0696 -0.1158
 1492W        W17301   7.166  18.426   4.092  0.1555  0.1914 -0.3016
 1493W        W17302  12.249   0.749  12.843  0.2278  0.0220  0.2129
 1494W        W17303  17.551   4.892  12.854 -0.1193  0.3504 -0.2281
 1495W        W17304   2.897   5.709  14.189 -0.1071 -0.1440  0.0617
 1496W        W17305   1.966  12.715  14.669  0.1832 -0.2757 -0.1337
 1497W        W17306  15.165   9.140   1.271  0.0012  0.1901  0.1887
 1498W        W17307  11.576   4.716   1.789  0.3773 -0.1520 -0.1507
 1499W        W17308  17.474   9.369  11.053 -0.0038  0.2246  0.3547
 1500W        W17309  11.340   6.078   1.799 -0.4538  0.2539  0.0183
 1501W        W17310   3.026   8.607  14.324  0.0061  0.1288 -0.0138
 1502W        W17311  14.571   1.728  11.678 -0.2237  0.0814  0.4493
 1503W        W17312   1.759  16.248  13.563 -0.2573  0.3491  0.1444
 1504W        W17313   8.223   2.211  15.590 -0.1008 -0.1108 -0.4124
 1505W        W17314   0.085   9.315   1.685  0.0286 -0.1098 -0.0512
 1506W        W17315  10.030  12.598  12.101  0.1014  0.0141 -0.5702
 1507W        W17316   7.601  16.143   1.099 -0.0757 -0.1757 -0.2366
 1508W        W17317   3.521   4.543   0.565 -0.4734  0.4233 -0.0004
 1509W        W17318  10.232   9.619   1.559  0.0962 -0.0136  0.1616
 1510W        W17319  16.079   4.452   3.529  0.1789  0.0137 -0.3126
 1511W        W17320  12.924   6.417  12.152 -0.2414 -0.0935  0.3181
 1512W        W17321  13.638   0.625   4.109  0.3485 -0.1082 -0.0667
 1513W        W17322   8.120   0.658   4.709  0.1038 -0.4652 -0.0400
 1514W        W17323   0.265  11.410  11.588  0.2643  0.2509 -0.0677
 1515W        W17324   3.754  14.843  13.961 -0.0747  0.6699  0.0330
 1516W        W17325  14.060   4.787  15.036  0.0418  0.1313 -0.3754
 1517W        W17326  16.740   8.735  13.180  0.1099 -0.0524  0.1800
 1518W        W17327   4.475   3.322   4.073 -0.0849  0.1182  0.1932
 1519W        W17328   2.355   0.316  10.801  0.0137 -0.0147 -0.0372
 1520W        W17329  12.965  14.591  15.599  0.1588 -0.0403  0.0438
 1521W        W17330   0.380   7.242   1.255 -0.1412 -0.3103  0.0169
 1522W        W17331  17.679   9.998  13.782 -0.1120  0.1140  0.0507
 1523W        W17332   3.795   7.923   5.699  0.2389 -0.1345 -0.2672
 1524W        W17333  10.176  14.583   9.931 -0.0197 -0.1755  0.0488
 1525W        W17334   2.446  13.438  13.120 -0.1592  0.3237  0.2727
 1526W        W17335  16.345   5.742  15.215  0.0474  0.0549  0.3171
 1527W        W17336   5.490   8.444   5.300 -0.3057 -0.1989  0.0750
 1528W        W17337   3.101   6.285  15.007  0.1900  0.2399 -0.1906
 1529W        W17338  15.385   8.831   2.598 -0.1736  0.0811 -0.3197
 1530W        W17339   2.917   0.764   3.922  0.0764  0.1286  0.4654
 1531W        W17340  10.857   7.117   4.494 -0.1547  0.1161 -0.0289
 1532W        W17341   4.891   8.648  12.265  0.1586 -0.0175  0.2566
 1533W        W17342  16.968   8.623   4.250 -0.1110 -0.2747  0.1886
 1534W        W17343   9.967   6.662  15.560 -0.1264  0.2445  0.1425
 1535W        W17344   9.405  13.502   2.200  0.1823  0.2474 -0.0316
 1536W        W17345  14.911   0.554  10.523  0.1295 -0.0951 -0.2391
 1537W        W17346  14.881   0.174  14.564 -0.2502  0.1966  0.2855
 1538W        W17347  18.036   3.075  14.915 -0.2624  0.2736 -0.4378
 1539W        W17348  10.663   4.488  13.415  0.3508 -0.5410 -0.0394
 1540W        W17349  16.183  12.166   0.140 -0.1045 -0.0487  0.2331
 1541W        W17350   3.155  17.688  14.276  0.0562 -0.3071  0.1100
 1542W        W17351  18.357   8.010  12.930  0.3274 -0.2545 -0.0871
 1543W        W17352   8.922  10.255   0.559 -0.1414  0.1738  0.0523
 1544W        W17353   8.663   6.023   4.036  0.0207 -0.0368  0.1910
 1545W        W17354   9.097  11.025  12.189 -0.1428 -0.2840 -0.1326
 1546W        W17355   7.202   2.149   3.115  0.0242 -0.0908  0.0155
 1547W        W17356  17.960   2.171   0.892 -0.1915  0.1591 -0.1699
 1548W        W17357   5.423   0.132  12.212  0.0125 -0.2583 -0.0434
 1549W        W17358  18.073  13.173   5.744  0.1122 -0.1059 -0.1697
 1550W        W17359  13.245   1.022   4.416 -0.0212  0.0066 -0.0467
 1551W        W17360   0.293   5.965  12.190 -0.0225  0.1381 -0.1727
 1552W        W17361  14.638  17.742   4.318 -0.2210  0.0113  0.1716
 1553W        W17362   2.373  13.686   1.885 -0.1949  0.0936 -0.3381
 1554W        W17363   4.319   3.501  11.209 -0.3153  0.1933 -0.0153
 1555W        W17364   2.338   1.081  14.694  0.0161  0.1933  0.2115
 1556W        W17365  15.931   7.655   3.089  0.0302 -0.1447  0.0078
 1557W        W17366   0.285   3.326  13.970  0.1632  0.1221  0.0329
 1558W        W17367  13.127   4.469  10.821 -0.2896 -0.1502 -0.2084
 1559W        W17368   6.522  14.684   3.648  0.1371 -0.2114  0.0574
 1560W        W17369   9.514   7.538  14.293 -0.2074 -0.5857 -0.0464
 1561W        W17370   3.203   9.806   3.798 -0.2402  0.1475  0.0335
 1562W        W17371   1.654  12.623   5.200  0.1034  0.0007 -0.1992
 1563W        W17372   3.146   0.394   1.898 -0.0116  0.2812 -0.2165
 1564W        W17373   0.788   4.934   6.541 -0.0539 -0.3522 -0.1799
 1565W        W17374   5.964   0.087  15.502  0.0951 -0.1061  0.0005
 1566W        W17375  12.779   9.661   3.005 -0.0485 -0.1334  0.3797
 1567W        W17376   0.087   3.967  11.254 -0.1368 -0.1648  0.0553
 1568W        W17377  12.598   3.533  15.415 -0.1762  0.1043  0.0516
 1569W        W17378   8.599   2.270  11.147 -0.0768 -0.1589 -0.4374
 1570W        W17379  15.581   4.568   4.943 -0.1688  0.1261  0.0048
 1571W        W17380   9.592   8.377   1.971 -0.2217 -0.3513  0.1206
 1572W        W17381   4.338   8.712  12.421  0.0201  0.2229 -0.2697
 1573W        W17382   7.991   7.958   1.147  0.0651 -0.1439  0.0972
 1574W        W17383  15.305   5.423   5.424  0.0304  0.0599 -0.0457
 1575W        W17384  13.241  11.196   4.981  0.1574 -0.2136  0.1087
 1576W        W17385   0.255  17.582   4.208 -0.2461  0.2421  0.1947
 1577W        W17386  11.678   5.110   0.823  0.0545 -0.0871 -0.0545
 1578W        W17387   0.395  15.373  10.020  0.0033  0.1173 -0.2614
 1579W        W17388  11.889   5.504   4.106  0.2787  0.1072 -0.0515
 1580W        W17389  14.844   5.013   0.302 -0.0345 -0.1480 -0.0065
 1581W        W17390  10.262  11.800   5.858  0.0728 -0.1585 -0.5117
 1582W        W17391   2.550   9.778   4.541 -0.4180  0.4808  0.1779
 1583W        W17392   9.140   6.675   0.248 -0.0947  0.1226  0.2870
 1584W        W17393   4.129   3.210  12.113  0.1120  0.1017  0.0332
 1585W        W17394   4.735  13.584   0.645  0.1963 -0.0579  0.1592
 1586W        W17395  13.604  18.039  15.669 -0.1095  0.2714 -0.1910
 1587W        W17396  15.954   4.272   4.918  0.1923 -0.0268  0.1803
 1588W        W17397   6.968  15.706  13.702  0.1370 -0.3350  0.0463
 1589W        W17398   1.056  16.003   5.109  0.0487 -0.0956  0.2581
 1590W        W17399   4.171  13.530  13.628  0.0380 -0.0791 -0.0502
 1591W        W17400  16.731  15.473  11.593 -0.0695  0.2117 -0.2866
 1592W        W17401  16.672  11.293   3.820  0.0699  0.1546 -0.0089
 1593W        W17402   0.707   0.003  12.313  0.2933 -0.0192  0.1960
 1594W        W17403  15.327   4.227  14.827  0.0063 -0.0523 -0.4549
 1595W        W17404   0.740  17.323   2.095 -0.0119 -0.3829  0.1460
 1596W        W17405  10.098   7.501  15.661  0.1707  0.0197  0.0710
 1597W        W17406  16.042  15.315   3.915  0.1874 -0.0624  0.0713
 1598W        W17407  17.263   0.248  12.658 -0.2465  0.0004  0.1339
 1599W        W17408  13.318   9.232   2.762 -0.1472 -0.0828  0.1382
 1600W        W17409  12.847   3.725   2.055  0.0779 -0.0145 -0.1793
 1601W        W17410  17.788   6.739   1.974 -0.2265 -0.1344 -0.0976
 1602W        W17411  14.886   5.095   1.713 -0.1285 -0.1219  0.0344
 1603W        W17412  18.620  16.367  12.449  0.2761 -0.0914  0.1460
 1604W        W17413   2.031   2.136  11.284  0.4028 -0.1950  0.0850
 1605W        W17414   3.286  17.718  12.406 -0.0641 -0.0396  0.1774
 1606W        W17415  14.780  10.251  14.173 -0.0549  0.0378 -0.2768
 1607W        W17416  12.283  11.898  15.457  0.1198 -0.0318 -0.2262
 1608W        W17417   7.696  15.825   3.133 -0.3042 -0.0298 -0.2852
 1609W        W17418  15.388  12.221  14.658 -0.0872 -0.0134 -0.1671
 1610W        W17419  11.221  16.115   4.958 -0.2720  0.2690  0.0128
 1611W        W17420  13.898  10.855  15.454  0.3629 -0.0897 -0.0816
 1612W        W17421  14.734   0.323   0.301  0.2576  0.0330  0.0147
 1613W        W17422   4.001   2.405   3.567  0.1550  0.1944 -0.1984
 1614W        W17423  13.960   8.642  10.959  0.1722  0.1860  0.0781
 1615W        W17424   3.095   8.676   2.029 -0.3901 -0.4722 -0.2019
 1616W        W17425   6.902   8.744   2.470  0.0806  0.0774 -0.1509
 1617W        W17426   8.236  14.787   3.906 -0.2224  0.2716 -0.0785
 1618W        W17427  12.567  15.143  10.761  0.5623 -0.0034  0.2108
 1619W        W17428  12.950   2.833   4.349  0.1220 -0.0576 -0.3007
 1620W        W17429   0.193   6.023   2.597  0.0193  0.0905 -0.0459
 1621W        W17430   5.382  15.898  12.982 -0.0274 -0.3075  0.1816
 1622W        W17431  14.251  18.381  10.977  0.2149 -0.1518 -0.0242
 1623W        W17432  11.113  11.939   3.168 -0.1232  0.0755  0.1418
 1624W        W17433   5.300   6.988  11.345  0.0799 -0.1657 -0.1115
 1625W        W17434   6.396  10.153  13.641  0.0970 -0.0083  0.0391
 1626W        W17435   1.273   5.894  11.518 -0.0171 -0.1368 -0.0573
 1627W        W17436  15.909  11.952  13.980  0.0824  0.0830  0.2338
 1628W        W17437  17.491  18.055   5.273 -0.0580  0.1154  0.0687
 1629W        W17438   6.027  17.149   5.054  0.0961  0.1157 -0.1855
 1630W        W17439   0.502  10.001   1.147  0.2457  0.1739  0.2026
 1631W        W17440   0.169   2.758  14.824 -0.3118  0.0755  0.1550
 1632W        W17441  11.813   6.986   1.695 -0.1152 -0.1725  0.2782
 1633W        W17442  18.151   7.414   5.458 -0.1211  0.0118 -0.1543
 1634W        W17443  13.223   3.591   5.092 -0.1220 -0.1149  0.2290
 1635W        W17444  10.916   0.940  10.985 -0.2512  0.2102 -0.0070
 1636W        W17445   1.020   8.390  12.170 -0.0999  0.2712 -0.2703
 1637W        W17446  12.449   2.445   5.835  0.0435 -0.1744  0.0357
 1638W        W17447  11.458   1.910   0.532 -0.2994  0.2811 -0.3067
 1639W        W17448   8.151  13.943   1.926  0.3192 -0.0661 -0.0314
 1640W        W17449   0.036  10.929  13.410 -0.1351  0.0112  0.0952
 1641W        W17450   2.155  18.040   4.905 -0.3610  0.0774  0.2372
 1642W        W17451  17.996  17.768  10.117 -0.0189 -0.2775  0.0142
 1643W        W17452  16.898  14.528  14.593 -0.0081  0.0163  0.1139
 1644W        W17453  11.563  13.307   3.331 -0.1935  0.1797  0.1653
 1645W        W17454   5.555   9.254  12.969  0.0933 -0.2176  0.0158
 1646W        W17455   7.401   7.638   2.284  0.2083 -0.0778  0.0090
 1647W        W17456   0.797   0.537   3.513 -0.2082  0.1169 -0.0441
 1648W        W17457  16.926  16.500  14.083  0.2311  0.0628  0.0067
 1649W        W17458   0.123   0.135  13.353  0.1336 -0.0234  0.2649
 1650W        W17459   5.837   0.454   4.463  0.0927  0.1392  0.2141
 1651W        W17460   0.420  17.241  12.794  0.0204 -0.0151  0.0744
 1652W        W17461  10.193  15.658   4.382 -0.1894 -0.2959  0.1264
 1653W        W17462  14.504   7.320   1.704 -0.2441  0.3270  0.0123
 1654W        W17463   0.377  17.282   5.581 -0.1719  0.1079 -0.1786
 1655W        W17464  12.648   9.308   3.856 -0.3213 -0.0321 -0.1583
 1656W        W17465  11.343   3.616  12.662 -0.2077 -0.2478 -0.0409
 1657W        W17466  12.476   9.267   1.985 -0.1001  0.0747 -0.1126
 1658W        W17467  15.638   5.175  14.622 -0.2941 -0.0675  0.1787
 1659W        W17468   8.921  13.078   3.622 -0.0071  0.2014 -0.1897
 1660W        W17469  15.542   6.308  10.843 -0.3653 -0.2654 -0.1133
 1661W        W17470   7.997  15.099   5.600 -0.2581 -0.0726  0.1182
 1662W        W17471   5.553  12.596  13.126 -0.1551  0.0957  0.1061
 1663W        W17472  16.379  15.080  12.423 -0.2359  0.2526 -0.1578
 1664W        W17473  14.532  15.230   2.678  0.2227 -0.1484  0.2801
 1665W        W17474  11.204  13.738  12.027  0.1729 -0.3338  0.1869
 1666W        W17475   2.209  11.597  14.786  0.0113 -0.1322  0.1561
 1667W        W17476  15.540  11.885   4.993  0.0094 -0.2488  0.1732
 1668W        W17477   7.416  11.943   0.507 -0.0782 -0.0541 -0.0353
 1669W        W17478   0.443  11.997  11.669  0.2336  0.2299 -0.0594
 1670W        W17479   4.187  17.901  10.382 -0.0905  0.0664  0.1932
 1671W        W17480   9.000   5.884   3.204  0.1808  0.3572 -0.2219
 1672W        W17481   1.040   1.033  10.923  0.3514 -0.0603  0.2175
 1673W        W17482  17.011   5.867  11.406  0.0145 -0.0642  0.1378
 1674W        W17483   0.828  10.218   2.132 -0.5826 -0.1815 -0.2597
 1675W        W17484   1.352  10.944   0.102 -0.0590  0.0123  0.0170
 1676W        W17485   3.260  10.300   4.051  0.3757  0.2362  0.1946
 1677W        W17486   0.771   0.186  10.959  0.0183  0.0691  0.0599
 1678W        W17487  14.618  12.741   4.271 -0.1209 -0.0930  0.0637
 1679W        W17488   3.484  13.558  15.667 -0.0783 -0.0386 -0.1513
 1680W        W17489   3.359  10.172  14.471  0.0981 -0.0782 -0.1258
 1681W        W17490  16.015  12.398   2.556  0.3946 -0.0151 -0.3507
 1682W        W17491  17.701  13.492   5.546 -0.0487 -0.3734 -0.0191
 1683W        W17492   2.461  17.448  10.707 -0.2687 -0.1899  0.1254
 1684W        W17493  11.856   0.677  14.552 -0.0030 -0.0683  0.2951
 1685W        W17494  15.865   3.264  11.160  0.0749  0.1227  0.1749
 1686W        W17495   4.308   9.245  10.549  0.3488  0.4376 -0.2020
 1687W        W17496  16.883  18.049   2.715 -0.1257  0.1924  0.0102
 1688W        W17497  13.951  13.479   0.974  0.1002  0.2066 -0.1125
 1689W        W17498   4.082  12.580   4.267  0.2476  0.1403  0.0116
 1690W        W17499   6.232  11.458   0.866  0.0587  0.1598 -0.1870
 1691W        W17500   3.330   3.523   3.093 -0.2066  0.1083  0.1252
 1692W        W17501  14.354  16.159   3.647 -0.2807  0.0013  0.2343
 1693W        W17502  11.382   2.708   2.482 -0.0616 -0.1724  0.2811
 1694W        W17503  14.304   2.725  10.786  0.4138 -0.0649  0.0662
 1695W        W17504   6.936   9.752  11.331  0.1764 -0.3680 -0.3510
 1696W        W17505  17.948  10.335   0.157 -0.2731 -0.1082 -0.0590
 1697W        W17506   8.965   2.568  15.724 -0.1918 -0.0603  0.1017
 1698W        W17507  10.307   9.213   2.402  0.0571 -0.0769 -0.0272
 1699W        W17508  10.061   0.880   2.618  0.5757 -0.0694  0.0417
 1700W        W17509   2.846   7.905   3.742  0.2064  0.0167  0.2375
 1701W        W17510   6.728   4.941   3.440  0.0459  0.1050 -0.1416
 1702W        W17511   8.514  18.337  15.614  0.0557  0.2204  0.0012
 1703W        W17512   3.270  16.060  13.839  0.2604 -0.3138  0.2341
 1704W        W17513   6.357  11.946  13.239  0.1087  0.3295 -0.0935
 1705W        W17514  17.277  11.529   1.455 -0.0404 -0.0113 -0.1911
 1706W        W17515  14.503  16.709   3.135  0.0072 -0.1877  0.2273
 1707W        W17516   5.223  13.587   0.213 -0.2190  0.0327 -0.0604
 1708W        W17517   9.552   5.954  15.001 -0.0179  0.2422  0.1359
 1709W        W17518  11.293   2.008   3.611 -0.3452  0.0026 -0.0054
 1710W        W17519  15.121   9.316  12.405  0.2658 -0.0744  0.0342
 1711W        W17520   9.292   9.003  15.516 -0.1362 -0.2788  0.0816
 1712W        W17521  11.428   3.511   3.400  0.0434  0.1289 -0.1079
 1713W        W17522   3.859  14.120   0.871 -0.1633 -0.0597 -0.6611
 1714W        W17523   6.915   7.486   3.091 -0.0147 -0.0782 -0.0190
 1715W        W17524  15.659   8.923   9.967  0.3420  0.2957  0.2399
 1716W        W17525   5.527   1.384  12.197 -0.0886  0.2115  0.1842
 1717W        W17526   5.633   5.138   0.936 -0.1077 -0.3021  0.3043
 1718W        W17527   7.482   6.251  14.504  0.0212 -0.0320 -0.1331
 1719W        W17528   4.835  14.089  10.628 -0.2091 -0.2678 -0.0112
 1720W        W17529   2.236   4.168   0.457  0.0056  0.1988 -0.1729
 1721W        W17530   1.921   4.635   4.102 -0.2254 -0.2891  0.0970
 1722W        W17531   1.906  13.907   5.493 -0.2064  0.0294 -0.3090
 1723W        W17532  16.628   4.519  11.670  0.2280 -0.2989  0.2163
 1724W        W17533   6.090   0.372   4.897  0.2369  0.0524 -0.0207
 1725W        W17534   5.309   8.060   4.296 -0.0794 -0.0806  0.1458
 1726W        W17535   4.216   6.552   4.710 -0.0904 -0.0221 -0.3436
 1727W        W17536  18.583   5.957  15.117  0.0044 -0.0968 -0.3111
 1728W        W17537   8.224   0.887   4.063  0.1386  0.1879 -0.0227
 1729W        W17538   9.004  17.847  11.938  0.3624 -0.1372  0.1795
 1730W        W17539  10.878   4.609   0.430  0.2680 -0.1777 -0.2941
 1731W        W17540   9.962   0.471   2.322  0.1555  0.1257 -0.1694
 1732W        W17541  17.086   4.261   0.410 -0.0456  0.0408  0.1302
 1733W        W17542  10.469  17.798   3.544  0.2438 -0.0464  0.1679
 1734W        W17543   9.299   4.678  13.559  0.0296  0.2038  0.0971
 1735W        W17544  13.845   9.535  13.558  0.0789  0.0940  0.0520
 1736W        W17545  13.587   7.949  10.582 -0.0023  0.1557 -0.0036
 1737W        W17546   8.967  12.061   0.873  0.0325  0.3145  0.2418
 1738W        W17547   2.243  14.064   0.186  0.2048 -0.1984 -0.0277
 1739W        W17548   5.204  18.166  12.929 -0.1887 -0.0717 -0.1047
 1740W        W17549  16.229   1.280   0.796 -0.0503  0.0189  0.1144
 1741W        W17550  10.649  16.061   3.084  0.2247  0.1265  0.1112
 1742W        W17551  10.765  15.823   4.350  0.1100  0.0355 -0.1035
 1743W        W17552  11.300   5.241   3.720 -0.0006 -0.2382  0.0891
 1744W        W17553  17.974   1.193   2.300 -0.1330  0.1144 -0.0706
 1745W        W17554  17.199   8.961  11.294 -0.3540 -0.0147  0.0836
 1746W        W17555   4.500  17.719  14.272  0.0733 -0.2055 -0.0124
 1747W        W17556  17.891   8.748  14.517  0.1460 -0.2832 -0.0509
 1748W        W17557   3.702   0.715  11.775  0.2617 -0.0103  0.3446
 1749W        W17558  12.536   0.882  10.456  0.0121  0.1475 -0.2090
 1750W        W17559   2.461  16.849  11.914  0.2388  0.2592 -0.1111
 1751W        W17560  11.349  16.401  13.882 -0.0947  0.0294  0.3244
 1752W        W17561   1.479   8.607  12.360  0.1582  0.2124 -0.0779
 1753W        W17562  18.459  17.415  12.339 -0.0626  0.0799  0.1282
 1754W        W17563  17.336   6.487   4.726  0.0948 -0.1079  0.0996
 1755W        W17564   6.214   9.912   1.212 -0.0274  0.0384  0.0171
 1756W        W17565  17.732  11.339   2.421  0.1714 -0.3723 -0.0482
 1757W        W17566   1.558   2.782   5.319 -0.0513 -0.0487 -0.2559
 1758W        W17567   3.741   0.279  13.365  0.1542  0.1727 -0.0382
 1759W        W17568  17.013  17.517  10.588  0.2991  0.1732 -0.3172
 1760W        W17569   3.059  14.807   0.930  0.0621  0.0137  0.1813
 1761W        W17570  16.053   0.140  11.115 -0.0604 -0.1180 -0.0956
 1762W        W17571  11.507   9.310   9.833 -0.1746  0.3865  0.1380
 1763W        W17572   7.727   8.722  14.003  0.2846  0.1298 -0.2760
 1764W        W17573   4.759  16.255  10.545 -0.1514 -0.0161 -0.0531
 1765W        W17574  14.973  14.540  14.533  0.0650  0.1287  0.1615
 1766W        W17575   3.449  14.466  13.131  0.1257 -0.1649 -0.0599
 1767W        W17576   3.896   3.700  10.742  0.1392  0.0955  0.6192
 1768W        W17577   6.519  15.372   0.826 -0.1764 -0.1094  0.5486
 1769W        W17578   5.804  15.573   2.039  0.1267 -0.1236  0.4104
 1770W        W17579   3.176  18.549  12.739  0.2798 -0.0524 -0.0449
 1771W        W17580  11.380  13.696   1.052 -0.1651  0.2890  0.4118
 1772W        W17581   8.019  12.545  15.381 -0.1068  0.0148 -0.2110
 1773W        W17582   4.153  11.507   3.118 -0.0268  0.2571 -0.1276
 1774W        W17583   9.277   2.739  13.637 -0.1407  0.0263  0.1874
 1775W        W17584   8.602  10.789   0.272 -0.1608 -0.2726 -0.2634
 1776W        W17585   1.134  15.313  13.765  0.0076 -0.0010  0.0184
 1777W        W17586  15.224   0.335  13.891  0.0553 -0.1228 -0.2742
 1778W        W17587   2.992   8.584  12.302  0.0334  0.2239 -0.1101
 1779W        W17588   3.521   6.303  13.222 -0.1867 -0.2486  0.4034
 1780W        W17589   6.601  11.971   2.528  0.1342  0.1563 -0.0780
 1781W        W17590  12.312   8.021  11.589  0.0658  0.1454 -0.1956
 1782W        W17591   4.974  14.025   3.641  0.0338 -0.0822 -0.1241
 1783W        W17592  15.444   0.204  15.327  0.2220  0.2739 -0.2398
 1784W        W17593  17.716   8.811  15.503 -0.0800  0.1214  0.0468
 1785W        W17594   2.078   0.837  13.314  0.0382  0.3918 -0.1368
 1786W        W17595  12.094   4.870   2.344 -0.1111  0.1922  0.0706
 1787W        W17596   1.012  13.391  15.197  0.0549  0.1286  0.3100
 1788W        W17597   8.521  17.673   2.690  0.2109 -0.0029 -0.1737
 1789W        W17598   7.236  11.477  15.243 -0.1465  0.0590 -0.1526
 1790W        W17599   5.552  13.768  15.139  0.0885  0.0676 -0.1412
 1791W        W17600   8.611   3.830  12.709  0.0994  0.1762  0.2229
 1792W        W17601   6.203   9.351  11.438  0.3965 -0.0061 -0.0018
 1793W        W17602  14.229   2.326   5.444 -0.1374 -0.0520  0.0985
 1794W        W17603   4.119   4.786  11.251 -0.0073 -0.1308 -0.0153
 1795W        W17604  12.805  17.159  15.383 -0.0504 -0.2004  0.1392
 1796W        W17605   3.965  11.164  12.382  0.0402 -0.1375 -0.0768
 1797W        W17606   3.464   3.183   2.394  0.0290 -0.0653 -0.0117
 1798W        W17607  17.789   6.111  11.934 -0.3260 -0.0939 -0.0567
 1799W        W17608   6.460   1.400   1.395 -0.1666  0.0742 -0.3730
 1800W        W17609  18.054   3.194   0.032  0.0424  0.0169  0.0053
 1801W        W17610   8.230   3.062  12.943 -0.3365 -0.2462 -0.0084
 1802W        W17611   2.117   8.400  14.714  0.0005 -0.0131  0.1093
 1803W        W17612  10.960  10.278   4.044 -0.0399  0.0862  0.5118
 1804W        W17613  10.170  11.962  14.264 -0.2058 -0.3755  0.1517
 1805W        W17614   0.893  14.692   0.449  0.1161 -0.0232 -0.2509
 1806W        W17615   0.030  12.609   3.086 -0.1376 -0.0705 -0.2460
 1807W        W17616   4.096   5.566   4.471 -0.2571  0.1508  0.1411
 1808W        W17617   1.352   2.031   4.177 -0.0296  0.0485 -0.0382
 1809W        W17618   9.921  15.528   2.952 -0.1829  0.1803 -0.1182
 1810W        W17619   7.066  14.193   5.200  0.1948  0.1551 -0.1105
 1811W        W17620   8.664  14.745  12.706  0.0072  0.0297 -0.1784
 1812W        W17621   3.348  18.017   2.102  0.0543  0.0390  0.2882
 1813W        W17622  14.734   4.749   1.206 -0.2947  0.2543 -0.2795
 1814W        W17623   8.138  12.218   3.406 -0.0120  0.1744  0.1330
 1815W        W17624  15.231   5.997  14.767  0.0106  0.1183  0.1101
 1816W        W17625  13.392  10.611   0.488 -0.0214 -0.2115  0.3663
 1817W        W17626   2.839   9.012  11.619 -0.0131  0.1581  0.1156
 1818W        W17627  12.217   8.586  14.204  0.0611  0.3835  0.0024
 1819W        W17628  10.775   2.855   2.645  0.2525  0.3226 -0.0438
 1820W        W17629  18.044  17.581   4.026 -0.0938  0.0094  0.0396
 1821W        W17630   6.433  11.955   3.935 -0.0043  0.2909  0.4463
 1822W        W17631  11.379   7.771  11.615 -0.1356  0.1224 -0.2059
 1823W        W17632   9.092   5.909   4.598  0.1606 -0.2967 -0.1752
 1824W        W17633  16.497   8.782   0.328  0.1174 -0.1209  0.0428
 1825W        W17634  11.834   8.189   2.373 -0.1112  0.0015 -0.0434
 1826W        W17635   8.535  15.325  13.017 -0.2070 -0.1120 -0.0127
 1827W        W17636   6.768   5.140   2.295  0.3096  0.1030  0.2435
 1828W        W17637   0.420  11.788  11.188 -0.0590 -0.0012 -0.2111
 1829W        W17638   1.548  10.135   0.659 -0.0382 -0.0800  0.1488
 1830W        W17639   0.137  15.618  13.706 -0.2281 -0.2200  0.0099
 1831W        W17640  16.316  16.112  14.531 -0.0889  0.2937 -0.2205
 1832W        W17641  18.081   2.625  13.876 -0.1929 -0.1148  0.0333
 1833W        W17642  12.348   7.982   3.720  0.1676 -0.1857 -0.0208
 1834W        W17643  13.154  17.970  12.709 -0.0232 -0.0386  0.0880
 1835W        W17644  14.340  10.361  14.367  0.3302 -0.0329 -0.4591
 1836W        W17645   2.199   5.266   3.255 -0.0364 -0.1322 -0.4582
 1837W        W17646   5.228  12.654  13.529 -0.3220  0.1322  0.0077
 1838W        W17647   1.842  14.450  15.332  0.0585  0.2738  0.0618
 1839W        W17648  13.147  16.111   2.363 -0.1644  0.4189  0.2389
 1840W        W17649   6.912  12.709   2.534 -0.0993  0.1117  0.0594
 1841W        W17650   1.140   3.193   0.232  0.0872  0.1439 -0.1636
 1842W        W17651   5.978  11.398   4.495  0.0886  0.0926 -0.0563
 1843W        W17652   2.257   8.852   1.054  0.3288 -0.3221 -0.1279
 1844W        W17653  13.135   0.659   4.062  0.0469 -0.1166  0.0331
 1845W        W17654   6.704  13.545   4.606 -0.1271  0.0039  0.2636
 1846W        W17655   9.990   7.421  14.382  0.3023 -0.2430  0.1355
 1847W        W17656   5.651   1.322   1.363 -0.1181 -0.0792 -0.0121
 1848W        W17657   7.259   9.484   3.408 -0.3702 -0.0876  0.2528
 1849W        W17658   4.609  10.106   5.814  0.1814  0.2628 -0.2474
 1850W        W17659  12.162   7.112  11.966  0.0660  0.0244 -0.0726
 1851W        W17660  10.941  17.765   4.466  0.1150  0.0418  0.0433
 1852W        W17661  11.930  11.196   5.122 -0.2518  0.1667  0.0171
 1853W        W17662   6.142   9.381  14.746 -0.0727 -0.4040 -0.0442
 1854W        W17663   2.585  18.238  11.095 -0.1005  0.0444 -0.0612
 1855W        W17664  16.288   3.013   1.219 -0.3675  0.1366 -0.4889
 1856W        W17665  13.751  15.484  13.578 -0.0476  0.1489 -0.0541
 1857W        W17666   8.292   7.389   1.857 -0.0447  0.0458  0.0836
 1858W        W17667   6.339  15.690   4.067  0.0583 -0.0769  0.4636
 1859W        W17668   0.385   5.670   5.898 -0.0285  0.0257  0.1079
 1860W        W17669   5.503  10.842  14.610 -0.0571 -0.0217 -0.1333
 1861W        W17670   0.482  16.434   9.285 -0.0530  0.1995 -0.1539
 1862W        W17671  15.698   5.886  14.821  0.2711 -0.3926 -0.2491
 1863W        W17672  13.697  10.097  13.732  0.1441  0.1205 -0.1659
 1864W        W17673   1.759   0.121   1.398  0.0009 -0.2822 -0.0845
 1865W        W17674   4.325   7.050  15.621 -0.1308 -0.2623 -0.0288
 1866W        W17675  10.752   6.457  13.590 -0.0876  0.4026 -0.1575
 1867W        W17676   6.841   3.292  11.739 -0.2816 -0.2889  0.0911
 1868W        W17677   3.855  13.706   3.546 -0.3287  0.2462 -0.2495
 1869W        W17678   3.946   3.718  11.420  0.2288 -0.0024 -0.1232
 1870W        W17679   7.082   6.968  11.939 -0.0167  0.1411 -0.0001
 1871W        W17680   4.714   4.769   1.268  0.1087  0.0378 -0.2386
 1872W        W17681   8.171  17.790  13.254  0.0123  0.0183  0.1258
 1873W        W17682   9.969  17.928   3.687 -0.0874 -0.1677  0.0061
 1874W        W17683   1.099   4.283  10.375 -0.1492 -0.4720 -0.0994
 1875W        W17684   6.292  16.820   5.373  0.2253  0.0439  0.1270
 1876W        W17685   3.023   6.949   4.843  0.3021  0.2288  0.1731
 1877W        W17686  15.811  16.071   4.437  0.0806  0.0746  0.1140
 1878W        W17687   0.516  17.250  13.724  0.0147  0.4263 -0.2258
 1879W        W17688  16.606  10.095  11.709 -0.0096  0.1102 -0.0054
 1880W        W17689   5.304   8.970   6.178  0.0013 -0.2165 -0.2586
 1881W        W17690  14.403   6.061   3.124 -0.2824  0.2180  0.0106
 1882W        W17691  16.274  17.304  15.627 -0.0614 -0.0186  0.0002
 1883W        W17692   3.245  17.694  15.579  0.1883  0.1221  0.1349
 1884W        W17693   9.308   7.103   0.334 -0.0351 -0.6172 -0.1129
 1885W        W17694   2.044   7.354   3.917 -0.0332  0.0693 -0.1192
 1886W        W17695   6.621   4.790   1.921 -0.1781  0.0603  0.1147
 1887W        W17696   7.171  11.823  13.804  0.0981 -0.2845  0.0859
 1888W        W17697  17.695  16.740   2.672 -0.0246 -0.0815 -0.0164
 1889W        W17698  13.744   8.512  12.303 -0.0269  0.0466 -0.3175
 1890W        W17699   6.191  18.602   0.192  0.1961 -0.1440  0.5559
 1891W        W17700  17.127  13.129   1.117  0.1811  0.1458  0.2580
 1892W        W17701   2.442   1.474  14.402 -0.2352 -0.0056 -0.2732
 1893W        W17702   1.375  15.419   0.940 -0.0029  0.0019 -0.3579
 1894W        W17703   2.192  12.370  11.718  0.0038 -0.3627  0.0533
 1895W        W17704  18.475  13.038   2.113 -0.0932 -0.1833 -0.1996
 1896W        W17705  16.342   2.163  12.445 -0.2387 -0.2220 -0.3556
 1897W        W17706  17.131   3.742   3.925 -0.1249 -0.1482 -0.1920
 1898W        W17707  12.113   0.615   1.626  0.2136 -0.0018 -0.1163
 1899W        W17708   8.637  14.944  10.783  0.1821 -0.0289  0.0082
 1900W        W17709   4.958  10.795   3.772  0.0665 -0.0480  0.0157
 1901W        W17710   8.672  11.967   3.077  0.2637  0.0201  0.0451
 1902W        W17711   2.277   9.572   1.297  0.1117  0.1058 -0.1723
 1903W        W17712   2.292  11.365   3.032 -0.2416 -0.1303  0.1038
 1904W        W17713   4.987   5.357  13.420  0.0496  0.1530  0.0941
 1905W        W17714  11.113  12.918   0.145 -0.2431  0.0837  0.0660
 1906W        W17715  10.095  17.796  13.048  0.1468  0.0252  0.0925
 1907W        W17716   7.727  16.327  14.253 -0.1666  0.2016  0.4163
 1908W        W17717   2.519  13.200   2.027 -0.0375 -0.3782  0.2732
 1909W        W17718  13.092  15.102   2.652  0.2613 -0.1476  0.1079
 1910W        W17719   8.067   2.325  15.110  0.4407 -0.1948 -0.1147
 1911W        W17720  11.206  17.497  13.591 -0.1339 -0.0963  0.2592
 1912W        W17721  17.676  11.373  14.496  0.1790  0.3103  0.1089
 1913W        W17722   3.642  13.985  13.012 -0.0995  0.2383  0.1271
 1914W        W17723   2.873  13.938   1.127 -0.0095  0.1041 -0.0569
 1915W        W17724   4.878  16.359   5.486 -0.0242  0.0352 -0.1070
 1916W        W17725   3.749  10.838   4.232  0.1245  0.0375  0.1106
 1917W        W17726  14.709   2.563  10.563  0.2247 -0.0290 -0.2217
 1918W        W17727   2.639   8.801   4.169 -0.0740 -0.0549 -0.0228
 1919W        W17728   2.119   4.765  14.830  0.1216  0.4147  0.0766
 1920W        W17729   0.944  16.472   2.923 -0.1102 -0.2671  0.1434
 1921W        W17730   9.581   1.433   3.712  0.0132 -0.1564 -0.0153
 1922W        W17731   6.410   0.978  14.806  0.0174 -0.2514 -0.2492
 1923W        W17732   9.696  16.049  13.609  0.1556  0.1229  0.0797
 1924W        W17733   4.058  15.741  11.330  0.0623 -0.1718 -0.0099
 1925W        W17734  12.189   6.246   2.837 -0.1875 -0.3566  0.3153
 1926W        W17735  16.154  12.622   1.182  0.2562  0.0979 -0.1900
 1927W        W17736   8.994   8.044   4.083  0.2589 -0.1140 -0.2212
 1928W        W17737  13.250  16.938  12.541  0.1390  0.1015 -0.1072
 1929W        W17738   7.405  11.750   1.525 -0.2484  0.2197 -0.0077
 1930W        W17739   3.536  10.432  11.934 -0.1225  0.1374 -0.3504
 1931W        W17740  13.766  10.713   5.677  0.0853  0.1491 -0.3166
 1932W        W17741  14.778  11.971  14.043 -0.0228  0.2026  0.0176
 1933W        W17742   9.472  10.595  12.924  0.1772  0.3520  0.0642
 1934W        W17743   5.874  18.330   3.691 -0.1787 -0.3935  0.2126
 1935W        W17744  10.329   2.639   4.068 -0.4225  0.1663  0.1243
 1936W        W17745  10.722   1.712   1.092 -0.0724  0.0461 -0.0894
 1937W        W17746  16.847   5.179   5.088 -0.2970 -0.2359 -0.0211
 1938W        W17747   1.264  16.820  15.469  0.0216 -0.1944 -0.1160
 1939W        W17748   8.971  11.085   3.118  0.0500 -0.1481 -0.1635
 1940W        W17749   3.157   6.610  15.371 -0.1252 -0.2270 -0.1755
 1941W        W17750  17.117  10.572  14.467  0.0252  0.0822  0.1854
 1942W        W17751   8.961  17.073  11.022 -0.0726  0.0564 -0.1450
 1943W        W17752   6.025   0.918  15.351  0.4238 -0.1295  0.0365
 1944W        W17753   0.460  13.567  10.796 -0.2943 -0.2455  0.1105
 1945W        W17754   1.781   3.974  12.397  0.1604  0.2024  0.2503
 1946W        W17755   3.301   0.978   1.982 -0.0222 -0.1507 -0.2774
 1947W        W17756   7.744  12.259   5.111  0.0031  0.4078  0.0396
 1948W        W17757   1.282  17.703  11.638  0.3298  0.2401  0.3435
 1949W        W17758   0.506   8.927   4.156 -0.0340  0.1299  0.2529
 1950W        W17759  15.610  18.305   2.023  0.2594  0.3033  0.0120
 1951W        W17760  10.015   5.815  15.116 -0.1141  0.0704  0.1759
 1952W        W17761  11.334  15.135  15.582 -0.0614 -0.0408  0.2380
 1953W        W17762  11.946   1.929  13.145  0.1080  0.0385  0.0548
 1954W        W17763   7.786   3.313   2.359 -0.2157 -0.0596  0.2824
 1955W        W17764  11.855  18.004   0.999 -0.2059 -0.2521 -0.0673
 1956W        W17765  16.319   1.596   3.906  0.0732 -0.1515  0.0721
 1957W        W17766  11.351   5.510  14.890  0.0370 -0.2039 -0.3901
 1958W        W17767   2.489  17.749   6.307  0.0270  0.0471  0.6042
 1959W        W17768   5.385   0.591   2.384 -0.0191  0.1248  0.1095
 1960W        W17769  11.835  17.088   1.315 -0.1135  0.0915 -0.3552
 1961W        W17770  13.684   4.337  12.713  0.1311 -0.1052  0.0888
 1962W        W17771  10.403  10.628   3.438 -0.3265 -0.1430  0.2735
 1963W        W17772   9.343  17.423  10.300  0.1646  0.2239  0.1470
 1964W        W17773  14.993   2.507   2.121  0.2987 -0.2852 -0.1354
 1965W        W17774  18.562   0.330   1.958  0.0350  0.0243  0.0522
 1966W        W17775   6.779   9.110   1.123  0.0045  0.1082  0.0925
 1967W        W17776  12.169   5.132   3.381  0.0120  0.2348  0.0865
 1968W        W17777   2.016   7.226  13.761  0.3230  0.4158 -0.1673
 1969W        W17778   7.279  11.174  11.178  0.4949 -0.0427 -0.2491
 1970W        W17779  10.623  15.955  11.762 -0.0191  0.2219  0.2425
 1971W        W17780  11.809   8.402   0.496 -0.0294 -0.1944  0.1168
 1972W        W17781  11.509   5.027   0.285  0.0711  0.1084 -0.3508
 1973W        W17782   9.283   6.862   4.357 -0.0271 -0.2342  0.1632
 1974W        W17783  10.192  17.245   1.010  0.0814  0.1377 -0.2847
 1975W        W17784   8.598  15.214   2.951  0.0256 -0.1096 -0.0935
 1976W        W17785   5.289  10.251  11.793 -0.0694 -0.0134  0.0674
 1977W        W17786   4.023   0.412  12.917 -0.0164 -0.1090 -0.0079
 1978W        W17787  18.377   8.605  14.262  0.0759 -0.0879 -0.3319
 1979W        W17788   0.092  15.179   1.298 -0.1312 -0.2779 -0.1737
 1980W        W17789   1.892   1.716   1.092 -0.2357 -0.1573  0.2075
 1981W        W17790  14.628  17.807   5.113 -0.1092 -0.3302 -0.1504
 1982W        W17791   3.887  18.295  11.379 -0.2028 -0.1069  0.2295
 1983W        W17792   6.500   0.258   5.130 -0.3851  0.1917 -0.0561
 1984W        W17793  13.155   3.860  11.003  0.0163 -0.1506  0.0366
 1985W        W17794  13.050  11.987  13.846 -0.5169  0.1437  0.1308
 1986W        W17795  15.060   2.537   1.583 -0.2836  0.1067  0.1243
 1987W        W17796   4.727   2.876  15.202  0.1779  0.1627  0.0253
 1988W        W17797   8.520   7.146   1.481  0.2940 -0.0601  0.1758
 1989W        W17798  12.412   2.784   2.643 -0.0820  0.4046  0.1934
 1990W        W17799  14.265   0.088   0.268  0.4208 -0.1731 -0.5104
 1991W        W17800   4.019  10.173   3.607 -0.0602  0.1526  0.2164
 1992W        W17801  14.208   5.636  11.643  0.2419 -0.3554 -0.0626
 1993W        W17802   1.950   3.135  11.469 -0.1176  0.0674 -0.0958
 1994W        W17803   9.269  10.674  10.501  0.0220 -0.0121  0.2896
 1995W        W17804  17.525   9.306  15.701  0.2458  0.0117  0.0799
 1996W        W17805  13.498   5.570  12.061 -0.0480 -0.4724  0.1381
 1997W        W17806  14.014  10.017   4.125  0.1218 -0.1364 -0.2507
 1998W        W17807  13.313  10.170   4.893  0.0998  0.1611 -0.1941
 1999W        W17808  15.281   9.787  14.304  0.1539  0.0761  0.0149
 2000W        W17809   2.461   5.477  13.956  0.1946  0.1577  0.0262
 2001W        W17810   1.371   2.604   4.471 -0.4523  0.2377 -0.0243
 2002W        W17811  16.359  15.935  11.834 -0.1521 -0.0087 -0.0041
 2003W        W17812   4.615   6.977   1.120 -0.0407 -0.0432  0.1708
 2004W        W17813   4.005   0.705  13.323  0.1183 -0.0079 -0.2180
 2005W        W17814  18.033   5.596  14.235  0.0831  0.0666 -0.2083
 2006W        W17815  10.009   1.927   4.606 -0.0887  0.3279 -0.3102
 2007W        W17816  15.692  10.335  13.442  0.2435 -0.2677 -0.1376
 2008W        W17817  14.851   9.571   2.385 -0.1929  0.0013  0.2898
 2009W        W17818  13.116  17.493  13.954 -0.2602  0.3375  0.2622
 2010W        W17819  15.682   9.535  12.611 -0.2625  0.0935 -0.3032
 2011W        W17820  15.379  16.695   2.742  0.2186  0.0591 -0.0537
 2012W        W17821   2.304   8.995  15.467  0.0254  0.0473  0.4397
 2013W        W17822  15.554   8.678  12.748 -0.2873 -0.0679 -0.0019
 2014W        W17823   6.851  15.980  11.680 -0.0670  0.0885 -0.3382
 2015W        W17824  10.962  12.122  14.379  0.0188 -0.2475  0.0486
 2016W        W17825   6.436   8.033   4.360  0.0214 -0.2363  0.4567
 2017W        W17826   6.847   9.178   0.278  0.0426 -0.0343 -0.2442
 2018W        W17827   2.825  13.888  13.458 -0.1508 -0.0513  0.1229
 2019W        W17828   0.214  16.973   5.965  0.1155  0.1448  0.2543
 2020W        W17829   8.426   6.302   1.326  0.0006 -0.1269 -0.0786
 2021W        W17830   6.497  11.760  12.755  0.2838 -0.0368 -0.0421
 2022W        W17831  11.307  16.626   2.927  0.0476 -0.1236  0.0739
 2023W        W17832   7.354   3.805  14.294  0.2533  0.0192  0.0693
 2024W        W17833  17.517  10.583   2.055 -0.1126  0.0162  0.0876
 2025W        W17834   2.876  15.051   4.106  0.1025  0.0107 -0.2825
 2026W        W17835  15.583   7.344  15.429 -0.0244 -0.0049 -0.0015
 2027W        W17836   8.803   7.634  11.846  0.2107  0.0539 -0.0885
 2028W        W17837   4.740   4.829  14.653  0.0706 -0.1954  0.2341
 2029W        W17838  17.250  17.147  10.287 -0.1452  0.1900 -0.0333
 2030W        W17839  12.104  15.122   2.745  0.2927 -0.0714 -0.1297
 2031W        W17840   2.383   4.824  15.308  0.0013  0.1848 -0.1163
 2032W        W17841   6.246  15.678   2.260  0.0042  0.0950  0.0450
 2033W        W17842   7.656   6.757   3.728  0.0265 -0.0262 -0.2349
 2034W        W17843   0.267  14.877  14.233 -0.3061  0.0548 -0.0974
 2035W        W17844   8.427  18.061  14.060 -0.0495 -0.2587  0.1336
 2036W        W17845   7.544  12.857  12.372 -0.0363  0.3251 -0.0830
 2037W        W17846   2.600   5.554  12.665  0.0677  0.1046  0.1426
 2038W        W17847  15.218  18.593  12.132  0.0788 -0.0757 -0.1077
 2039W        W17848  16.646  10.282  14.351  0.2027 -0.2584  0.1169
 2040W        W17849  14.340  10.350  11.175  0.0624 -0.1508 -0.0044
 2041W        W17850  11.741   2.653  14.191  0.1275 -0.2077  0.2051
 2042W        W17851   9.814   9.091  13.544  0.0626  0.0670 -0.4598
 2043W        W17852  11.446   0.116   0.980 -0.1012 -0.0149 -0.1614
 2044W        W17853  10.313  12.869   5.912  0.0152  0.0838 -0.3063
 2045W        W17854  17.446   8.188  13.344  0.2531  0.1054 -0.2327
 2046W        W17855   0.811  14.076  15.675  0.2641 -0.0451  0.1549
 2047W        W17856  14.271   1.329   3.000  0.0151 -0.0137 -0.3983
 2048W        W17857   6.106  13.863   5.283 -0.0092  0.2472  0.1837
 2049W        W17858  14.957  15.829   4.363  0.0757  0.0336  0.1214
 2050W        W17859   2.264   7.073  15.111 -0.2609 -0.0708  0.0842
 2051W        W17860  15.072   6.738   3.572  0.0114  0.0847  0.1704
 2052W        W17861  11.665  12.921  12.294 -0.1215 -0.0446 -0.2478
 2053W        W17862   7.719   5.000  12.997 -0.2151  0.2261 -0.1819
 2054W        W17863  11.226  10.588  13.196  0.2494  0.4180 -0.4317
 2055W        W17864   8.355  17.628  14.400  0.0877 -0.2008  0.1725
 2056W        W17865   2.100  18.175  13.821  0.1082  0.2282 -0.3493
 2057W        W17866   2.555  17.113   4.699  0.1863  0.2374  0.2964
 2058W        W17867   1.821   4.021  14.284  0.2005 -0.2405 -0.3894
 2059W        W17868   8.599  18.125   5.043 -0.0374 -0.1968 -0.1730
 2060W        W17869  16.515   4.476  13.024  0.0381  0.2904  0.1382
 2061W        W17870  15.817  15.472   1.906  0.0732 -0.1814  0.3179
 2062W        W17871  10.163  15.435  14.900  0.1935  0.3273  0.0043
 2063W        W17872  15.265  11.159  13.929  0.1614 -0.4248 -0.1380
 2064W        W17873   9.798  18.119  15.117  0.0705 -0.1680 -0.1593
 2065W        W17874  18.271   3.982  13.909  0.3040 -0.3257  0.1085
 2066W        W17875  13.421   1.433   0.155 -0.1772  0.1541 -0.1770
 2067W        W17876   5.719  11.279   2.743 -0.1082 -0.0279  0.1959
 2068W        W17877  10.518   5.204   2.661 -0.0678  0.2082 -0.0909
 2069W        W17878   3.867   7.188   2.359 -0.0311 -0.0588 -0.1449
 2070W        W17879  11.431   8.368  14.027 -0.2843 -0.0406  0.1354
 2071W        W17880   6.924   9.179  14.169  0.3168 -0.0202  0.0701
 2072W        W17881   7.592  17.521  12.120 -0.0151 -0.2262  0.1546
 2073W        W17882   7.262   9.159   0.901  0.0931 -0.2999  0.0540
 2074W        W17883  14.198   3.257  14.076 -0.0792 -0.1275 -0.0889
 2075W        W17884   3.041  10.531   2.770  0.0823 -0.2196  0.1199
 2076W        W17885  12.921   2.451  14.679  0.0671 -0.1954 -0.1897
 2077W        W17886  14.990   1.362   0.394  0.2067 -0.2460 -0.1945
 2078W        W17887  12.514   8.477   0.249  0.0378 -0.0371  0.0714
 2079W        W17888   5.000  15.707   2.526 -0.1473 -0.2080  0.2192
 2080W        W17889  14.227  11.900   0.427 -0.0569  0.1781 -0.1233
 2081W        W17890   9.167  12.102  12.305  0.1416  0.0778  0.0739
 2082W        W17891  14.777  12.266  11.697 -0.2172 -0.0371 -0.2232
 2083W        W17892   6.952  11.023  15.164 -0.3715  0.1572 -0.0987
 2084W        W17893   1.125   5.938   3.367 -0.0041 -0.0674 -0.1740
 2085W        W17894   8.708  16.216   4.958  0.0580 -0.0045  0.1754
 2086W        W17895   2.977   1.499   2.874 -0.0751  0.1646 -0.1918
 2087W        W17896   7.297   9.101  15.221  0.0051  0.2291 -0.0048
 2088W        W17897   1.488   9.187  10.847  0.3416 -0.3657  0.1994
 2089W        W17898   4.336  17.644   5.625 -0.1390 -0.1027  0.0005
 2090W        W17899   9.835   0.309  15.341 -0.2929 -0.1639  0.0900
 2091W        W17900   9.927   5.836   5.688  0.0147 -0.1506  0.0188
 2092W        W17901   3.895   9.168   0.231 -0.2972  0.0867  0.1205
 2093W        W17902   1.329  14.819   3.833 -0.1176 -0.1219  0.1049
 2094W        W17903  12.348   7.199  14.437 -0.1699  0.0611  0.0733
 2095W        W17904  15.657  12.847   1.212  0.0901 -0.1826  0.0436
 2096W        W17905   8.008   8.380   2.865  0.0139 -0.1735 -0.1254
 2097W        W17906  16.649   6.342   1.070  0.1176 -0.1292  0.2938
 2098W        W17907   8.508   0.175   4.010 -0.0133 -0.3600 -0.0143
 2099W        W17908   5.355   6.084  11.562  0.0349  0.0763  0.2220
 2100W        W17909   8.674  16.600   0.413  0.2728  0.5158  0.0848
 2101W        W17910   6.727   3.121  11.281  0.0760 -0.0029 -0.1476
 2102W        W17911   2.939  16.642   5.372 -0.0142  0.2953 -0.0621
 2103W        W17912  10.765  13.768  10.588 -0.0498  0.1634  0.0024
 2104W        W17913  10.067  11.555   5.170 -0.0415 -0.2098 -0.0508
 2105W        W17914  10.454   2.574  14.701  0.0611 -0.0915 -0.1171
 2106W        W17915  15.022  11.432   3.947  0.2634  0.0004  0.4319
 2107W        W17916   7.189  12.059  12.619  0.1726 -0.3143 -0.0472
 2108W        W17917   3.083  18.230   3.023 -0.1366  0.1037 -0.0032
 2109W        W17918  13.230   6.400   2.687  0.0092  0.0532 -0.0785
 2110W        W17919   7.056  14.860   2.080 -0.2726 -0.1002  0.0205
 2111W        W17920  10.923   1.437  15.555 -0.0740  0.1347 -0.0104
 2112W        W17921  14.956   7.971   5.800  0.2164 -0.3356  0.0906
 2113W        W17922  12.136  14.108  13.281  0.1488 -0.2038  0.0757
 2114W        W17923   0.813  14.357  15.265 -0.0472  0.4811 -0.1070
 2115W        W17924  17.181   4.888   1.999 -0.1700  0.4122  0.0070
 2116W        W17925   2.815  11.840   3.762  0.3230  0.0646  0.1625
 2117W        W17926   0.301  12.772   5.244  0.0499  0.1599 -0.6809
 2118W        W17927   4.268  10.152   1.076  0.1017  0.1616  0.0700
 2119W        W17928   5.849   2.695  15.512  0.0150  0.3267  0.2244
 2120W        W17929   4.050   3.485  15.708  0.0851 -0.0465 -0.4360
 2121W        W17930   4.399  13.214  11.762  0.0170  0.3369 -0.0210
 2122W        W17931  18.518   7.721  13.613  0.2180  0.0773 -0.0378
 2123W        W17932  10.243  16.973  14.209 -0.0800 -0.0625 -0.1892
 2124W        W17933   8.014   7.172  12.988  0.1111 -0.3558  0.1574
 2125W        W17934  11.931   7.908   0.654  0.0838 -0.0168  0.2094
 2126W        W17935  12.617  13.252   0.690 -0.3461  0.0481  0.0817
 2127W        W17936   2.296  16.608   0.276  0.2378 -0.1203  0.1507
 2128W        W17937  13.676   1.995  10.649 -0.0182 -0.1406 -0.2120
 2129W        W17938   7.773  18.474  15.291  0.0916 -0.2077 -0.0158
 2130W        W17939  10.962   8.044  11.309 -0.1317 -0.1017  0.2111
 2131W        W17940  15.157   6.583  11.809 -0.0285  0.1643  0.2684
 2132W        W17941   7.868  11.802   0.674  0.2065 -0.1105 -0.2003
 2133W        W17942  10.393   7.282  12.802 -0.0138 -0.1928 -0.2665
 2134W        W17943  14.675   6.673   0.417 -0.2369 -0.1253 -0.1422
 2135W        W17944   7.989  18.532   2.455 -0.2342 -0.1995  0.1061
 2136W        W17945  15.213  17.130   1.824  0.1250  0.1605 -0.0390
 2137W        W17946  11.574  11.479   5.272  0.1658 -0.3950  0.0664
 2138W        W17947   9.761   6.103   0.218  0.0383 -0.0334  0.1971
 2139W        W17948   9.319   8.457  12.870  0.1176  0.0907  0.0178
 2140W        W17949   7.456   9.317   0.484  0.1540 -0.0921 -0.0919
 2141W        W17950  10.718  15.407   1.668 -0.1048 -0.1266  0.1665
 2142W        W17951  16.609  10.797  11.612  0.2892  0.1544  0.0070
 2143W        W17952   6.427   9.099   4.962  0.1032 -0.1811 -0.4340
 2144W        W17953   6.472   5.060   3.003 -0.1623 -0.0014 -0.2235
 2145W        W17954   4.394  10.181  11.445  0.1478 -0.0281  0.0455
 2146W        W17955  11.360   1.709   1.863 -0.3556 -0.0433 -0.0204
 2147W        W17956  14.580   4.234   3.656  0.2215  0.2319  0.0315
 2148W        W17957  16.983   9.367  14.497  0.1256  0.0855 -0.1311
 2149W        W17958  17.396  15.992  11.938  0.2029 -0.0412 -0.3868
 2150W        W17959   2.776   2.852   3.449 -0.1760 -0.2125 -0.3782
 2151W        W17960   8.041  13.306   5.607 -0.2140 -0.2412  0.2341
 2152W        W17961   4.520   0.324   1.273  0.0328 -0.1132  0.3071
 2153W        W17962   0.749  11.119  12.289 -0.4839  0.0432  0.1974
 2154W        W17963  16.511  10.758   9.848  0.1777  0.1460  0.0670
 2155W        W17964  15.737  11.438   4.922 -0.0076  0.3712 -0.0443
 2156W        W17965   5.711  14.131  13.687 -0.2512 -0.0877  0.0161
 2157W        W17966   8.756  10.651  13.150  0.0089 -0.2062  0.2326
 2158W        W17967  13.481   6.867  12.982  0.0964 -0.2771  0.0101
 2159W        W17968  16.528   9.700  14.419 -0.0341 -0.0793 -0.0081
 2160W        W17969   3.125  10.629  12.340 -0.0994 -0.0197 -0.2609
 2161W        W17970   6.786  12.333   2.259  0.0543 -0.1470  0.0524
 2162W        W17971  18.440  13.139   4.232 -0.1994  0.0001 -0.0303
 2163W        W17972   5.916   9.599   2.745 -0.0241  0.3385  0.1063
 2164W        W17973   9.871   5.000  11.099 -0.2091 -0.2349 -0.2381
 2165W        W17974   0.446   8.575  15.495 -0.2401  0.0321 -0.0873
 2166W        W17975   9.975  14.722   3.637  0.5118 -0.1728 -0.1960
 2167W        W17976  13.973   7.301   1.072  0.2312 -0.0607  0.2158
 2168W        W17977   9.290   4.570   3.213  0.1538 -0.4617  0.0818
 2169W        W17978   2.487  12.366   1.483  0.0521 -0.2409  0.0072
 2170W        W17979  16.357  16.475  11.175 -0.0497  0.4380 -0.0159
 2171W        W17980   1.326   5.176  15.060  0.2652  0.2077  0.4230
 2172W        W17981  13.673  14.736   4.082  0.0152 -0.0185 -0.1428
 2173W        W17982  17.367   1.771   3.594 -0.0441  0.0439  0.1817
 2174W        W17983   6.750  17.205  15.291  0.3079 -0.0082 -0.1903
 2175W        W17984   6.174  17.533  11.949 -0.2798  0.0729 -0.1531
 2176W        W17985   3.015   2.454  12.191 -0.0348 -0.2833 -0.0063
 2177W        W17986  12.913   2.616   5.774 -0.3305 -0.0857  0.1216
 2178W        W17987  17.575  11.231   1.970 -0.1573  0.4552  0.4317
 2179W        W17988  17.716   9.297  14.535 -0.2029  0.2519 -0.1890
 2180W        W17989   5.944  17.210   0.428  0.1443  0.0312  0.0393
 2181W        W17990   1.408   5.800   5.564  0.0571 -0.1197  0.3790
 2182W        W17991  16.587   2.845   1.611 -0.4596 -0.1248 -0.1075
 2183W        W17992   8.487   6.911  13.856  0.0472 -0.2257  0.0383
 2184W        W17993  16.674   2.266   1.760 -0.4382  0.2253  0.0660
 2185W        W17994   9.989  16.263  10.622  0.3358 -0.1719 -0.2652
 2186W        W17995  14.910   7.839  15.328  0.1013 -0.1922  0.2265
 2187W        W17996  14.495  18.310  14.441  0.1387  0.0539  0.1519
 2188W        W17997   7.196   5.662  11.489  0.1602 -0.0619  0.0353
 2189W        W17998  15.861   4.908  10.390  0.2302 -0.1121  0.1649
 2190W        W17999  18.081   4.992  14.275 -0.2543  0.0102  0.0390
 2191W        W18000  16.229  14.663  11.018  0.1138  0.0831  0.0621
 2192W        W18001  10.567  14.648  10.696 -0.3900 -0.1754  0.1980
 2193W        W18002   0.293  14.592   1.249 -0.4323 -0.3203 -0.0428
 2194W        W18003   8.031   3.394   0.991  0.2195 -0.1563 -0.0195
 2195W        W18004  17.053   4.354  11.655 -0.2415 -0.4012 -0.2571
 2196W        W18005   5.529  15.065   3.290  0.2231 -0.1968  0.3131
 2197W        W18006   5.453  14.707   5.198 -0.0643 -0.0724 -0.2033
 2198W        W18007   0.023  15.389   4.298 -0.1997 -0.2051 -0.0917
 2199W        W18008  13.332   8.460  14.099  0.0461  0.0723 -0.0741
 2200W        W18009   2.791  10.257   2.266  0.0943 -0.0511 -0.2534
 2201W        W18010   4.775  11.691   0.431  0.1555  0.0595  0.0038
 2202W        W18011   6.988   7.994   4.342  0.1373  0.0533  0.1414
 2203W        W18012   2.617  11.867   1.549 -0.0789 -0.0703  0.1470
 2204W        W18013   7.076  12.545   3.141  0.0772 -0.2043  0.0541
 2205W        W18014  15.565   2.211   9.581 -0.1680  0.0568  0.1815
 2206W        W18015   2.009  18.574  13.414  0.1911 -0.1784 -0.1499
 2207W        W18016   3.149   6.753   1.790  0.1025 -0.2064  0.2942
 2208W        W18017   9.997   8.931  10.991  0.0741 -0.0281 -0.3203
 2209W        W18018   3.379  10.913  13.156  0.0993 -0.2198 -0.0041
 2210W        W18019   4.416  15.004  10.634  0.0382  0.0064 -0.1429
 2211W        W18020  14.234   5.361   4.559 -0.0118 -0.0733  0.0439
 2212W        W18021   2.900   1.840   2.471 -0.5331  0.1646 -0.0622
 2213W        W18022  10.702   1.444  12.809 -0.2030  0.0259 -0.0192
 2214W        W18023  17.579  16.763  13.177  0.2201 -0.0415  0.4400
 2215W        W18024   6.133  16.277   0.746 -0.1933  0.2890 -0.1602
 2216W        W18025  15.874  16.760  12.062 -0.3390 -0.0410  0.1706
 2217W        W18026   6.752  11.044   2.415  0.5509 -0.0173  0.1936
 2218W        W18027   6.414   4.748   0.134  0.2552  0.2096  0.0757
 2219W        W18028  16.125   3.095  14.306 -0.1990  0.0876  0.0649
 2220W        W18029   1.955   3.368   1.972 -0.0280  0.4855  0.3040
 2221W        W18030  15.031  15.550  10.729  0.0125  0.1244  0.1447
 2222W        W18031   8.778  10.775   0.747 -0.0119  0.0602 -0.1652
 2223W        W18032   1.286   9.650  13.917  0.1261  0.2593 -0.0261
 2224W        W18033  18.308  11.873  12.808  0.0190  0.2117 -0.0435
 2225W        W18034  11.179   1.802  11.034  0.1428 -0.1455  0.4239
 2226W        W18035  10.992   0.581   4.879  0.3860 -0.2369 -0.0641
 2227W        W18036  10.022   9.865  15.214  0.0026 -0.1497  0.0134
 2228W        W18037   4.291   9.198   4.119 -0.1694 -0.0301  0.2374
 2229W        W18038  11.738   9.537  14.097  0.0881 -0.2267  0.0886
 2230W        W18039  17.740  13.509  14.637 -0.0837  0.1782 -0.1218
 2231W        W18040  16.468   4.151   3.471 -0.1634  0.0421 -0.3013
 2232W        W18041   2.117   7.346  12.066  0.0990 -0.0954 -0.0412
 2233W        W18042   0.671  11.914   1.442  0.5302 -0.0157 -0.0979
 2234W        W18043  12.953   6.876  14.966 -0.0948  0.5889  0.2950
 2235W        W18044  10.090   1.646   4.186  0.2626 -0.2154 -0.2828
 2236W        W18045   3.838  12.537   5.970 -0.1222  0.1446  0.2629
 2237W        W18046   7.652   2.398  12.668 -0.1552 -0.0593  0.0261
 2238W        W18047   9.082  15.773  15.276  0.0725 -0.0600  0.1189
 2239W        W18048   4.409   0.659   2.492 -0.0661 -0.0331 -0.2984
 2240W        W18049   7.425   4.376  13.741  0.0188 -0.1171  0.1607
 2241W        W18050   5.001  13.835  13.098 -0.1511  0.0108 -0.0808
 2242W        W18051  17.190   5.369   1.779  0.3785  0.0845 -0.1516
 2243W        W18052   2.338   3.253  14.687  0.1547  0.1103  0.1354
 2244W        W18053  10.124  12.475   5.209  0.0375  0.2619  0.2240
 2245W        W18054   8.537  16.206   4.204  0.2724  0.0954 -0.0725
 2246W        W18055  10.885  12.898  13.382  0.0938  0.2623  0.2208
 2247W        W18056  17.397  13.129   2.022 -0.2573 -0.3410  0.0388
 2248W        W18057  11.552   9.065   2.525  0.0079 -0.1163  0.1492
 2249W        W18058   2.813   0.753   4.509  0.0775  0.1565 -0.1756
 2250W        W18059   3.743  18.301  15.295 -0.1019 -0.1386 -0.0256
 2251W        W18060  10.207  12.484  15.563 -0.0080 -0.0448 -0.3503
 2252W        W18061  18.576   9.072  11.692  0.0795 -0.1019  0.0537
 2253W        W18062   0.101   6.859   0.414 -0.1231 -0.0102 -0.0054
 2254W        W18063   8.787  17.494   0.022 -0.2475  0.3480  0.3241
 2255W        W18064   1.104  18.017  12.816 -0.1655 -0.4081 -0.3744
 2256W        W18065   3.131  16.319   0.638 -0.0174 -0.0205 -0.0903
 2257W        W18066  12.366   1.035   1.949  0.2561  0.1178  0.1927
 2258W        W18067  14.898   7.536  11.264 -0.0048 -0.1771  0.0653
 2259W        W18068  17.046   2.550   0.670  0.2104  0.2286  0.2548
 2260W        W18069   4.752  18.084  13.496 -0.2577  0.2776  0.0409
 2261W        W18070  15.454  13.357  15.289  0.1726  0.2030 -0.0722
 2262W        W18071   0.738  10.295   3.886  0.0990 -0.1837 -0.2191
 2263W        W18072  17.744   3.298   1.079  0.0278  0.1682 -0.3144
 2264W        W18073   9.315  14.477   1.027  0.0566  0.1393 -0.0291
 2265W        W18074   2.017  14.846   2.539 -0.1272 -0.0802  0.0187
 2266W        W18075  10.064   1.696   3.729  0.1420  0.1276  0.1114
 2267W        W18076   5.209  18.213  13.539  0.0348  0.0336 -0.5927
 2268W        W18077   4.294   8.739   5.442  0.2051 -0.1327  0.2427
 2269W        W18078   3.691   9.993  15.665 -0.4407 -0.1091 -0.0697
 2270W        W18079   6.387   3.393   2.400  0.0629 -0.2592 -0.0240
 2271W        W18080   9.333   1.421  13.228  0.0851 -0.0442 -0.1467
 2272W        W18081   2.541  15.690   0.945 -0.0154 -0.0019 -0.1282
 2273W        W18082   2.506  18.049   4.213  0.0742 -0.0518 -0.0272
 2274W        W18083  18.155   1.786  14.984 -0.4006 -0.2814  0.1581
 2275W        W18084   6.573   4.097   2.525  0.0297  0.3009 -0.0442
 2276W        W18085   3.594  14.696   4.788  0.0185  0.1033  0.1058
 2277W        W18086   6.749  11.697   4.322 -0.0594  0.0499 -0.2614
 2278W        W18087   0.569  16.702   2.543 -0.1847 -0.1236 -0.2450
 2279W        W18088  15.793  17.808   1.758 -0.4327  0.1620  0.0476
 2280W        W18089   4.010  17.544   2.953  0.0692  0.0551 -0.1510
 2281W        W18090  11.029  16.528   0.150  0.4629 -0.0126 -0.0842
 2282W        W18091  13.822   1.213  15.589 -0.0505  0.0699 -0.2653
 2283W        W18092  10.629  17.245   1.353 -0.1957 -0.1147 -0.2048
 2284W        W18093   2.356  15.568   2.221 -0.0852  0.5135 -0.2759
 2285W        W18094  14.731   6.430  10.489 -0.0576  0.1259  0.1385
 2286W        W18095   2.298  17.205  14.488  0.2841 -0.0524  0.0661
 2287W        W18096   6.573   2.028   4.703  0.1027 -0.1111 -0.1401
 2288W        W18097  14.158  12.570  15.689 -0.0255 -0.0334  0.0457
 2289W        W18098  13.037  10.553  14.759 -0.1683  0.0254 -0.1468
 2290W        W18099   2.515   1.862  11.074 -0.4225  0.0660  0.1353
 2291W        W18100   0.562   3.187  14.869 -0.0985 -0.0981 -0.0313
 2292W        W18101   7.176   3.228   1.389 -0.0658 -0.4103  0.0010
 2293W        W18102   8.104   3.281   5.188  0.3517  0.1272  0.2241
 2294W        W18103  10.249  16.498   0.567 -0.0976 -0.1788 -0.0040
 2295W        W18104  16.256   4.598   5.117  0.0329  0.0597  0.0344
 2296W        W18105   1.020   2.095   2.433 -0.1082 -0.2506  0.4672
 2297W        W18106   7.381  18.392   2.307  0.0899  0.1208  0.2805
 2298W        W18107  12.804   4.814  14.164 -0.0221 -0.1520 -0.1299
 2299W        W18108   5.689   8.252   4.791  0.1840 -0.0226 -0.0654
 2300W        W18109  12.387  17.875   2.067  0.1167 -0.2739 -0.1114
 2301W        W18110  10.927  15.098   3.279  0.1887  0.2168 -0.0969
 2302W        W18111  13.837   8.101   5.083  0.0676  0.3204 -0.2728
 2303W        W18112   9.370   5.135   4.236  0.2578 -0.1888  0.2673
 2304W        W18113   6.700  15.832  13.110  0.0393 -0.1532  0.0579
 2305W        W18114  15.912  18.433  11.600  0.1207  0.0635  0.1581
 2306W        W18115  14.833  12.285  14.590 -0.1457  0.0627  0.1460
 2307W        W18116   2.480  11.407  15.322 -0.1236 -0.0886 -0.2611
 2308W        W18117  11.662   9.354  13.171 -0.1276 -0.4967 -0.1045
 2309W        W18118   6.743  11.556   1.615 -0.2402 -0.0006 -0.1105
 2310W        W18119  10.644  18.450  10.406  0.1487 -0.0650  0.1534
 2311W        W18120   0.671  17.330   9.912  0.0162 -0.1158 -0.1316
 2312W        W18121   3.190  14.842  15.545 -0.1668 -0.3198 -0.4289
 2313W        W18122  14.257   4.345   4.902 -0.1376  0.2067 -0.2674
 2314W        W18123   9.142  12.204   0.022  0.0310 -0.2741 -0.3817
 2315W        W18124   5.800  13.570   0.763 -0.1831  0.1357  0.0479
 2316W        W18125   6.006  17.486  11.466  0.4041  0.1946 -0.0845
 2317W        W18126   7.446   4.184   1.922 -0.5070  0.0649 -0.1995
 2318W        W18127   6.907   5.096   0.986 -0.0568  0.1155  0.2038
 2319W        W18128  11.659   9.709   3.579  0.1410  0.1461  0.1936
 2320W        W18129  15.579   3.886   0.058 -0.0338  0.2579 -0.1799
 2321W        W18130   8.489   0.385   0.996 -0.0229  0.2669 -0.1306
 2322W        W18131   8.856  13.521  11.192 -0.3778 -0.2083 -0.0432
 2323W        W18132  14.605   6.715  13.835 -0.1957  0.0318 -0.2313
 2324W        W18133   1.755  15.963   9.532  0.0253  0.2312 -0.1245
 2325W        W18134   3.067   9.151  13.167 -0.0418 -0.1683 -0.0771
 2326W        W18135   2.813  18.104  13.209  0.1910  0.1482  0.0119
 2327W        W18136   3.990   4.310  11.616 -0.5547  0.1113 -0.0171
 2328W        W18137  11.082  12.809   3.370 -0.1282  0.4262  0.1280
 2329W        W18138  10.414   8.836  12.682 -0.0231 -0.1259  0.0863
 2330W        W18139  10.897  17.523  13.111  0.0497 -0.0016 -0.0095
 2331W        W18140   1.374   7.325  11.486 -0.4223  0.1193 -0.0167
 2332W        W18141   8.696   8.533  11.692 -0.0266  0.1785  0.1948
 2333W        W18142  11.950   4.112  11.346  0.1378  0.0513  0.1497
 2334W        W18143  11.110   6.179   1.323  0.1759  0.1454 -0.1053
 2335W        W18144   0.390   2.838  14.394  0.4427 -0.3604  0.2164
 2336W        W18145  17.194   3.181  14.992  0.0986 -0.1268 -0.0324
 2337W        W18146   7.542   1.370   2.492 -0.0642  0.0857  0.0444
 2338W        W18147   1.422   7.516  15.150  0.2284  0.1876  0.3024
 2339W        W18148   7.177   6.865  13.130 -0.4436  0.3588 -0.0483
 2340W        W18149   0.480  10.214   1.748  0.2478 -0.1130 -0.0639
 2341W        W18150   3.651   6.881   5.958 -0.1164 -0.1176 -0.0506
 2342W        W18151  14.459  15.065   1.748 -0.0847 -0.1792  0.2061
 2343W        W18152  12.524   0.157   5.006  0.3594 -0.1103 -0.3444
 2344W        W18153   1.858  12.257  11.106  0.0196 -0.0089 -0.2534
 2345W        W18154  11.463  10.119   1.677 -0.2532  0.0794 -0.1271
 2346W        W18155   6.761   1.305  11.500  0.0393 -0.0808 -0.3440
 2347W        W18156   9.564   0.798   2.151  0.0699 -0.1069  0.0344
 2348W        W18157  13.695  17.260   3.323  0.2324 -0.0655  0.1624
 2349W        W18158   3.052   5.975  11.993  0.1656 -0.0429  0.0501
 2350W        W18159  17.745  18.058   4.165  0.1695 -0.1379  0.0505
 2351W        W18160   8.028  10.896  15.423  0.2389 -0.1702  0.4495
 2352W        W18161   8.972   9.484  15.403 -0.0082  0.0971 -0.0674
 2353W        W18162   4.529  11.974   1.809  0.1127 -0.2372  0.2398
 2354W        W18163   0.285   9.132   3.225 -0.2793 -0.0976  0.0380
 2355W        W18164   2.827   6.041  12.914  0.1527  0.2828 -0.3452
 2356W        W18165  11.374   3.854   0.955 -0.2787  0.0290  0.1783
 2357W        W18166  16.252  14.064  13.278 -0.1139 -0.0328 -0.2140
 2358W        W18167   9.943   8.067   1.729  0.1744  0.1094 -0.0975
 2359W        W18168   9.407  15.599  13.842  0.2330  0.1205  0.0427
 2360W        W18169  12.785   3.678   4.637  0.3701  0.4002 -0.0382
 2361W        W18170   8.553   2.744  13.129  0.0983 -0.1363 -0.1030
 2362W        W18171   7.077   0.869  11.724 -0.1116 -0.1843  0.0797
 2363W        W18172   4.320   1.519  13.653 -0.2060 -0.0189  0.1350
 2364W        W18173  12.890   7.127  14.500 -0.0725 -0.0770  0.0037
 2365W        W18174   8.627  14.864   0.622 -0.1271 -0.1912 -0.0526
 2366W        W18175  10.905   4.079   0.789 -0.1350  0.1181  0.1314
 2367W        W18176  15.132  14.587   2.604  0.0867 -0.1441  0.0943
 2368W        W18177   1.834  18.344   1.827  0.0442  0.1963  0.0580
 2369W        W18178  17.789  12.594   5.656  0.3720 -0.2732  0.0641
 2370W        W18179   8.020   2.201  14.218  0.0560 -0.0806 -0.1954
 2371W        W18180   1.019   6.266   4.199 -0.1040 -0.0940  0.0013
 2372W        W18181   2.013   6.903   4.704  0.0880 -0.2155 -0.1476
 2373W        W18182  17.273  11.427  11.476  0.1350 -0.1882 -0.2394
 2374W        W18183  10.650   0.585  15.216 -0.1466  0.0037 -0.1481
 2375W        W18184   5.866   4.513  10.952 -0.1821  0.2525  0.1332
 2376W        W18185   9.917   5.444  10.911 -0.1351  0.3553  0.3101
 2377W        W18186  10.067   6.680  11.103 -0.1059  0.1091  0.0291
 2378W        W18187   7.878  16.592   2.386 -0.1312 -0.1319  0.2244
 2379W        W18188   3.046  16.710   4.243  0.4236 -0.0193 -0.1825
 2380W        W18189  14.740  18.017   0.547 -0.0660  0.0134  0.0109
 2381W        W18190   1.496  12.401  10.818  0.1798  0.0989  0.0291
 2382W        W18191  15.553  16.468  10.925  0.0251 -0.1563  0.0503
 2383W        W18192  10.418   8.173  10.999 -0.2483 -0.0721 -0.1424
 2384W        W18193   5.359  11.029   0.081  0.1813  0.0241  0.4270
 2385W        W18194   6.014  15.896   1.048 -0.1007 -0.2015  0.4333
 2386W        W18195  11.794  16.910   2.781  0.2289  0.0438  0.0221
 2387W        W18196   4.212  17.596  15.680 -0.1687 -0.1929  0.2221
 2388W        W18197   3.016   9.852   2.519  0.1999  0.1323 -0.1594
 2389W        W18198   2.216  10.078   1.153 -0.1738 -0.2225 -0.2937
 2390W        W18199   2.536  11.370   0.664  0.2179  0.1027  0.2574
 2391W        W18200  17.665  16.202   4.249 -0.1732 -0.4441  0.1166
 2392W        W18201   6.666  18.012   1.522  0.3794 -0.1798  0.0829
 2393W        W18202   4.231  11.103   4.103 -0.3452  0.0902 -0.0608
 2394W        W18203  13.299  12.254   0.909  0.1123 -0.0663 -0.1793
 2395W        W18204  12.274   5.347   0.234  0.0062  0.1984  0.1933
 2396W        W18205   0.118  14.046  12.964  0.2113  0.1057  0.0598
 2397W        W18206   1.817   0.686  14.184  0.0672 -0.0059  0.1159
 2398W        W18207   1.796   2.908  13.896 -0.3055  0.3807 -0.1400
 2399W        W18208   8.335  12.415  13.754 -0.3935  0.0432  0.0037
 2400W        W18209   9.411  12.859   4.849 -0.2464 -0.0067  0.0198
 2401W        W18210   9.878  16.806  10.842 -0.0234  0.0393  0.0969
 2402W        W18211   2.546   4.054  14.329  0.1925 -0.1072 -0.0376
 2403W        W18212   8.002  17.990   4.031 -0.4363  0.0422  0.1420
 2404W        W18213   9.703  15.223   0.786 -0.1559 -0.1917 -0.2120
 2405W        W18214   8.692   4.547  11.975  0.0502 -0.1466 -0.1434
 2406W        W18215  15.497   2.945   4.342  0.0827 -0.0450  0.0832
 2407W        W18216   7.467  18.468  15.665 -0.0678  0.1515 -0.2986
 2408W        W18217  17.896  10.438   5.070 -0.0033  0.0328 -0.3269
 2409W        W18218  13.988  12.145   5.463  0.2208 -0.0311  0.4567
 2410W        W18219  17.609   9.691   0.780  0.2474 -0.4068 -0.2462
 2411W        W18220   7.633   2.473   0.370  0.0135 -0.0693 -0.1749
 2412W        W18221  16.968  11.053  14.514 -0.0584  0.0655 -0.0908
 2413W        W18222  11.729   1.184   0.071  0.1758  0.2244  0.0185
 2414W        W18223   7.590   3.377  14.109  0.0738  0.0803  0.0203
 2415W        W18224  18.250  10.827   4.806  0.1524 -0.0138 -0.1254
 2416W        W18225   1.388  18.340  13.202  0.0084  0.2262 -0.2128
 2417W        W18226  16.351  11.641   1.379  0.1139  0.0507  0.0935
 2418W        W18227   4.657   3.766   0.674  0.0010 -0.0891  0.5049
 2419W        W18228   5.306  14.765  15.178  0.0044 -0.2490 -0.0415
 2420W        W18229  17.637  18.188  14.918 -0.0020 -0.0265 -0.0784
 2421W        W18230   8.984  17.185   3.463  0.1625  0.2724  0.2262
 2422W        W18231   3.190   1.476   4.315 -0.0778 -0.2632  0.0056
 2423W        W18232  13.609  18.152  12.906  0.0578  0.2843  0.1815
 2424W        W18233  14.242   6.242   4.820  0.1126 -0.2249  0.1686
 2425W        W18234  10.051   0.782   0.743 -0.0861  0.1195 -0.0341
 2426W        W18235   5.475  13.585  13.032  0.0913  0.0169 -0.0772
 2427W        W18236  10.372   1.593  13.432  0.1252 -0.0640  0.2441
 2428W        W18237  18.663   0.283  12.642  0.1081 -0.0018 -0.0538
 2429W        W18238  11.907   4.750   4.314  0.1503 -0.0756 -0.1129
 2430W        W18239  17.098   5.673  11.998  0.3855  0.6078 -0.0372
 2431W        W18240   1.681   1.171  15.101  0.0654 -0.0533  0.0344
 2432W        W18241  11.347   4.815   2.242 -0.2923 -0.2860  0.0451
 2433W        W18242  14.336   3.743  15.096 -0.0428  0.0380 -0.1084
 2434W        W18243   6.842  17.369   1.575  0.0987  0.2209  0.0475
 2435W        W18244   8.369  12.843  14.544 -0.1431 -0.1430  0.0270
 2436W        W18245  17.917  12.726   0.186 -0.1121  0.5436  0.0271
 2437W        W18246  11.339   1.167  15.458 -0.3631 -0.1857 -0.3627
 2438W        W18247  16.101  11.287   2.521 -0.2618  0.3774  0.1413
 2439W        W18248  14.501   5.180  10.849 -0.1987  0.2491  0.0093
 2440W        W18249  17.855  17.317   2.551  0.0777  0.2407  0.0123
 2441W        W18250  16.218   3.647   3.647 -0.0742  0.0832 -0.0275
 2442W        W18251  17.277  16.445  12.199 -0.0609 -0.0292  0.0124
 2443W        W18252   3.650   3.313   0.325  0.3983 -0.1328 -0.2169
 2444W        W18253  15.148   4.133   2.391  0.1785  0.1902  0.2698
 2445W        W18254  11.989  12.351   5.665  0.2178 -0.0145  0.0242
 2446W        W18255   5.658   6.887   3.370  0.0794 -0.1112  0.0422
 2447W        W18256   7.563  11.300  12.725  0.0091  0.0283 -0.0135
 2448W        W18257  16.813  17.175   4.378  0.1893 -0.2363 -0.2808
 2449W        W18258  15.917  13.833   0.792  0.1736  0.1439  0.1539
 2450W        W18259   3.192  10.538   5.482 -0.1982 -0.2884  0.0142
 2451W        W18260  10.765  12.213  12.791 -0.2914 -0.1331 -0.2108
 2452W        W18261  10.843  18.111  10.072  0.3925 -0.0482 -0.2371
 2453W        W18262   4.455  18.219  12.387 -0.0141 -0.0292 -0.0699
 2454W        W18263   6.272   0.476   3.529  0.1874 -0.0525 -0.1268
 2455W        W18264  11.377  13.694   4.700 -0.3853 -0.5893  0.4464
 2456W        W18265  18.188  14.593   4.015 -0.1028  0.0873  0.3025
 2457W        W18266  12.037   6.670   4.033  0.1375  0.1435  0.1879
 2458W        W18267   7.516   1.067   4.508  0.1397  0.0707 -0.0983
 2459W        W18268   9.348  16.176   4.263  0.4305 -0.1047  0.0111
 2460W        W18269  15.939   6.393  14.719 -0.4078  0.0881  0.1087
 2461W        W18270  15.865   2.996  12.468  0.0169  0.1463  0.2493
 2462W        W18271   5.157   4.415  15.518  0.0546 -0.3765  0.2679
 2463W        W18272  18.649  11.935   5.981 -0.0352 -0.1559  0.0908
 2464W        W18273   9.814  10.384   1.447 -0.0006 -0.0159 -0.0339
 2465W        W18274   1.612   4.224  15.194  0.2262  0.2603  0.0942
 2466W        W18275  16.458  17.676   3.671 -0.1150  0.1090  0.1570
 2467W        W18276   0.467   8.003   5.086 -0.0235 -0.2521  0.0964
 2468W        W18277   9.193  10.651  13.352 -0.0551 -0.0862 -0.2678
 2469W        W18278   8.564  10.321  11.776 -0.2511  0.2200 -0.0846
 2470W        W18279   3.295  15.129   4.872  0.2674  0.0773  0.1080
 2471W        W18280   9.503   7.842  13.085 -0.2380 -0.0339 -0.1208
 2472W        W18281  12.760   8.214  11.420  0.0842  0.2874 -0.1383
 2473W        W18282   1.984   9.818  15.511 -0.0239  0.0616 -0.3314
 2474W        W18283  16.876   8.122   5.184  0.1715 -0.0824  0.0813
 2475W        W18284  13.103  10.996  11.144  0.3457 -0.2435 -0.0181
 2476W        W18285  12.825   2.291  15.311 -0.4162 -0.0266 -0.0524
 2477W        W18286   9.356   2.172   0.889 -0.1444  0.1897 -0.2973
 2478W        W18287  15.314   7.307   1.090 -0.0368  0.1570  0.2717
 2479W        W18288   4.869  16.614   3.736  0.1182  0.0290 -0.0827
 2480W        W18289  13.368   1.163  12.429 -0.2459 -0.0406  0.0301
 2481W        W18290   2.435  16.558   5.589  0.0256 -0.0902 -0.1883
 2482W        W18291   6.253  15.501   5.204 -0.1560 -0.1973 -0.0598
 2483W        W18292  10.804  14.202  15.724 -0.0850  0.1985  0.0829
 2484W        W18293   5.672   3.244   5.056 -0.0455  0.0536  0.5039
 2485W        W18294  15.175  17.411  12.400  0.0209  0.3158  0.0072
 2486W        W18295  14.328  17.724  12.491  0.1329 -0.1023  0.1006
 2487W        W18296  14.151  12.025  13.057  0.0790  0.3612  0.0374
 2488W        W18297  15.769   4.610  15.136 -0.1781  0.0732 -0.2887
 2489W        W18298   3.967   7.383  15.708 -0.0773 -0.2937 -0.0548
 2490W        W18299  11.355  16.840   1.241 -0.1793  0.0915  0.0746
 2491W        W18300   1.208  18.565  12.235  0.3913 -0.0052 -0.1952
 2492W        W18301  17.062  15.789   9.965 -0.2508 -0.2029  0.4511
 2493W        W18302   6.160  18.000  11.831  0.0183  0.0867 -0.0339
 2494W        W18303   7.841  12.859   0.681  0.1695  0.0803  0.0745
 2495W        W18304  10.769  14.454  15.094 -0.2551 -0.2754 -0.3497
 2496W        W18305   9.454   2.376  11.166 -0.2153  0.1369 -0.0127
 2497W        W18306   2.894   0.292  15.046 -0.3305  0.0021 -0.0149
 2498W        W18307   0.026   9.992   0.980 -0.1178  0.2170  0.1001
 2499W        W18308   0.102   8.746  15.100  0.3580  0.2050  0.0464
 2500W        W18309  18.517  10.489   5.745 -0.0225  0.1682  0.2498
 2501W        W18310  14.090   4.257   0.926 -0.0235  0.0843 -0.1438
 2502W        W18311  16.514  17.912  10.112  0.1081 -0.0370 -0.0411
 2503W        W18312   6.874   4.768   4.311 -0.2284 -0.2566 -0.1118
 2504W        W18313   7.133   2.076   4.684 -0.1183  0.0658 -0.1433
 2505W        W18314  15.053   4.574  11.590  0.2272 -0.1395  0.2925
 2506W        W18315  18.439  12.712  14.034  0.2737  0.1386 -0.5280
 2507W        W18316   4.622  18.296   2.739 -0.2097  0.0823  0.0806
 2508W        W18317  13.429  16.184  12.127 -0.1355 -0.0328  0.2491
 2509W        W18318   1.351   7.763  14.741 -0.2457  0.0155 -0.1458
 2510W        W18319  18.640   9.882  14.574 -0.1548  0.3404 -0.1002
 2511W        W18320   0.644   1.101   4.202  0.1500  0.0648 -0.0783
 2512W        W18321  13.455   6.822   1.000  0.3596 -0.2827  0.0193
 2513W        W18322   1.768   7.192   1.726 -0.1367  0.0505  0.2691
 2514W        W18323  11.139   7.774   3.677  0.1631 -0.1844 -0.0130
 2515W        W18324   2.567  10.539   2.650  0.0934 -0.0306  0.0348
 2516W        W18325   1.727  16.760  15.166 -0.0506  0.3092  0.0328
 2517W        W18326   4.128  12.257   1.096  0.1492 -0.2766  0.1197
 2518W        W18327   6.910  13.530   2.239 -0.1715  0.1483  0.1590
 2519W        W18328  17.485   9.096   2.550 -0.0797  0.0236  0.0181
 2520W        W18329  15.512   7.501   0.492  0.3066  0.0107 -0.0098
 2521W        W18330  14.557   9.042  13.430  0.1126  0.2863  0.0331
 2522W        W18331   1.181   4.827   2.493  0.1804  0.0992  0.0499
 2523W        W18332  15.816  17.129  15.021  0.1810 -0.0321  0.2033
 2524W        W18333   6.965  12.457   1.691  0.0364 -0.0446 -0.0273
 2525W        W18334  10.127   8.263  13.652 -0.0912  0.0497 -0.1685
 2526W        W18335   2.217   9.932   4.847 -0.0431  0.0755 -0.0446
 2527W        W18336   6.743   1.637  14.847 -0.2463 -0.1120  0.0611
 2528W        W18337   2.183  13.610   0.317 -0.0932 -0.3145 -0.0762
 2529W        W18338   6.293  13.147   2.015  0.0143 -0.0271 -0.0529
 2530W        W18339  14.567  12.208   0.608 -0.1161 -0.0282 -0.1514
 2531W        W18340   7.716   5.177   5.302  0.0814 -0.0643 -0.2926
 2532W        W18341  15.464  14.300  10.674  0.0257  0.0863 -0.0688
 2533W        W18342   6.272   5.346  14.983 -0.0789 -0.2049  0.4608
 2534W        W18343   2.856   4.591  12.636  0.2159  0.1599  0.3263
 2535W        W18344  18.383   2.297  14.798 -0.1844 -0.1571  0.2883
 2536W        W18345  13.455   4.137  13.130 -0.2464 -0.0784  0.1752
 2537W        W18346   8.625   1.180   1.607  0.4232 -0.0496 -0.0198
 2538W        W18347   5.149   2.103  12.678 -0.3507  0.5954  0.2147
 2539W        W18348   9.131   4.447  14.567 -0.2142 -0.0552 -0.2104
 2540W        W18349   8.757   9.657   0.621 -0.1041  0.0824  0.0707
 2541W        W18350  12.679  14.893   3.594  0.3777  0.1255 -0.5683
 2542W        W18351   0.961  16.550   3.408  0.0463 -0.2016 -0.1700
 2543W        W18352  17.722  14.223  15.141 -0.2662 -0.1013  0.1439
 2544W        W18353   6.034  10.745  14.488 -0.0092  0.1875 -0.2074
 2545W        W18354   2.071   1.213   3.254 -0.2251 -0.1335 -0.1255
 2546W        W18355  12.538   4.976   3.627 -0.0504 -0.0959 -0.1566
 2547W        W18356  16.170   5.845  14.134  0.1916  0.0062 -0.2046
 2548W        W18357  16.703   0.155   9.734  0.2786  0.3088  0.1936
 2549W        W18358  18.209   6.500   0.936  0.2604 -0.2077 -0.1245
 2550W        W18359  14.488   2.841   3.273  0.2456 -0.4662 -0.2909
 2551W        W18360   9.998  12.098   2.347  0.0069  0.2187 -0.0019
 2552W        W18361   6.784   7.753   0.650 -0.1106  0.4835  0.1134
 2553W        W18362  17.026  12.695  11.951  0.5709 -0.0420  0.1462
 2554W        W18363   5.293   9.791   1.644  0.2640  0.2609 -0.0978
 2555W        W18364   8.958  14.386   0.599 -0.0209  0.0068 -0.1326
 2556W        W18365  17.456  16.493  10.446  0.1212  0.1453 -0.0036
 2557W        W18366  13.797  10.745   1.522  0.1785 -0.0506 -0.0641
 2558W        W18367   1.458   5.467  11.400 -0.3006 -0.3041 -0.2198
 2559W        W18368  10.044   9.196   1.706  0.1953 -0.0288 -0.0691
 2560W        W18369  18.637   3.921   4.631  0.1174  0.1873 -0.0856
 2561W        W18370  10.254  18.376   2.035 -0.1094  0.3096 -0.0351
 2562W        W18371  11.700   0.093   3.431  0.2307 -0.1698 -0.1144
 2563W        W18372   0.516   7.965  12.944 -0.0422  0.1324 -0.1302
 2564W        W18373  18.627  10.949   1.807 -0.0156 -0.2270  0.0690
 2565W        W18374  12.307   2.199  15.388  0.4679 -0.0893  0.0045
 2566W        W18375   8.751   0.298   0.484 -0.0285  0.1409 -0.4522
 2567W        W18376  18.061   6.390   0.273  0.1452 -0.0125 -0.3318
 2568W        W18377   3.196   3.880   4.188 -0.2281 -0.0376  0.0187
 2569W        W18378   8.671   0.503   4.456  0.0565 -0.1621  0.0737
 2570W        W18379   4.978   1.984   0.898  0.1879  0.0118  0.0485
 2571W        W18380  12.227   7.828  11.069  0.1369 -0.0013 -0.3941
 2572W        W18381   3.220  12.892   4.489 -0.0473 -0.3476  0.1977
 2573W        W18382   8.990  18.508  11.176 -0.0201  0.0875 -0.3005
 2574W        W18383  15.796  11.755   5.409 -0.0225 -0.1817 -0.1934
 2575W        W18384  10.894  15.252  11.521 -0.0671 -0.1957 -0.0816
 2576W        W18385  16.560  10.032  13.034 -0.1781  0.3028 -0.0141
 2577W        W18386   7.321   3.301  15.634  0.3603  0.2364 -0.2296
 2578W        W18387  18.531   5.623  14.244  0.0937 -0.1486  0.2307
 2579W        W18388  14.024   2.565  11.749  0.1804 -0.2424 -0.2751
 2580W        W18389   2.963  13.363   4.493 -0.2590 -0.0663  0.1214
 2581W        W18390   8.342   6.386   0.722 -0.2267  0.0856 -0.3137
 2582W        W18391   2.294   3.504  13.593 -0.0716 -0.2508  0.1862
 2583W        W18392  12.663   2.133   4.902  0.0135  0.1603  0.2585
 2584W        W18393   8.874  10.246  12.800 -0.0716 -0.0264  0.0345
 2585W        W18394  17.682   8.690  11.347  0.0221 -0.2888 -0.0545
 2586W        W18395  15.135  16.006   1.876  0.1847  0.0499 -0.0726
 2587W        W18396   3.542   7.839   2.453  0.1507 -0.0291  0.4538
 2588W        W18397   3.614   5.576  13.162  0.0013  0.1282 -0.0604
 2589W        W18398   1.941   3.450   5.857  0.1765  0.1207 -0.0681
 2590W        W18399   9.627  16.229  14.513  0.2860  0.1671 -0.0255
 2591W        W18400   8.755   7.977   6.033 -0.2014 -0.4649  0.1731
 2592W        W18401   7.171  10.918   4.437 -0.2420 -0.0769  0.0756
 2593W        W18402   7.060   0.264  15.663 -0.0016  0.1916 -0.1707
 2594W        W18403  13.735  15.831  15.065 -0.0207  0.0728  0.4083
 2595W        W18404  18.105  16.419  15.191 -0.1427 -0.0844  0.0202
 2596W        W18405  16.887   5.096   1.497 -0.0290  0.5114  0.0568
 2597W        W18406   8.937  16.505  12.875  0.2005  0.0550  0.0408
 2598W        W18407  13.738   8.685   2.428  0.0545  0.1437  0.1288
 2599W        W18408  10.745   4.505  12.873 -0.1350  0.3089 -0.3167
 2600W        W18409   4.375   2.778   0.676  0.0879 -0.1241  0.2653
 2601W        W18410  14.334  12.609   5.466  0.0766 -0.1281 -0.1192
 2602W        W18411   0.941   2.345  15.566  0.1745  0.4590  0.2461
 2603W        W18412  13.829  10.788   0.727  0.4549 -0.0381 -0.0534
 2604W        W18413  17.594   5.359   4.088 -0.0580  0.1121 -0.0033
 2605W        W18414  14.601  18.393  15.634  0.0155 -0.3367 -0.0830
 2606W        W18415  16.525  15.048  11.223 -0.2274  0.0092 -0.1652
 2607W        W18416  11.307   0.860  14.476  0.1698  0.3205 -0.3635
 2608W        W18417  12.912   2.372   2.276 -0.1743 -0.0700 -0.0225
 2609W        W18418  13.950  18.194   4.736  0.1621  0.0094  0.4015
 2610W        W18419   8.446  14.848  15.179  0.0506  0.1992  0.4918
 2611W        W18420  13.556  14.712  12.912 -0.0023 -0.2469  0.2306
 2612W        W18421  11.004   8.965   3.746  0.2526 -0.0146 -0.4021
 2613W        W18422  13.587  18.408   0.789  0.0917  0.1847 -0.1163
 2614W        W18423   6.561   3.768  14.592 -0.0348  0.1464  0.3864
 2615W        W18424  11.294  13.432   2.528 -0.0001 -0.1674  0.0591
 2616W        W18425   5.042   4.604   5.949 -0.1462 -0.2423 -0.0642
 2617W        W18426   4.789   7.089  11.251  0.6382  0.5404  0.3079
 2618W        W18427  11.004   4.179   1.684  0.0370  0.1126  0.0752
 2619W        W18428  10.998   7.989   0.867 -0.0643  0.0492  0.2158
 2620W        W18429   7.736   4.194   0.510  0.3951  0.2903  0.0138
 2621W        W18430   0.872   6.650  11.346 -0.0041 -0.0150 -0.2410
 2622W        W18431  17.413  14.625   3.372  0.4318 -0.0855 -0.0341
 2623W        W18432   4.776   0.821   4.093  0.3438  0.1343  0.0727
 2624W        W18433  16.938   4.879   4.688 -0.0134 -0.4163 -0.0036
 2625W        W18434   9.116  11.278   1.442 -0.1270 -0.0841 -0.0534
 2626W        W18435  14.326   9.519   2.512 -0.0164  0.0711 -0.1275
 2627W        W18436  10.148  12.354   3.985  0.0845  0.1664  0.2005
 2628W        W18437   7.075   2.726   1.080 -0.2090  0.1248  0.0783
 2629W        W18438  14.841  12.963  13.707  0.1374  0.0308  0.1829
 2630W        W18439   7.062  18.581   1.967  0.3308 -0.0446  0.3084
 2631W        W18440   6.131   8.889  12.385 -0.2357 -0.1930  0.2096
 2632W        W18441   6.139   7.263   4.987  0.5065  0.0319 -0.1138
 2633W        W18442  10.890  15.803  11.347 -0.2324 -0.4225  0.3488
 2634W        W18443  10.779  13.692  13.650 -0.1364 -0.2545  0.0757
 2635W        W18444   2.088   6.530   3.242 -0.1310 -0.4035  0.0132
 2636W        W18445   5.046   5.680   2.167  0.0474  0.1512  0.1467
 2637W        W18446  12.289   7.518   3.956 -0.2176  0.1481  0.2499
 2638W        W18447  18.099   3.816   3.681  0.0450 -0.2033  0.2584
 2639W        W18448   0.528   8.399  11.012 -0.0659  0.0535  0.1155
 2640W        W18449  11.644   6.026   0.528  0.0779 -0.0850 -0.0858
 2641W        W18450   7.722  11.333  15.619  0.0647 -0.2510  0.0753
 2642W        W18451   7.753  18.031  12.642  0.1009 -0.0684 -0.1570
 2643W        W18452  15.705   9.254   6.039  0.0925  0.3065  0.1142
 2644W        W18453   8.187   8.700  12.582  0.2256 -0.1246 -0.0585
 2645W        W18454  17.937  17.473   0.957 -0.0299  0.0892  0.4719
 2646W        W18455  12.910   3.207   4.892  0.3175 -0.0576 -0.3257
 2647W        W18456   2.975   6.578  14.443 -0.1700  0.3465  0.1659
 2648W        W18457   7.695   5.036   0.259  0.0954  0.1081  0.1981
 2649W        W18458   8.890   5.649   3.766  0.0437  0.0332  0.3488
 2650W        W18459   7.750   7.060   2.804 -0.1454  0.0786 -0.1719
 2651W        W18460  18.622  13.146   9.776  0.2927  0.1025 -0.3807
 2652W        W18461   3.821   1.135   4.055  0.0370  0.2425 -0.2290
 2653W        W18462   0.059   2.692   4.201 -0.0525 -0.1155  0.1394
 2654W        W18463  14.732  17.768  15.153  0.0516 -0.1290  0.0227
 2655W        W18464   4.282   0.879   1.395 -0.2274 -0.2843 -0.1128
 2656W        W18465   4.394  12.245  14.811  0.0520 -0.0723 -0.1118
 2657W        W18466  14.607   2.948  12.535 -0.0858  0.0311 -0.0878
 2658W        W18467  12.412   1.114   3.492  0.0596  0.0597  0.1484
 2659W        W18468  14.446   2.133  14.862  0.0004 -0.1853  0.0873
 2660W        W18469   4.386   6.588   4.269  0.2011 -0.2576  0.2745
 2661W        W18470   3.869  10.168   3.113  0.2320  0.1183 -0.0401
 2662W        W18471   9.661  13.624  13.604 -0.3161  0.0995 -0.2044
 2663W        W18472  14.153  10.447  10.699 -0.2790  0.1731 -0.2393
 2664W        W18473  18.521  11.727   0.949  0.0270  0.1888 -0.0364
 2665W        W18474   7.532  10.984  15.298  0.0433 -0.0172 -0.0304
 2666W        W18475  13.840   2.989  13.698  0.1700 -0.4156  0.1480
 2667W        W18476  15.711  14.865  12.448  0.0681 -0.1960 -0.0674
 2668W        W18477   2.546   1.050   4.057  0.1334  0.3383  0.2266
 2669W        W18478  13.504   6.262   3.175  0.0777 -0.1090  0.0710
 2670W        W18479   4.964  16.233   3.411 -0.0605 -0.2050  0.0483
 2671W        W18480   7.392  10.988  13.440 -0.1261  0.1147  0.3000
 2672W        W18481  11.011  14.156  13.766  0.1402  0.0319 -0.4803
 2673W        W18482   0.022  15.731   3.674  0.0147  0.1756 -0.0596
 2674W        W18483  17.313  15.371   3.744  0.1131  0.1217  0.0266
 2675W        W18484  18.295  10.461  15.586 -0.4188  0.0690 -0.0205
 2676W        W18485   7.023   6.510  14.694 -0.0476  0.0225  0.0491
 2677W        W18486  11.097   6.155  12.738  0.0185  0.0909  0.0100
 2678W        W18487   7.451   0.953   2.767  0.1828 -0.0540  0.0714
 2679W        W18488  11.344  13.719  13.596  0.0202 -0.0682 -0.1913
 2680W        W18489   7.108  11.125   5.854  0.0271  0.0883 -0.3026
 2681W        W18490  11.920  16.146   1.289  0.0232 -0.0750 -0.0224
 2682W        W18491   0.912  15.694   2.811  0.0008  0.0407 -0.2259
 2683W        W18492  13.428  15.164   3.528  0.2075 -0.0747  0.2101
 2684W        W18493  17.982  13.827  11.054  0.1805  0.3179  0.2530
 2685W        W18494  14.085  18.195   3.811  0.0399 -0.1175  0.2408
 2686W        W18495   8.584  13.886   3.585  0.3095  0.2718 -0.0906
 2687W        W18496   4.224   2.357   1.711 -0.2701 -0.3032 -0.1607
 2688W        W18497   1.650   6.502   2.850  0.0407  0.2262 -0.0284
 2689W        W18498   1.227  15.352   1.488  0.0828 -0.0546 -0.2092
 2690W        W18499   6.765  13.406  13.386  0.1448 -0.0078 -0.0236
 2691W        W18500   3.026  10.218   1.252  0.2089 -0.3210 -0.2153
 2692W        W18501   2.480  18.326   0.386 -0.2586 -0.1275 -0.1087
 2693W        W18502   8.833  17.140  14.716  0.2403  0.0440  0.4249
 2694W        W18503   8.187  18.535   1.650  0.1516  0.1556  0.1858
 2695W        W18504  11.172  16.226  11.412 -0.2037 -0.0058 -0.0440
 2696W        W18505  17.238  17.220   3.168 -0.2837 -0.2306 -0.1694
 2697W        W18506  16.220  10.989   5.979 -0.3968 -0.2951 -0.1403
 2698W        W18507  15.083   7.611   4.462 -0.2200  0.2094 -0.0136
 2699W        W18508  14.329  18.043  15.268  0.0311  0.1333 -0.1447
 2700W        W18509  18.485   5.230   3.595 -0.2319  0.2972 -0.0171
 2701W        W18510  10.735  12.218   1.856  0.0168 -0.1118  0.2644
 2702W        W18511  15.466   2.026   3.063 -0.0720 -0.1366 -0.1350
 2703W        W18512   4.693  16.070  14.862  0.0812 -0.0419 -0.1612
 2704W        W18513  14.742   6.354  13.069  0.0944  0.0639  0.3539
 2705W        W18514   1.092  16.408  15.738  0.1071  0.0742 -0.1657
 2706W        W18515   8.576   1.176  11.778 -0.3048  0.2056 -0.0658
 2707W        W18516   9.882  10.701   3.428  0.0822 -0.0145  0.2383
 2708W        W18517   1.019  16.676  14.053 -0.0072  0.0557  0.2088
 2709W        W18518  14.289  14.494   3.140 -0.1824 -0.0146 -0.2337
 2710W        W18519  10.743  15.409  15.718  0.1652  0.1477 -0.0484
 2711W        W18520   0.015   9.014  14.390 -0.0459  0.1138  0.1773
 2712W        W18521   4.391   3.589  14.581  0.1533  0.0883 -0.1042
 2713W        W18522   4.710   0.417  13.196 -0.2631  0.0149  0.0695
 2714W        W18523  17.116   0.106  11.692 -0.4216 -0.0295  0.1092
 2715W        W18524  12.197  15.963  11.760  0.2071  0.1917  0.3332
 2716W        W18525  16.123  16.385   1.857  0.0252  0.2656  0.1295
 2717W        W18526   9.107  10.491  12.074 -0.1733 -0.1051 -0.0353
 2718W        W18527   6.545   0.042   0.808 -0.2803 -0.3316 -0.1896
 2719W        W18528   8.304   1.775   3.969  0.1171 -0.1145 -0.1428
 2720W        W18529   8.074  13.053  14.863  0.0042  0.2388  0.1316
 2721W        W18530  17.873  13.529  13.399  0.0494  0.2730  0.0529
 2722W        W18531  13.782   6.309   0.675 -0.2040 -0.1237  0.0627
 2723W        W18532  17.115   1.610  13.950 -0.1079 -0.0687 -0.0563
 2724W        W18533  18.579  14.383  11.961 -0.3302  0.1432  0.1381
 2725W        W18534   6.022  16.337   5.202 -0.1868 -0.1450 -0.2570
 2726W        W18535   4.013  17.099   0.288 -0.1676 -0.4478 -0.0961
 2727W        W18536  10.468   0.750  10.792  0.0696  0.0584 -0.0830
 2728W        W18537  15.136  14.422  12.678 -0.0450  0.0029  0.0652
 2729W        W18538   6.330   3.270   1.282  0.2209 -0.2049  0.4576
 2730W        W18539   4.667   0.193   4.451 -0.0679  0.2745  0.1693
 2731W        W18540  11.228  17.945   1.710  0.1003 -0.0337  0.1235
 2732W        W18541  15.583   9.718   1.127 -0.0097  0.0822  0.2037
 2733W        W18542  15.311   7.281  12.039 -0.5454 -0.1113 -0.1556
 2734W        W18543  16.095  14.530   4.205  0.0009 -0.2661  0.0064
 2735W        W18544   3.199  14.848   4.485 -0.0487 -0.2786 -0.0723
 2736W        W18545   2.143  10.403  14.815 -0.3168  0.2428  0.4010
 2737W        W18546  15.742  13.298   0.587 -0.1133  0.0451  0.2262
 2738W        W18547   5.560  11.794  15.167  0.2557 -0.3408 -0.0984
 2739W        W18548   6.010  14.396   4.352  0.0617 -0.1269  0.2862
 2740W        W18549   1.738   8.887  12.804  0.0047  0.1302  0.2483
 2741W        W18550  16.712  12.155  13.293  0.1174 -0.0589 -0.1367
 2742W        W18551   3.039  12.930   0.358 -0.0693 -0.0323 -0.0129
 2743W        W18552   6.499   5.029  13.658  0.3136 -0.1155 -0.3145
 2744W        W18553   3.396   8.824   0.898 -0.0136 -0.1384 -0.0095
 2745W        W18554  16.050   3.820  12.882  0.0503 -0.2154  0.1421
 2746W        W18555  16.701   8.243  15.524  0.0369  0.1390  0.1800
 2747W        W18556  12.833   3.471   1.275  0.1448 -0.0236  0.2284
 2748W        W18557   1.769  18.453  11.313 -0.0538 -0.1278  0.1863
 2749W        W18558   8.479  15.999  11.690  0.1129 -0.1216 -0.0666
 2750W        W18559   8.548  15.422  11.887  0.0225 -0.1994 -0.2951
 2751W        W18560   8.427  16.708  11.124  0.1457  0.0656 -0.0591
 2752W        W18561   6.522  16.920   4.181  0.0123 -0.1116  0.0624
 2753W        W18562   6.527   1.570  14.087  0.0340 -0.0768 -0.2189
 2754W        W18563  11.499   4.769  11.351 -0.1527  0.2196 -0.0204
 2755W        W18564  12.921  11.955  11.706  0.2686  0.2412 -0.1051
 2756W        W18565  10.696   4.268   1.261 -0.2305 -0.1641 -0.1049
 2757W        W18566   9.384   9.326  14.677 -0.0036  0.0266  0.3003
 2758W        W18567   2.170   0.128  11.436  0.4180  0.1322 -0.1189
 2759W        W18568  16.902  17.286  13.443  0.0885 -0.2554 -0.0189
 2760W        W18569  11.618  17.695  10.850 -0.3212 -0.2235 -0.1043
 2761W        W18570   6.976   0.792   1.019  0.2389  0.2875  0.0391
 2762W        W18571  10.038  13.473   0.989  0.2409  0.2813 -0.1106
 2763W        W18572   9.125  17.890  12.516  0.0947 -0.2260  0.0011
 2764W        W18573   0.393  13.691   9.725  0.0325 -0.1745 -0.3589
 2765W        W18574   5.974   4.327   3.130 -0.0685 -0.3297 -0.1003
 2766W        W18575   5.720   6.727   4.139  0.2011 -0.4260 -0.2206
 2767W        W18576  14.967   9.549  11.173  0.1200  0.2212 -0.1477
 2768W        W18577  16.924  17.341   2.511  0.0863  0.2627  0.1551
 2769W        W18578   9.398   0.886   0.837 -0.0677 -0.2163 -0.1445
 2770W        W18579   3.731  16.372  13.031 -0.5444 -0.0759 -0.0544
 2771W        W18580   3.873   9.126   3.903  0.0308 -0.0594  0.0987
 2772W        W18581  15.225   2.645   3.985 -0.0610 -0.1360  0.1766
 2773W        W18582   5.348  17.480   0.418  0.2303  0.2361  0.1043
 2774W        W18583   3.065  11.194   2.180  0.2591  0.0559 -0.2102
 2775W        W18584   7.460  17.866  11.215 -0.1303 -0.2523  0.2367
 2776W        W18585   8.814   7.919   2.848 -0.1039 -0.2794 -0.1634
 2777W        W18586  15.496  10.761   2.864 -0.0467 -0.1186  0.2115
 2778W        W18587  12.119  17.918   9.571 -0.0381  0.1589  0.0686
 2779W        W18588  14.272  17.503  13.387 -0.0573 -0.3009  0.2029
 2780W        W18589   9.456   5.821   1.990  0.1812 -0.0361  0.1489
 2781W        W18590   4.947  15.559   2.010  0.0709 -0.0377 -0.2071
 2782W        W18591  11.963   1.793   0.366  0.0129 -0.1702  0.0805
 2783W        W18592  16.567  10.701  14.726  0.1288  0.1023 -0.1660
 2784W        W18593   6.629   9.019   3.630 -0.0922  0.1281 -0.3640
 2785W        W18594  10.109   3.982   0.194 -0.0052  0.0594 -0.0236
 2786W        W18595  16.055   8.191   4.404 -0.1335  0.0102 -0.1740
 2787W        W18596  18.283   1.304  15.598 -0.0521  0.0694  0.2927
 2788W        W18597  15.171   6.692  14.912 -0.2391  0.0041  0.1308
 2789W        W18598   2.353   6.422   0.662 -0.1060  0.1345 -0.1327
 2790W        W18599   8.407   9.558   4.891 -0.0404  0.0776 -0.0194
 2791W        W18600   0.914  12.499   4.930 -0.0555  0.0258 -0.0981
 2792W        W18601  17.284   4.411   1.933  0.0907  0.2630  0.4033
 2793W        W18602  12.563  14.250   4.517 -0.0691 -0.0472 -0.1677
 2794W        W18603  14.699   2.507  13.941 -0.1174  0.0886  0.0512
 2795W        W18604   3.615  15.648  13.674 -0.2134 -0.1723  0.4853
 2796W        W18605  17.544   0.683  13.821 -0.0476 -0.0554 -0.1566
 2797W        W18606   0.156   5.010   1.069  0.1331  0.0609  0.2112
 2798W        W18607  11.176   7.573  15.367  0.0487  0.1045 -0.2537
 2799W        W18608   1.151  15.497   4.892 -0.2466  0.3372 -0.0571
 2800W        W18609   8.532   5.977  14.263  0.2233  0.0706  0.2709
 2801W        W18610   8.244  13.500  11.605  0.0072  0.1814 -0.4720
 2802W        W18611  11.079   8.488  13.040  0.2277  0.0588  0.0192
 2803W        W18612  11.612  13.461  13.185  0.0895  0.1018  0.1703
 2804W        W18613   8.978   2.907   1.475  0.2164 -0.2974 -0.0887
 2805W        W18614   1.232  16.025   5.587  0.1236  0.2548  0.1621
 2806W        W18615   6.553   3.656  11.528 -0.3822  0.0341  0.0213
 2807W        W18616  18.607  17.437  12.816  0.3190  0.2651  0.1173
 2808W        W18617  12.084  16.963  10.606 -0.1920 -0.0751  0.0048
 2809W        W18618   8.093  11.816   3.145  0.1612 -0.0162 -0.0738
 2810W        W18619   9.236   9.522  12.926 -0.0955 -0.0031 -0.0176
 2811W        W18620  11.589   1.839   4.024  0.1934 -0.1102 -0.0682
 2812W        W18621   4.605  10.955  11.858 -0.0845 -0.0018 -0.1933
 2813W        W18622  16.483   4.710   1.262 -0.0278  0.0370  0.1975
 2814W        W18623  17.649  15.062   3.589  0.1169  0.1045  0.2902
 2815W        W18624  16.269   1.397   3.371 -0.1172 -0.0973 -0.1735
 2816W        W18625   2.658   9.726  14.560  0.2550  0.0242 -0.1768
 2817W        W18626   6.662   6.114   1.057 -0.1048  0.1573 -0.1871
 2818W        W18627   0.816   2.670  10.554  0.1464  0.2190 -0.1481
 2819W        W18628  10.457   5.041   3.167  0.0535 -0.3100  0.1643
 2820W        W18629   3.653   9.617  11.701  0.0932 -0.2302  0.1316
 2821W        W18630  11.756   5.881   3.680  0.1741  0.3642  0.0719
 2822W        W18631  15.188   7.783  14.176 -0.4943  0.2666  0.1067
 2823W        W18632   7.074   8.759   0.612 -0.1318 -0.0689  0.1114
 2824W        W18633  13.442  10.701   3.708  0.3486 -0.1148 -0.1685
 2825W        W18634   0.909  12.010  14.165 -0.4721 -0.2350 -0.1152
 2826W        W18635  10.672   5.612   0.016  0.1595  0.0917 -0.1993
 2827W        W18636   7.701   1.155   1.117  0.0147 -0.0682 -0.0279
 2828W        W18637   8.991  10.814  10.881  0.2222 -0.0262 -0.0145
 2829W        W18638   2.906   7.181  13.127  0.1038  0.2827  0.2223
 2830W        W18639  15.016  15.379   0.617  0.0739 -0.0213  0.3274
 2831W        W18640   5.101   6.675  15.135  0.0409 -0.3298 -0.1036
 2832W        W18641  16.655   8.118   1.998  0.4338 -0.0096  0.1176
 2833W        W18642   3.431   3.590  15.533  0.2301 -0.2413  0.2303
 2834W        W18643  11.258  16.797  11.713  0.0129 -0.2484  0.1150
 2835W        W18644  16.864  10.452   0.813  0.4629 -0.1091 -0.0415
 2836W        W18645  12.836   4.899   3.988  0.0755  0.1275  0.1580
 2837W        W18646   2.645  12.503   0.259 -0.1261 -0.2434  0.0035
 2838W        W18647   6.623   7.075   4.804  0.2576 -0.0233 -0.2701
 2839W        W18648   5.640   1.398   6.038 -0.1918 -0.0583 -0.2069
 2840W        W18649   4.708   1.837   2.412  0.1474  0.2320 -0.1184
 2841W        W18650  15.276  13.167  13.784 -0.0858 -0.2152 -0.1568
 2842W        W18651   6.496  18.398  12.187  0.4028 -0.1206 -0.2135
 2843W        W18652   8.154  10.624   0.157 -0.3974 -0.0080  0.4058
 2844W        W18653  17.224  13.548   1.952 -0.0201  0.1585  0.0773
 2845W        W18654   5.307   4.013   4.891 -0.2084 -0.5228 -0.0416
 2846W        W18655  13.293   1.120   3.245 -0.0525 -0.0147  0.0313
 2847W        W18656   2.898   8.078  15.046 -0.0603 -0.2934 -0.1780
 2848W        W18657   8.517  17.509  12.906 -0.1133  0.0210 -0.3893
 2849W        W18658   0.960  15.642   3.878 -0.1059  0.1433 -0.1569
 2850W        W18659   4.312   7.837  13.502 -0.1306 -0.2331  0.0351
 2851W        W18660  14.511   3.509   2.684  0.0103 -0.0879  0.0168
 2852W        W18661   5.112   9.299  11.712  0.1110  0.0314 -0.2000
 2853W        W18662   2.315  18.312   0.854 -0.1143  0.0950 -0.1473
 2854W        W18663   8.179  12.702   1.833 -0.1441 -0.2538 -0.2211
 2855W        W18664   2.147   3.631  12.744 -0.0406 -0.3957  0.0031
 2856W        W18665  14.448   3.865  13.402  0.3677 -0.0673 -0.1115
 2857W        W18666  14.853  15.979   2.816 -0.0315  0.2189  0.2850
 2858W        W18667  15.112   5.998  12.499  0.2610  0.2119  0.0162
 2859W        W18668  11.583   5.316   1.327 -0.0485 -0.1072  0.0812
 2860W        W18669   4.126   7.726  12.317 -0.0027  0.1256  0.2859
 2861W        W18670   8.104   1.313  10.993 -0.1065 -0.1787 -0.1132
 2862W        W18671  14.360  17.379   5.216  0.2816  0.1698  0.4165
 2863W        W18672   3.097  15.332  12.902  0.2428 -0.0152  0.4132
 2864W        W18673   3.484  17.639   3.690  0.1841 -0.1980  0.0154
 2865W        W18674   9.492  12.902   3.492 -0.0898 -0.2197 -0.0968
 2866W        W18675  12.960   8.906   2.689 -0.0795  0.2187  0.1837
 2867W        W18676   7.003  11.354  13.613 -0.2017  0.0231  0.3145
 2868W        W18677  13.895  12.127  12.616  0.0220 -0.1480  0.0919
 2869W        W18678  12.373  11.529   3.554  0.3593 -0.0772 -0.1726
 2870W        W18679   6.433   5.726   5.335 -0.0159  0.0179 -0.4058
 2871W        W18680   5.154   5.234  14.030 -0.1255 -0.1664  0.0378
 2872W        W18681   3.476   4.778  13.280 -0.1354 -0.1509  0.0223
 2873W        W18682  16.915  11.888   5.339  0.0287  0.0018  0.1198
 2874W        W18683   5.005   7.185   0.102  0.4538  0.0989 -0.1020
 2875W        W18684   2.363  17.580  12.388  0.1210 -0.0803  0.1278
 2876W        W18685  12.183   9.290   4.101 -0.0131  0.1194  0.0601
 2877W        W18686   4.586  11.229   3.238  0.3296 -0.1122  0.0324
 2878W        W18687   6.830   7.754   3.528  0.0131 -0.2197  0.1707
 2879W        W18688  17.307  18.070  13.285  0.2481 -0.6545  0.0811
 2880W        W18689  13.537  14.396  14.356 -0.1296  0.1773  0.1848
 2881W        W18690   4.463   2.892  15.614  0.1147 -0.1157  0.1007
 2882W        W18691  15.198  12.658  14.589  0.0572  0.0704  0.1128
 2883W        W18692   7.756   4.108  10.103  0.1552 -0.3072 -0.2039
 2884W        W18693  13.589   3.535   2.923 -0.1955  0.1565 -0.1680
 2885W        W18694   8.518  11.979   1.288  0.5450 -0.1345  0.0011
 2886W        W18695   7.054   0.165   0.756  0.0427 -0.2070  0.5277
 2887W        W18696   6.937   8.384   1.614  0.2229 -0.1119 -0.0962
 2888W        W18697  14.511  10.386   1.928 -0.2201  0.0915 -0.1298
 2889W        W18698   0.905   4.759   4.257 -0.1491 -0.0901  0.1150
 2890W        W18699  15.868  18.040  12.791 -0.0873  0.2901  0.2395
 2891W        W18700  18.010   5.046   5.721  0.0419 -0.1333 -0.5228
 2892W        W18701   6.509   3.494  13.216  0.0346 -0.2851  0.5527
 2893W        W18702  10.470   7.835   4.559 -0.1095  0.1064 -0.1920
 2894W        W18703   3.478  17.667   2.938 -0.0299  0.0425 -0.1480
 2895W        W18704  13.834   8.227   4.595 -0.1189 -0.1968  0.0876
 2896W        W18705  16.810  17.610   2.955  0.0236  0.0427 -0.1030
 2897W        W18706  15.868  17.439  14.581  0.1633 -0.0477 -0.0098
 2898W        W18707  17.115  16.575  13.067  0.5707 -0.0711  0.2198
 2899W        W18708  14.745  13.675  12.041 -0.0846 -0.1035 -0.0202
 2900W        W18709   8.872  15.045   5.697 -0.0614  0.2963 -0.4405
 2901W        W18710   3.238  18.490   2.088  0.2632  0.0084  0.1006
 2902W        W18711  13.584   5.840  15.604 -0.0975  0.1943  0.0299
 2903W        W18712   8.295  13.717  15.204  0.2341  0.0938  0.1426
 2904W        W18713   4.960  16.348   2.892 -0.2908 -0.2109  0.0350
 2905W        W18714  14.282   4.818  15.548 -0.1922 -0.0682  0.0348
 2906W        W18715  16.559  16.650   4.306  0.2597 -0.0572  0.2198
 2907W        W18716   5.108  13.791  14.797 -0.2868 -0.4022  0.1980
 2908W        W18717   9.809  16.705  11.338  0.2098  0.1851 -0.1673
 2909W        W18718   1.434  11.939  13.099  0.0013  0.1058  0.2068
 2910W        W18719  10.627   1.164  10.652 -0.0074 -0.1421 -0.0701
 2911W        W18720   3.854   5.144  13.055  0.2044 -0.1898  0.1513
 2912W        W18721   0.270  14.748   3.771 -0.1807 -0.0868  0.1473
 2913W        W18722   9.903  11.737   1.960  0.2904 -0.1936 -0.2570
 2914W        W18723  11.109   6.443  14.331 -0.0086  0.4183  0.2677
 2915W        W18724  16.496   1.804   2.601  0.0206 -0.1498  0.2620
 2916W        W18725  15.185   4.549   4.628 -0.1476 -0.3466  0.1793
 2917W        W18726  16.983  12.817   2.906  0.0130 -0.0456  0.0662
 2918W        W18727  18.095   7.894  13.322 -0.3188 -0.0307 -0.0013
 2919W        W18728  12.469   1.867  13.919 -0.0439  0.1337  0.1932
 2920W        W18729   5.795   8.758   3.025 -0.0433  0.1520  0.0354
 2921W        W18730   7.654  10.169   3.815  0.1369 -0.1037  0.3088
 2922W        W18731  13.852   0.106   3.918 -0.1446  0.2097  0.0509
 2923W        W18732  16.140  14.486   1.901  0.1709  0.1681 -0.1742
 2924W        W18733  17.302   4.973  10.415 -0.0401 -0.2859 -0.4317
 2925W        W18734   0.937  10.583  13.828  0.2498  0.1092 -0.3448
 2926W        W18735  11.084   3.162   0.615  0.0864  0.1961  0.2024
 2927W        W18736  15.726   9.133   3.804  0.0890  0.1275  0.0596
 2928W        W18737   1.310   2.914   2.533  0.1014 -0.2301  0.0278
 2929W        W18738   5.734   8.580  11.265 -0.1315 -0.0799  0.0581
 2930W        W18739  13.700  12.309   2.610 -0.0734 -0.2608 -0.0629
 2931W        W18740  15.571  11.657   3.093 -0.0110 -0.3615  0.2645
 2932W        W18741   6.935   6.093   2.020  0.0906 -0.0163 -0.1676
 2933W        W18742   1.288   3.264  15.487 -0.0693 -0.1182  0.2140
 2934W        W18743   5.359  14.296   4.914 -0.3457 -0.1197 -0.1488
 2935W        W18744   5.928  17.159  13.340  0.0422  0.1013  0.1663
 2936W        W18745  13.991   5.958  15.340 -0.0665 -0.0533 -0.1215
 2937W        W18746   9.100  17.687  15.424  0.1635 -0.2456  0.0673
 2938W        W18747   0.415  15.765  13.305 -0.2204 -0.1165  0.0660
 2939W        W18748   0.275  15.024   4.670 -0.0721 -0.1007 -0.0819
 2940W        W18749  14.765  17.315   1.885 -0.0782  0.1074 -0.2560
 2941W        W18750  14.204   3.812   0.344  0.1881  0.1072 -0.1223
 2942W        W18751   8.182  18.043   3.423 -0.1169 -0.2772 -0.0482
 2943W        W18752  13.809  18.210  11.758  0.0584  0.0767  0.0705
 2944W        W18753  14.181  12.819  14.289  0.0152 -0.1866 -0.1659
 2945W        W18754  17.971  18.361   4.512  0.2602 -0.4246 -0.1721
 2946W        W18755  11.866   1.539   1.718 -0.0485 -0.0641 -0.0236
 2947W        W18756   9.067  12.263   1.342 -0.0151 -0.0865  0.0711
 2948W        W18757  12.309  15.692   2.926 -0.1066 -0.0117 -0.2891
 2949W        W18758   7.452  10.797  14.346  0.0549 -0.1476  0.1900
 2950W        W18759  15.074  16.922  12.316  0.0757 -0.1143  0.1022
 2951W        W18760  15.304   3.037   0.190  0.2049  0.0724 -0.1736
 2952W        W18761  17.883  10.492  12.185  0.1611  0.0851 -0.2425
 2953W        W18762  12.065  12.976  15.336  0.0363  0.0074 -0.3530
 2954W        W18763   2.368   4.557  12.318  0.0347 -0.3799 -0.3996
 2955W        W18764   8.002   6.755  12.702  0.0337  0.0159 -0.0886
 2956W        W18765   6.875   6.922  12.704 -0.0313 -0.0786  0.1742
 2957W        W18766   0.286   9.492  13.794 -0.0612 -0.2989  0.1620
 2958W        W18767  11.274  14.658   1.470 -0.1871 -0.0368 -0.1171
 2959W        W18768   6.001   7.147   3.966  0.3180  0.3278  0.1758
 2960W        W18769   6.496   3.469  11.997 -0.2410 -0.1037  0.3248
 2961W        W18770   4.092  10.428  11.719  0.4006 -0.2612 -0.0712
 2962W        W18771  17.620   3.226   3.647  0.1344 -0.1812  0.0947
 2963W        W18772  12.218  10.235   2.749 -0.3223 -0.1527  0.1475
 2964W        W18773   6.374  10.006  12.070  0.0781  0.1401  0.2241
 2965W        W18774  13.926  18.032   1.178 -0.0524 -0.0138 -0.3223
 2966W        W18775   8.476   0.219  13.398  0.1529 -0.0262 -0.3546
 2967W        W18776   5.791   0.341   2.665 -0.0410  0.2272 -0.1373
 2968W        W18777  17.912  16.806  11.837 -0.1700  0.1558  0.1624
 2969W        W18778  14.609   6.798   6.235  0.0176  0.1972 -0.2370
 2970W        W18779  16.208   2.760  12.730 -0.0868  0.0353  0.0862
 2971W        W18780   2.526  11.688   3.369 -0.2259  0.4428 -0.1959
 2972W        W18781  15.732   8.868   5.290  0.0018  0.0869  0.2386
 2973W        W18782   1.081  15.357   2.087 -0.1996 -0.2029  0.1408
 2974W        W18783   6.307   9.145  11.947  0.1155  0.1569  0.2052
 2975W        W18784   4.508  14.409  14.198  0.0289 -0.0392 -0.0444
 2976W        W18785  16.435   2.050  11.600  0.3113 -0.3388 -0.0489
 2977W        W18786   8.380  13.436  11.086  0.2614  0.5001  0.1920
 2978W        W18787   4.507  12.552  10.570 -0.1134 -0.0112 -0.2490
 2979W        W18788  12.012   8.111   5.980  0.0151  0.3679 -0.4772
 2980W        W18789   0.791  12.761  15.279  0.1948 -0.0991 -0.0234
 2981W        W18790  13.494   6.137   0.234 -0.1991  0.0261  0.1960
 2982W        W18791   2.051  15.433   4.698 -0.0709  0.1173 -0.1510
 2983W        W18792   0.124   4.967  12.935  0.0136  0.1654  0.0697
 2984W        W18793  17.777  12.268  11.046  0.2251 -0.0021  0.0763
 2985W        W18794  15.159  16.134  13.621  0.2994  0.0596 -0.1773
 2986W        W18795   4.823  15.409  14.081 -0.1603  0.0574 -0.0715
 2987W        W18796   3.789  16.429  15.201 -0.1093 -0.0360  0.2836
 2988W        W18797  17.277   1.089  11.630 -0.0864  0.0735  0.0509
 2989W        W18798  10.982   5.122   0.329  0.0007 -0.1626  0.2888
 2990W        W18799   0.676  10.458   0.848 -0.2702 -0.0044 -0.0326
 2991W        W18800   4.029  13.023  12.416 -0.0133 -0.2643 -0.2024
 2992W        W18801  12.016   1.996  14.119  0.2648  0.1182 -0.0139
 2993W        W18802   1.588  12.143  15.305  0.1306 -0.1095  0.0560
 2994W        W18803   8.903   7.333   4.329 -0.0061  0.0007  0.0363
 2995W        W18804   9.791   5.306   4.438 -0.2435  0.1202 -0.0868
 2996W        W18805   5.011  13.609   4.511 -0.1858  0.1515 -0.3530
 2997W        W18806   6.762  13.933   0.431  0.4334  0.0831 -0.2175
 2998W        W18807   0.519  10.927   1.074  0.2429  0.3047  0.0305
 2999W        W18808  15.370   8.650  15.126 -0.0424  0.2387  0.0081
 3000W        W18809   6.480   3.199   1.937  0.0585 -0.1424 -0.1408
 3001W        W18810  13.717  13.677  12.951 -0.0952 -0.1078 -0.0214
 3002W        W18811  11.828  12.413   3.239 -0.0098 -0.0311  0.2220
 3003W        W18812  11.405  15.152   4.573  0.2588 -0.0843 -0.1835
 3004W        W18813  10.860  11.692  15.280 -0.2596  0.1479 -0.0645
 3005W        W18814   2.341  15.027  15.506 -0.0428 -0.3365 -0.2412
 3006W        W18815  10.997   9.071  10.995 -0.0637 -0.1454  0.0266
 3007W        W18816  14.339  14.947  13.582 -0.3117 -0.1829 -0.2856
 3008W        W18817   1.621  16.553   0.052 -0.0852  0.2988  0.1903
 3009W        W18818   2.807   9.875  11.569  0.0723 -0.0933 -0.1732
 3010W        W18819   9.143   3.655   2.497  0.1844 -0.1036 -0.3054
 3011W        W18820   3.475  13.861   3.130  0.1792  0.1814 -0.2844
 3012W        W18821  16.439  17.849  12.149 -0.0229 -0.0314 -0.0813
 3013W        W18822  14.371  12.297  14.858 -0.3161  0.0035 -0.1034
 3014W        W18823   0.754   5.963   0.602 -0.0833  0.1863  0.0936
 3015W        W18824  11.907  12.510  15.691  0.2235  0.0392  0.0582
 3016W        W18825  17.693   2.428  13.664 -0.0143  0.1206  0.0616
 3017W        W18826   1.131  17.863  14.477 -0.1855 -0.1575  0.0726
 3018W        W18827   9.704  13.772   4.982  0.2862 -0.3712  0.0907
 3019W        W18828   2.188   6.842   6.416  0.1803  0.0795  0.1684
 3020W        W18829  10.094  15.899  11.784 -0.2526 -0.1121 -0.2047
 3021W        W18830   9.301   2.248   3.524  0.3536  0.1103 -0.2141
 3022W        W18831   6.021   9.373   2.316  0.0862  0.0239 -0.1916
 3023W        W18832  16.398  12.383  13.629  0.0570  0.0897  0.0603
 3024W        W18833   1.817   4.872   2.475 -0.0889 -0.2204  0.2455
 3025W        W18834   9.201  13.624  12.886  0.0008 -0.0174 -0.0652
 3026W        W18835   2.686  15.565   4.031 -0.0698  0.0171 -0.0090
 3027W        W18836   5.417   4.174   0.645 -0.2680 -0.1629  0.2917
 3028W        W18837  10.181   6.776  10.619  0.4769 -0.2297  0.3489
 3029W        W18838  18.447  13.197  12.639 -0.0548  0.0026  0.4788
 3030W        W18839   4.852  12.690   0.858 -0.0642  0.2626  0.2358
 3031W        W18840  15.920  17.932  13.247  0.2266  0.0526  0.1528
 3032W        W18841   8.514   5.462  12.479  0.1528  0.0541  0.0051
 3033W        W18842   5.390   1.587   5.161  0.2579  0.1635 -0.5467
 3034W        W18843   4.243  16.208   1.802 -0.1720  0.0913  0.0430
 3035W        W18844   0.624   9.292   2.252  0.0276  0.0874  0.2822
 3036W        W18845  16.722   5.006   0.360 -0.3889 -0.0699  0.2406
 3037W        W18846   9.791  14.216   0.942  0.0059 -0.1938 -0.1139
 3038W        W18847   8.116  13.704   4.496 -0.0767 -0.1086  0.0143
 3039W        W18848  13.803  13.857  14.185  0.0382  0.1989 -0.3403
 3040W        W18849   5.474   0.904  14.664  0.0937  0.1182  0.0929
 3041W        W18850  12.336   4.031  14.002  0.2050 -0.0887 -0.3348
 3042W        W18851   7.050  13.145   3.835 -0.1860 -0.1198 -0.1289
 3043W        W18852   9.102   0.680  10.472  0.0931  0.0696  0.0354
 3044W        W18853   0.974   3.674   0.323  0.0659  0.2686  0.3074
 3045W        W18854  11.431  11.695   4.387 -0.1563  0.0514 -0.2725
 3046W        W18855   4.190   3.807   3.173  0.2174 -0.0722  0.0259
 3047W        W18856  17.869  11.285   4.121  0.0703  0.1744 -0.2070
 3048W        W18857   7.399   4.179   2.978 -0.3494 -0.0583 -0.0542
 3049W        W18858   9.106  18.591   2.624  0.2194 -0.1496 -0.0294
 3050W        W18859   7.978  13.262  10.633 -0.1318 -0.4667  0.0828
 3051W        W18860   2.845   1.668  11.899  0.2237 -0.1628 -0.1309
 3052W        W18861  14.716   8.389   2.973 -0.0745  0.3479 -0.2120
 3053W        W18862  17.510   5.957  14.273 -0.1437  0.0652 -0.2224
 3054W        W18863   3.155   9.827  12.569 -0.1166  0.1633  0.0631
 3055W        W18864  14.217  14.259  15.675  0.2335  0.3257 -0.2330
 3056W        W18865   7.009  14.025  12.819 -0.1685 -0.1391  0.2348
 3057W        W18866   5.552  16.259   5.136  0.0640 -0.3845  0.0987
 3058W        W18867   5.368   2.172   3.149 -0.2829  0.1436  0.1249
 3059W        W18868   4.632   6.227  13.806 -0.2528  0.2097 -0.0913
 3060W        W18869  13.774  16.934  12.275  0.2051  0.0952 -0.0864
 3061W        W18870   4.437  17.621  11.179 -0.0473  0.3231  0.0908
 3062W        W18871   0.087   6.867   2.115  0.2449  0.2954  0.3685
 3063W        W18872   0.945   0.703  13.014  0.0147 -0.3476 -0.1302
 3064W        W18873  17.210   7.814   2.288 -0.2017  0.3640  0.0424
 3065W        W18874   6.098  10.111   2.733 -0.0362  0.0849  0.2090
 3066W        W18875   3.043   1.724   1.808 -0.3553 -0.1742  0.0477
 3067W        W18876  12.167  14.972   5.323 -0.3046  0.1978  0.1209
 3068W        W18877   3.126  11.588   2.723  0.0939 -0.2920 -0.3414
 3069W        W18878   2.678  18.130   1.417 -0.1347 -0.2945  0.0607
 3070W        W18879  11.566   0.232  11.479 -0.0493  0.1743 -0.0022
 3071W        W18880   6.359   1.535   0.299 -0.0720  0.0993  0.1872
 3072W        W18881   3.791   1.592  14.303  0.1997 -0.0393  0.0155
 3073W        W18882   2.219   5.755  11.126  0.0981  0.1326 -0.0231
 3074W        W18883  13.025   1.286  10.471  0.3088 -0.2831 -0.0035
 3075W        W18884  16.906  10.219   1.305  0.4464  0.3133 -0.0538
 3076W        W18885   6.686   6.268  13.951  0.2332  0.4482  0.1685
 3077W        W18886  10.961   1.867  12.746  0.2185  0.1859 -0.1369
 3078W        W18887  14.752   7.656  12.656 -0.2714  0.3294  0.0206
 3079W        W18888   0.506   8.106   1.971 -0.2770 -0.1523  0.5597
 3080W        W18889   8.912  15.147   0.248  0.1075  0.2040 -0.2998
 3081W        W18890  12.428   8.193   3.043  0.1669 -0.0250 -0.2245
 3082W        W18891  14.059   3.132  14.525  0.1129  0.0607  0.3269
 3083W        W18892  13.616   9.264  11.045 -0.2924 -0.3804 -0.1148
 3084W        W18893   9.642  14.368   2.578  0.0725  0.0487 -0.0350
 3085W        W18894   9.035   3.287   2.821 -0.2232 -0.0918 -0.0313
 3086W        W18895   4.959   3.690  15.304  0.1187 -0.3247  0.0210
 3087W        W18896  15.711  15.503  11.371 -0.1540  0.0518  0.0289
 3088W        W18897  17.716   0.922   0.598 -0.1568  0.0278  0.0576
 3089W        W18898   4.327   7.251   0.410  0.0122  0.5075 -0.0253
 3090W        W18899   6.441  18.105   4.618 -0.0960  0.2868  0.1462
 3091W        W18900  10.968   7.403  14.420 -0.0763 -0.1396  0.0025
 3092W        W18901  16.924   7.783  12.506 -0.2046 -0.0102  0.2332
 3093W        W18902   1.605   6.425  14.671  0.5145 -0.0626 -0.0409
 3094W        W18903   1.793   1.822  13.097 -0.2262 -0.0025  0.0001
 3095W        W18904   8.035  17.948   1.199  0.0968 -0.1475 -0.0727
 3096W        W18905   9.563  13.851  15.397  0.0428 -0.0749  0.2493
 3097W        W18906  10.238  13.020  15.365  0.0666 -0.2929 -0.2351
 3098W        W18907  17.112   8.510   1.870  0.3586  0.3163  0.1419
 3099W        W18908  15.826   1.647   1.517 -0.1025 -0.3086 -0.1775
 3100W        W18909   8.613   5.253   1.275  0.0991  0.0897  0.1769
 3101W        W18910  17.502  15.780   4.009 -0.0732  0.1014  0.2276
 3102W        W18911   9.575   7.775   0.305 -0.0524  0.0308  0.2732
 3103W        W18912  17.451   8.010   0.512  0.1648  0.0111 -0.1077
 3104W        W18913   9.769  10.059  14.384  0.0336  0.2245  0.0051
 3105W        W18914   3.295  14.305   2.869  0.0469 -0.2198  0.0419
 3106W        W18915  11.451   4.722  12.937  0.1416  0.2590 -0.1410
 3107W        W18916   5.805   5.456  14.175  0.2004 -0.3515  0.2729
 3108W        W18917   2.521   0.416   1.800 -0.1342  0.2072  0.1287
 3109W        W18918   6.773  17.138  11.042 -0.0456  0.0866  0.2194
 3110W        W18919  15.829   7.409   1.111 -0.0486  0.0903 -0.1027
 3111W        W18920   5.851   9.022   0.132  0.3364 -0.2172 -0.2163
 3112W        W18921   7.840  10.892   1.610 -0.2243 -0.2510 -0.0577
 3113W        W18922  10.090   3.866  13.201 -0.0196  0.0252 -0.0531
 3114W        W18923  16.209  12.938  13.599  0.0006 -0.1322 -0.0913
 3115W        W18924   7.313  12.747   1.269 -0.2175 -0.0199 -0.0410
 3116W        W18925   9.120   0.225   3.067  0.3464  0.1067 -0.3631
 3117W        W18926  10.840   8.516  12.104 -0.2068 -0.1576  0.1580
 3118W        W18927   5.948   4.374  12.263 -0.0395  0.1754 -0.5597
 3119W        W18928   7.315  16.884  14.898  0.2273  0.0913  0.1628
 3120W        W18929   6.152   9.143  12.855 -0.0910 -0.1428 -0.2351
 3121W        W18930   2.288  14.417  10.446 -0.0294 -0.0513  0.1518
 3122W        W18931   5.377   0.907  11.940 -0.0630 -0.0482  0.3098
 3123W        W18932   2.329  11.738   3.893 -0.0214  0.3261 -0.1935
 3124W        W18933   3.119   5.476  12.381  0.1575 -0.2520  0.0374
 3125W        W18934   0.588  17.167  10.999  0.0579 -0.1453 -0.0348
 3126W        W18935  13.824   0.468   0.321  0.1884 -0.0886 -0.2613
 3127W        W18936   5.868   6.396  12.058  0.1460  0.0238 -0.3270
 3128W        W18937  10.431  16.734  12.261  0.2688 -0.1218 -0.1140
 3129W        W18938   7.228   4.139   9.987 -0.1093  0.0229 -0.0129
 3130W        W18939   9.424   6.344   5.198 -0.0096 -0.2408 -0.0377
 3131W        W18940  11.098   4.589  12.460  0.2617  0.2383  0.0084
 3132W        W18941  12.354  12.958  12.125 -0.0322  0.1599 -0.0416
 3133W        W18942  12.950  14.766  12.225  0.0719  0.0827 -0.1776
 3134W        W18943   2.588  16.296   4.605 -0.1114  0.1420  0.1103
 3135W        W18944  12.078  18.305  14.517  0.2180  0.0453 -0.1964
 3136W        W18945   6.859  14.589   4.989 -0.0080 -0.2752 -0.0946
 3137W        W18946  13.903  13.832  15.058 -0.1217  0.1640  0.2901
 3138W        W18947  12.677   1.075  13.133 -0.2505  0.0196  0.1833
 3139W        W18948   3.415   9.737  10.759 -0.0348 -0.0272 -0.0226
 3140W        W18949   4.876   8.739  14.286  0.0031 -0.0395  0.1972
 3141W        W18950   1.897   1.466  15.513  0.0105  0.0426 -0.1646
 3142W        W18951  11.400   6.555  12.529 -0.2708  0.0109 -0.2191
 3143W        W18952   0.895  18.304   4.590 -0.3033 -0.0879  0.0664
 3144W        W18953  13.289   6.893  14.596 -0.0767  0.1883  0.2990
 3145W        W18954   3.490  14.951   0.591 -0.1792  0.1041 -0.0370
 3146W        W18955   3.642   2.795   0.442 -0.1183 -0.1006  0.1389
 3147W        W18956   0.571  16.986   1.096  0.4510 -0.1271 -0.0851
 3148W        W18957   9.527   8.816  11.081  0.0277 -0.0214  0.0939
 3149W        W18958   0.586   4.565   0.296 -0.0263  0.1943  0.1530
 3150W        W18959  18.315   6.435  11.150  0.1689  0.0556 -0.1233
 3151W        W18960  14.561   4.854  12.568 -0.1455  0.1101 -0.0895
 3152W        W18961   0.906  10.636  12.557  0.0724 -0.0777 -0.2012
 3153W        W18962  10.084  17.857   4.779 -0.1961 -0.0110  0.1825
 3154W        W18963  14.447   5.001   2.062  0.1022  0.0582  0.1748
 3155W        W18964   5.389   9.916  14.288 -0.0032 -0.1655 -0.2526
 3156W        W18965   1.114  17.558  12.031  0.1038  0.0940  0.4372
 3157W        W18966  16.161   5.742   4.693  0.0456  0.0028  0.0252
 3158W        W18967  18.094   2.125   4.386  0.1165  0.2423  0.2806
 3159W        W18968   1.586   4.582  13.218  0.1923 -0.4010 -0.1915
 3160W        W18969  14.779  18.237   4.891 -0.1438 -0.1378  0.1788
 3161W        W18970   0.576   6.849  11.730 -0.0478  0.1250 -0.2001
 3162W        W18971   3.531   1.997  13.512 -0.1412 -0.3714 -0.0182
 3163W        W18972  15.378  11.872  12.517  0.0719 -0.1359 -0.0254
 3164W        W18973  14.443   2.610  13.115 -0.1535 -0.0472  0.2070
 3165W        W18974  16.579  14.287  15.339  0.0869 -0.1484  0.0211
 3166W        W18975   0.960  12.627  14.756 -0.0346  0.1288  0.2611
 3167W        W18976  16.085   6.553  15.275 -0.2257 -0.1548  0.1828
 3168W        W18977  11.456   2.960  12.072 -0.0186 -0.1609 -0.2013
 3169W        W18978   1.021   1.519  10.785  0.1200 -0.0428  0.3833
 3170W        W18979  17.635  15.490   4.370 -0.0829  0.0953  0.0890
 3171W        W18980  10.408  11.530  15.570  0.1256  0.1229  0.2042
 3172W        W18981   6.920   7.297  13.124  0.0971  0.0348 -0.2265
 3173W        W18982  17.909  16.566   4.019 -0.0494 -0.1571  0.0376
 3174W        W18983   5.802  16.184   1.441  0.0425  0.1223 -0.2020
 3175W        W18984   4.508   7.003   2.510 -0.2625 -0.2206 -0.1742
 3176W        W18985   3.163   4.998  12.379  0.0634  0.0171 -0.1177
 3177W        W18986  14.301  12.280  11.444 -0.0798  0.0112 -0.0880
 3178W        W18987  15.492  10.772  14.226 -0.1403 -0.3086 -0.2708
 3179W        W18988   0.464  12.146   4.121  0.2687  0.1755 -0.0203
 3180W        W18989   6.065  15.337  13.896 -0.0131 -0.2162  0.1810
 3181W        W18990   8.701  16.764  14.224  0.0706 -0.1274  0.1085
 3182W        W18991   4.097   2.574  13.603 -0.3377 -0.0827  0.1565
 3183W        W18992  17.522   3.346   2.948  0.0767  0.0972 -0.1497
 3184W        W18993   4.468   8.239   0.408  0.2700  0.0365 -0.1545
 3185W        W18994   7.719  18.047   2.455 -0.0690 -0.0159  0.0308
 3186W        W18995  14.506   5.927   1.509 -0.1607 -0.0615  0.0859
 3187W        W18996  14.829   1.505  13.801  0.1568  0.2482  0.1915
 3188W        W18997   4.682  18.128  14.062 -0.0189  0.2791  0.0232
 3189W        W18998   6.980  15.925   1.998 -0.3152 -0.3004  0.0162
 3190W        W18999  17.988  16.078   1.442 -0.1408 -0.4565 -0.3397
 3191W        W19000  13.850  10.953   3.801 -0.0417  0.0185 -0.0955
 3192W        W19001  18.212   6.302   3.823  0.1586 -0.0555  0.0158
 3193W        W19002  17.081  11.438  12.748  0.1743 -0.0915 -0.2985
 3194W        W19003   1.604  11.793   0.587 -0.1811  0.1210  0.2652
 3195W        W19004   0.332   6.429  13.943 -0.1810  0.1427  0.4269
 3196W        W19005   4.019   3.069  12.710  0.1507  0.3641 -0.3767
 3197W        W19006  16.737   5.303  12.215 -0.0000 -0.2501 -0.1327
 3198W        W19007  12.748   5.424   0.220 -0.1055  0.0709 -0.0464
 3199W        W19008  12.792   5.627  15.050  0.2412  0.0320  0.0219
 3200W        W19009  18.317  13.325  13.434 -0.0165 -0.2759 -0.0616
 3201W        W19010  17.014   6.244  15.204 -0.1065 -0.2970 -0.1577
 3202W        W19011  11.794   7.486   0.938 -0.0023 -0.2454  0.1855
 3203W        W19012   1.034  13.920  15.121 -0.2365  0.2967 -0.0197
 3204W        W19013   3.060   7.958   2.671  0.2090  0.1627  0.0937
 3205W        W19014   9.675  13.357   4.621 -0.0370 -0.1089  0.0136
 3206W        W19015   3.842   6.869  12.462  0.0631  0.4164 -0.0966
 3207W        W19016  12.615  13.928  10.581  0.0971  0.0155  0.1226
 3208W        W19017   1.691   0.540   0.146  0.1671  0.1511  0.0770
 3209W        W19018  13.987  17.843   1.636  0.0172  0.3964 -0.2446
 3210W        W19019   8.304  15.888   0.447  0.3281 -0.3056  0.1229
 3211W        W19020  14.644  14.547   3.529  0.2218  0.0543  0.2337
 3212W        W19021  18.538  13.563  12.262 -0.0600  0.3444 -0.0980
 3213W        W19022  11.711  12.930  14.522  0.1725  0.0862 -0.0222
 3214W        W19023  14.596  13.979   4.290 -0.1128  0.0698  0.1259
 3215W        W19024   7.462  17.232   0.260  0.0747 -0.0116  0.2398
 3216W        W19025   3.632  12.255   1.727 -0.0945 -0.0560 -0.3960
 3217W        W19026   3.688  13.620   0.889  0.1006 -0.0298 -0.2178
 3218W        W19027  16.801   9.276   3.189  0.2536  0.0061  0.1781
 3219W        W19028   3.599   4.170   2.589  0.3313 -0.1757  0.0538
 3220W        W19029  11.608   9.205   1.927  0.0641  0.0970 -0.1137
 3221W        W19030  10.491   4.471   1.680 -0.0912  0.1442  0.2159
 3222W        W19031   8.082  10.249  11.667  0.1052  0.1419  0.2244
 3223W        W19032   8.287  10.238   0.551 -0.1848  0.0473  0.0586
 3224W        W19033   7.275  18.287  10.523  0.0228  0.1063 -0.4121
 3225W        W19034   9.893   1.129   5.820 -0.0346 -0.0786  0.0797
 3226W        W19035  12.726   2.215   0.186 -0.0141  0.1068  0.1218
 3227W        W19036  17.984  15.544   1.832  0.0769  0.0953  0.2421
 3228W        W19037   3.038   9.061   2.341 -0.1556 -0.1190  0.0147
 3229W        W19038  12.108   4.240  12.662 -0.1099 -0.0938 -0.1817
 3230W        W19039   6.647  13.913   5.338  0.0538 -0.1395  0.3394
 3231W        W19040   9.232   1.773   3.773  0.1062 -0.0191 -0.1837
 3232W        W19041  10.661  17.691  14.413 -0.2264  0.2152  0.0791
 3233W        W19042  10.980   9.726   4.085  0.2812  0.4004 -0.1032
 3234W        W19043   1.367  11.242   1.212 -0.7349 -0.0106  0.2288
 3235W        W19044   1.173  15.287   2.683  0.4462 -0.2366  0.1401
 3236W        W19045   2.673  12.437  12.544 -0.1117  0.1551  0.2522
 3237W        W19046  17.992   4.331   3.766 -0.0247 -0.0932  0.3682
 3238W        W19047  16.450   8.295  14.369 -0.1348  0.1220  0.0109
 3239W        W19048   0.378   5.137  15.295  0.1908  0.1516 -0.2837
 3240W        W19049   9.066   0.443  15.152 -0.1027  0.0245  0.0226
 3241W        W19050   4.303   6.732  12.456 -0.0309  0.0019  0.0093
 3242W        W19051   3.154  18.337   5.880  0.2171  0.1650 -0.0329
 3243W        W19052  10.240  18.211  12.215 -0.0954 -0.0851 -0.0731
 3244W        W19053   2.012  14.533   3.460 -0.4383  0.0288 -0.0865
 3245W        W19054   4.118   7.921   1.016  0.1441 -0.0461 -0.1065
 3246W        W19055  15.572   3.134  14.425 -0.1402 -0.2110  0.0323
 3247W        W19056   8.318  10.072   1.358 -0.0934  0.2652  0.2685
 3248W        W19057   0.638  11.006   2.360  0.2271  0.1649  0.0617
 3249W        W19058   0.832   9.792   4.090 -0.0963  0.3757 -0.0973
 3250W        W19059  13.256   0.320   4.474  0.0432  0.0946 -0.0118
 3251W        W19060   5.153  13.304  10.446 -0.4309  0.0832 -0.1313
 3252W        W19061  13.624   8.289  10.982 -0.0686  0.0455 -0.3059
 3253W        W19062  10.371  10.926   2.152 -0.0312  0.1628 -0.1559
 3254W        W19063  10.030  13.941  11.194 -0.2472  0.0463 -0.1512
 3255W        W19064   0.410  11.767   3.176 -0.0525  0.2723  0.0574
 3256W        W19065   9.569  14.816   2.388  0.1184  0.1857  0.0115
 3257W        W19066   2.314   3.559  10.630 -0.2282  0.2357 -0.0822
 3258W        W19067   7.401   7.264   0.971 -0.1267 -0.1891 -0.0907
 3259W        W19068  17.702   7.129  13.714 -0.0886 -0.0170 -0.2793
 3260W        W19069  14.590   5.806   0.976  0.1544  0.1819  0.1113
 3261W        W19070  15.264   4.052   4.364  0.1792 -0.1523  0.0941
 3262W        W19071   2.060  13.788   5.978  0.1192 -0.2563  0.0618
 3263W        W19072  18.224  11.743   2.934  0.2089 -0.1924  0.2364
 3264W        W19073  11.176  17.570  14.615  0.2024  0.0492  0.1236
 3265W        W19074  10.656  12.526  14.629 -0.1243  0.1535 -0.2075
 3266W        W19075  10.108  12.573  10.957  0.1346  0.1134  0.2803
 3267W        W19076   7.788   3.821   3.160  0.2306  0.0317  0.2141
 3268W        W19077   3.865   3.782  15.341 -0.2394 -0.2133  0.0629
 3269W        W19078   0.455  11.900  15.075 -0.4191  0.1324 -0.0817
 3270W        W19079   9.757   3.761   2.499  0.1982  0.1357 -0.0307
 3271W        W19080   0.352  17.568   5.031  0.1735  0.1188  0.1521
 3272W        W19081   1.878  11.982   2.769 -0.0895  0.2487  0.1390
 3273W        W19082  15.153   2.208   3.664 -0.0556 -0.0762 -0.3356
 3274W        W19083  15.347   6.969  13.273  0.0867 -0.1295  0.1494
 3275W        W19084  17.219   8.989  15.338 -0.2756 -0.1347  0.0865
 3276W        W19085   6.784   5.676   1.223 -0.0617 -0.0079 -0.3079
 3277W        W19086  16.875   6.898  15.628 -0.1244 -0.1039 -0.3560
 3278W        W19087  16.901   0.950  11.330  0.0661 -0.1213 -0.3361
 3279W        W19088  16.672   9.080  12.174  0.3311 -0.1610 -0.0310
 3280W        W19089  12.184   1.179  13.753 -0.2100 -0.4316  0.2414
 3281W        W19090   4.730  13.074  15.274  0.0641 -0.3840  0.2191
 3282W        W19091  17.677  11.833  11.401 -0.3820 -0.2329 -0.1123
 3283W        W19092  17.609  18.417  13.054  0.2250 -0.2026 -0.2150
 3284W        W19093   6.416   7.463  13.275  0.0527 -0.0416 -0.4607
 3285W        W19094   6.136  10.924   2.181  0.3341  0.3471 -0.0235
 3286W        W19095   2.063   7.326  12.932  0.1211  0.4160  0.1539
 3287W        W19096   5.053   1.786  15.246 -0.1105  0.0162  0.0858
 3288W        W19097   3.049   8.379  15.376  0.1125 -0.1530  0.2526
 3289W        W19098  16.011   9.218  12.144 -0.1544 -0.1046  0.0102
 3290W        W19099   6.278   5.810   3.793 -0.0548  0.1260  0.1433
 3291W        W19100  18.443   3.406   1.720 -0.2323 -0.0641 -0.1102
 3292W        W19101  11.164   7.665  14.026 -0.1320  0.1109  0.0220
 3293W        W19102   6.605  17.615  15.644 -0.2535 -0.2115 -0.0586
 3294W        W19103  17.478   2.433  15.409  0.2529 -0.1280  0.0707
 3295W        W19104  14.956  16.246  13.052 -0.1130  0.0949  0.0469
 3296W        W19105   4.966   0.204   1.518  0.0868  0.0979 -0.0369
 3297W        W19106  11.957   1.428  14.912 -0.0735  0.0897  0.1225
 3298W        W19107   0.353   4.640  15.495  0.1880 -0.2820  0.1311
 3299W        W19108  15.434   4.423  11.172 -0.0793 -0.0795  0.1453
 3300W        W19109   9.907   6.093  14.594 -0.0985  0.3277  0.1218
 3301W        W19110  10.148  16.821   0.231 -0.0510  0.4348 -0.0742
 3302W        W19111   2.775   5.630   3.956  0.4010  0.1719  0.1224
 3303W        W19112   0.896   6.944  12.782 -0.0149 -0.1369 -0.2115
 3304W        W19113   0.448   1.110  13.922 -0.0645 -0.0380  0.0112
 3305W        W19114   3.087  18.225  12.284  0.5125  0.3792  0.1271
 3306W        W19115  16.342   6.640   5.092  0.3925  0.0073 -0.0808
 3307W        W19116   6.660   2.359   0.328  0.1702  0.1601  0.2279
 3308W        W19117   6.351   7.984   6.226  0.1009  0.1677  0.0033
 3309W        W19118   9.289  17.882   4.455  0.1419  0.0624 -0.0771
 3310W        W19119   6.078  10.399   0.011 -0.1008  0.1495 -0.1886
 3311W        W19120   7.608  17.214   2.878  0.1239 -0.0677 -0.3075
 3312W        W19121   6.810   9.958  13.873  0.1477 -0.0456 -0.1058
 3313W        W19122   2.095   5.118   3.767  0.2561 -0.0679  0.0360
 3314W        W19123   5.113  10.183   0.257  0.4089 -0.1987  0.4880
 3315W        W19124  16.275  12.728   5.013  0.0733  0.3350  0.0915
 3316W        W19125  10.365  12.236   0.281 -0.1572 -0.3880 -0.3135
 3317W        W19126   2.409   7.775   3.909 -0.1905  0.2181 -0.2042
 3318W        W19127  11.944   1.181   0.847 -0.4552  0.3696  0.0638
 3319W        W19128  14.807   2.109   1.451 -0.0807  0.0519 -0.0923
 3320W        W19129  10.467   8.260  15.722  0.0188 -0.2742 -0.0342
 3321W        W19130  14.486   2.104  13.443  0.1234 -0.0619  0.1517
 3322W        W19131   0.056   0.930  13.676  0.1041 -0.2046 -0.0750
 3323W        W19132   3.453   4.729  12.121 -0.4484 -0.4713  0.1105
 3324W        W19133   2.435  16.482  14.571  0.0721 -0.0271 -0.0250
 3325W        W19134  10.265   1.749   3.292 -0.2174  0.0353  0.1306
 3326W        W19135   2.423   0.274  14.941 -0.2717  0.1177 -0.1481
 3327W        W19136   9.376   0.964  14.564 -0.0909 -0.0989 -0.0979
 3328W        W19137   2.936  12.076  12.218  0.0662  0.1046  0.2765
 3329W        W19138  11.257   1.323   5.068  0.5925 -0.0689 -0.1535
 3330W        W19139  11.000   0.433  13.652  0.0966 -0.3711  0.0231
 3331W        W19140   2.467   0.940   0.201 -0.3163 -0.1092 -0.1291
 3332W        W19141  16.180   2.346   9.691 -0.4621  0.2014 -0.0955
 3333W        W19142   0.923   0.131  11.846 -0.1795  0.1442 -0.0628
 3334W        W19143   9.671   8.673   0.940  0.3104  0.1482  0.0977
 3335W        W19144   0.615   3.518   2.611  0.0348  0.0848 -0.0796
 3336W        W19145  12.567  16.364  11.684 -0.1071  0.1654  0.0504
 3337W        W19146  15.735  12.972  15.717  0.0666 -0.0920  0.3760
 3338W        W19147  18.158  15.358  11.300  0.1549 -0.2064  0.0749
 3339W        W19148  10.831  13.126   0.513 -0.1931  0.2300  0.0350
 3340W        W19149   3.009   3.628  11.631 -0.2981 -0.2157 -0.2544
 3341W        W19150   4.588   5.350  14.797  0.0617  0.1060  0.2048
 3342W        W19151   8.021  17.679  15.219  0.0451  0.4978 -0.0047
 3343W        W19152   6.952   6.324  12.065  0.4040  0.1699  0.1853
 3344W        W19153  11.834   8.051   3.897  0.2687  0.1999 -0.0444
 3345W        W19154   4.565   9.342  13.555 -0.0068 -0.3682  0.1792
 3346W        W19155   0.318  18.529  14.281 -0.1819  0.1401  0.1647
 3347W        W19156   0.971  10.681  13.138 -0.2493  0.1958 -0.0097
 3348W        W19157  15.724  13.497   3.917 -0.1439  0.0644  0.0767
 3349W        W19158   7.694   7.477  12.106 -0.0084 -0.0750  0.2320
 3350W        W19159   6.456  15.882   3.246  0.0774  0.0169 -0.1732
 3351W        W19160  12.255   9.009  13.169 -0.0998 -0.0175  0.4087
 3352W        W19161  17.685   2.020   2.598  0.0983  0.0206 -0.0815
 3353W        W19162   9.649   4.846  15.350  0.2890 -0.0173 -0.3397
 3354W        W19163   2.175   5.761  15.417 -0.2400  0.2434 -0.0794
 3355W        W19164   6.285  10.502   3.063  0.0559  0.1236 -0.3270
 3356W        W19165  10.162   1.463  12.506 -0.3754  0.3054  0.0800
 3357W        W19166   3.846   5.703   2.109  0.1393  0.1850  0.1262
 3358W        W19167  18.105  15.572  12.426 -0.2842 -0.0294  0.0890
 3359W        W19168   5.385  15.815   2.124  0.1988  0.1195  0.1718
 3360W        W19169   0.947  12.205  10.986 -0.0531  0.1411  0.1408
 3361W        W19170   9.810   9.521   3.036 -0.1524 -0.1111  0.2008
 3362W        W19171   0.565  14.820   0.099 -0.0151  0.0652  0.1817
 3363W        W19172  12.542   1.940   2.897 -0.0451  0.1354  0.2411
 3364W        W19173  14.109   9.160  11.116  0.0044  0.1614  0.2164
 3365W        W19174   2.348   9.321  14.295  0.0079  0.2031  0.0187
 3366W        W19175   8.527  13.259   2.345 -0.1244  0.0877 -0.0761
 3367W        W19176   5.575   8.137  10.917  0.2400  0.0988  0.0713
 3368W        W19177  13.925  10.181  12.645 -0.0085  0.0058 -0.0536
 3369W        W19178   6.030   4.953   4.009 -0.0824 -0.1882 -0.1582
 3370W        W19179  13.017  13.546  13.609 -0.1619 -0.1318 -0.0357
 3371W        W19180   4.972   6.211  14.262 -0.0430 -0.0505  0.1164
 3372W        W19181  15.787  14.426   0.632  0.2409 -0.0031  0.2810
 3373W        W19182   2.283   1.997   3.685 -0.2002 -0.1179 -0.1332
 3374W        W19183   9.663  14.391  13.385 -0.3022 -0.0026  0.1566
 3375W        W19184  10.838  15.429   3.666  0.0093 -0.1507 -0.0383
 3376W        W19185   5.090   1.934  10.836 -0.1309  0.0443 -0.0948
 3377W        W19186  17.769   8.330   1.462  0.0836 -0.3016  0.1682
 3378W        W19187   8.366  11.485  12.173  0.2494 -0.0454 -0.0929
 3379W        W19188  16.409  13.120   5.251  0.1311 -0.1601 -0.2232
 3380W        W19189  15.786   5.210  13.113  0.2273  0.3220 -0.1480
 3381W        W19190   5.707   1.279   5.425  0.0810 -0.0539 -0.0494
 3382W        W19191   4.597  11.492  11.656 -0.2635  0.1506  0.1294
 3383W        W19192  13.435  13.229   4.933  0.3871  0.2319  0.2049
 3384W        W19193  14.298   0.296   3.524  0.0914 -0.2449 -0.1676
 3385W        W19194   8.106  15.938   1.066  0.2372 -0.2461 -0.1034
 3386W        W19195   4.818   4.247   1.774  0.1482 -0.0130  0.0926
 3387W        W19196  17.783  12.905  15.541  0.0949  0.1669  0.0056
 3388W        W19197   7.759  14.179   5.878  0.1500 -0.0691 -0.1500
 3389W        W19198   1.004  12.093   5.367  0.1645 -0.0510 -0.2227
 3390W        W19199  17.479  18.583  13.921 -0.1315 -0.0168  0.0797
 3391W        W19200   6.466   9.752   5.227  0.1449  0.0724  0.0142
 3392W        W19201  11.478  14.995   2.427  0.1732 -0.1783  0.0730
 3393W        W19202   4.489  10.745   3.101  0.0127  0.3178  0.1314
 3394W        W19203   5.761   4.587  14.787 -0.1450 -0.1450 -0.2499
 3395W        W19204   8.507   3.493  13.109  0.0454 -0.2440 -0.1821
 3396W        W19205   9.637  14.663  14.706  0.0285 -0.0043  0.1889
 3397W        W19206  10.866   6.620   1.536 -0.1735 -0.3464 -0.0673
 3398W        W19207   2.688  14.485   1.698  0.1363  0.3268 -0.1921
 3399W        W19208   1.055   7.422   5.616 -0.1663 -0.1560 -0.2601
 3400W        W19209   7.299  12.148  13.107  0.2105 -0.2773 -0.1280
 3401W        W19210   5.440   0.145   5.746  0.1450 -0.1452  0.1373
 3402W        W19211  10.964   4.419   5.486  0.0488  0.3096 -0.0941
 3403W        W19212   9.963   2.277  13.908 -0.1495  0.3778 -0.0796
 3404W        W19213   4.946  10.681   0.468 -0.0038 -0.4874  0.1720
 3405W        W19214  14.284   7.875   1.026  0.1033  0.4057  0.0031
 3406W        W19215  16.963  13.380   3.477  0.0680 -0.1774  0.1865
 3407W        W19216  17.148   5.213  13.076  0.0841 -0.1643  0.0932
 3408W        W19217   7.930   9.256   3.149  0.2407  0.1107 -0.1352
 3409W        W19218   5.033   7.373   2.068  0.1200 -0.2856  0.2126
 3410W        W19219  15.867   5.409  15.117 -0.0412 -0.0569 -0.0152
 3411W        W19220   1.933  14.001  12.738  0.0443 -0.2319 -0.0309
 3412W        W19221   8.742  13.070   0.478  0.3978  0.0091 -0.0060
 3413W        W19222  13.936  17.527   2.017  0.0553  0.1943 -0.0835
 3414W        W19223  16.232   2.456   1.655  0.0644 -0.0128  0.2295
 3415W        W19224  12.561   8.937  14.455  0.0709  0.0955 -0.0604
 3416W        W19225  17.564  14.424   3.843  0.0562 -0.0954 -0.0158
 3417W        W19226  12.963  17.059   2.326 -0.0372 -0.1652  0.0744
 3418W        W19227  11.019  10.945  14.664  0.2028  0.0657 -0.3804
 3419W        W19228  12.586  14.590  12.685  0.1555  0.0756  0.0381
 3420W        W19229  12.382  13.398  15.225 -0.1803  0.2017 -0.0317
 3421W        W19230  16.159  12.417  12.752 -0.1029  0.1154  0.1732
 3422W        W19231   5.911   9.528   0.096 -0.0490 -0.2332 -0.2881
 3423W        W19232  11.593   7.393  11.412  0.0470 -0.0298 -0.1528
 3424W        W19233   5.997  10.394   6.235  0.2697 -0.0199 -0.0464
 3425W        W19234  11.342   7.890  12.117  0.0367  0.0324 -0.2491
 3426W        W19235   7.673   5.611   2.391 -0.1389  0.0895  0.1876
 3427W        W19236   3.328   2.794   1.651  0.1125  0.2585  0.2427
 3428W        W19237   3.045   6.688  11.841  0.0845 -0.3131 -0.1204
 3429W        W19238   3.848   8.870  12.756 -0.0899  0.1692 -0.1777
 3430W        W19239   5.818   8.020   4.224  0.2835 -0.1198  0.2183
 3431W        W19240   1.699   0.015  12.940  0.1781 -0.1247  0.4323
 3432W        W19241   6.562  13.265   3.176  0.1019 -0.0325  0.1347
 3433W        W19242  14.198  10.408   4.380  0.0257 -0.1168  0.1125
 3434W        W19243  12.696   9.850  15.543  0.1044  0.1102  0.0975
 3435W        W19244  13.150  13.173   1.017  0.0190 -0.1601 -0.3337
 3436W        W19245  14.384   7.042   2.316 -0.3048 -0.1078  0.4509
 3437W        W19246   5.025   9.407   3.237  0.1507 -0.0758  0.0565
 3438W        W19247   1.475   8.910   3.287 -0.1514 -0.1520  0.1737
 3439W        W19248   5.623  17.901   0.148 -0.1098 -0.3990 -0.0283
 3440W        W19249  17.647  10.965   2.942 -0.0851 -0.0841  0.0616
 3441W        W19250  14.904   9.986   0.608 -0.0632  0.1471 -0.0723
 3442W        W19251   3.985   3.685  12.013 -0.0139  0.1705  0.2424
 3443W        W19252   2.109  15.459  14.952  0.0089 -0.2178  0.0469
 3444W        W19253  18.048   3.618  13.098  0.2102  0.0753 -0.0153
 3445W        W19254   3.183  18.241  10.572  0.2407  0.0159 -0.0431
 3446W        W19255   8.829   2.609  13.513 -0.2962 -0.2655  0.1858
 3447W        W19256  18.416  12.265   1.722  0.2309  0.0790 -0.4825
 3448W        W19257   4.151   2.816  15.096 -0.2038 -0.1801 -0.0324
 3449W        W19258   7.320   5.211  11.692 -0.0786  0.0265 -0.3338
 3450W        W19259  12.286  15.001  12.817  0.3110 -0.0494 -0.1739
 3451W        W19260   2.148   6.251   2.790  0.1141 -0.0198  0.0030
 3452W        W19261   3.799  10.222   4.953  0.0170 -0.0144  0.1048
 3453W        W19262  14.543  12.226   2.610 -0.1622  0.2728  0.1215
 3454W        W19263   3.783   2.026   2.909  0.0772  0.2051  0.0495
 3455W        W19264   8.389   1.380  11.412  0.1289 -0.1823 -0.0013
 3456W        W19265   7.916   4.333  13.591  0.1411 -0.5139  0.1436
 3457W        W19266   1.147   5.201   6.274  0.2071  0.0713 -0.1440
 3458W        W19267   1.587   2.166   4.610 -0.1143 -0.1311  0.0833
 3459W        W19268   7.226   2.025   3.775  0.0180  0.1554 -0.2481
 3460W        W19269   3.132  14.491  11.896 -0.0830  0.0603  0.4176
 3461W        W19270   5.344   3.031   2.902 -0.0547 -0.2579  0.2420
 3462W        W19271   5.644  13.257   2.014 -0.2253  0.0904 -0.0883
 3463W        W19272   2.521   9.297   4.250 -0.1741  0.0680  0.1295
 3464W        W19273  12.957   6.670   3.638 -0.0463  0.1059  0.0249
 3465W        W19274  16.924  10.793  12.023  0.3925 -0.0513 -0.1526
 3466W        W19275   7.793   9.068  11.206  0.1504  0.2630  0.2878
 3467W        W19276   4.166   4.985   2.628 -0.1027  0.0656 -0.2100
 3468W        W19277  15.040  12.063   2.425  0.3259  0.6126 -0.0087
 3469W        W19278  11.019   6.143  10.636  0.0001  0.2075 -0.1979
 3470W        W19279  17.496  14.510  15.531 -0.0151  0.1765  0.0955
 3471W        W19280   5.407  11.315  12.142  0.0630  0.3255 -0.1716
 3472W        W19281   8.843  18.305  13.323 -0.2104 -0.4618  0.1810
 3473W        W19282   1.766   5.031  13.431 -0.0780 -0.1292 -0.0886
 3474W        W19283  15.261   5.941   5.187 -0.0490  0.3149 -0.1551
 3475W        W19284   6.975  17.056   4.014 -0.0898  0.0344  0.0455
 3476W        W19285  13.032   5.992  12.895  0.1061  0.0583 -0.1454
 3477W        W19286   9.115  16.266   1.423  0.2138 -0.1719 -0.6122
 3478W        W19287  11.442   5.000  12.347  0.0268 -0.0286  0.0488
 3479W        W19288   9.397   8.630   1.518 -0.0473 -0.2898  0.0961
 3480W        W19289  12.759   7.943  13.934  0.1357 -0.0388  0.2346
 3481W        W19290   9.313  12.248  12.751  0.2539  0.1488 -0.0031
 3482W        W19291  11.028  10.438   3.558 -0.2250  0.3618 -0.0396
 3483W        W19292   3.454   5.970   2.838  0.4276  0.2031 -0.0566
 3484W        W19293   8.362  14.915   0.196 -0.5111 -0.0708 -0.3272
 3485W        W19294   3.861  13.066  11.930 -0.4214 -0.0334  0.0760
 3486W        W19295   4.725   2.970   1.378 -0.0480  0.4091  0.2421
 3487W        W19296  16.439  14.409   0.121 -0.2351 -0.0483 -0.0912
 3488W        W19297   6.724  10.613  15.060 -0.3525  0.3831  0.2659
 3489W        W19298  10.021   3.045   1.431 -0.0268 -0.0310  0.5368
 3490W        W19299  17.749  15.697  11.576 -0.1142 -0.2683 -0.1528
 3491W        W19300   1.129   6.331   0.481 -0.1102 -0.2072  0.0327
 3492W        W19301   3.825  12.550   3.798 -0.0641 -0.1960  0.0337
 3493W        W19302   5.762   5.138  13.422 -0.0555  0.1084  0.0915
 3494W        W19303   5.779  12.365   0.182 -0.0437  0.4671  0.1981
 3495W        W19304  11.974  13.230  11.213 -0.0224  0.1119 -0.0582
 3496W        W19305   0.832   0.049   1.591 -0.5147 -0.1844  0.2080
 3497W        W19306  15.579   8.505  11.673 -0.1210 -0.1575  0.0748
 3498W        W19307   8.558   8.436   2.172 -0.2481 -0.1611  0.0289
 3499W        W19308   6.196   3.319   2.965 -0.3266  0.0904 -0.0139
 3500W        W19309   1.413  18.136   2.134 -0.2013 -0.1285  0.3569
 3501W        W19310  17.835   1.737  11.059  0.0899 -0.2052  0.0835
 3502W        W19311   2.697   5.160   2.321 -0.0328 -0.2872 -0.1472
 3503W        W19312   0.806   5.296   4.582  0.0138 -0.2561 -0.0413
 3504W        W19313   3.822   1.408   3.608  0.2564 -0.1234  0.1824
 3505W        W19314  16.220  10.924   4.918 -0.0894 -0.2062 -0.1243
 3506W        W19315  13.427   0.263   2.763  0.1296  0.1480 -0.1897
 3507W        W19316   7.154   4.973   3.689  0.1108  0.2340 -0.2356
 3508W        W19317   4.305  13.930  11.439  0.1089 -0.0020  0.1854
 3509W        W19318  12.489  15.149   1.112 -0.1959 -0.0504  0.1142
 3510W        W19319   1.278  11.849  14.480 -0.1321 -0.0443  0.2139
 3511W        W19320  17.737   2.893   4.884 -0.3897  0.1460  0.0522
 3512W        W19321   4.628  10.418   0.191  0.0661 -0.0861  0.2429
 3513W        W19322   3.171   2.038  15.451  0.2176  0.1643  0.0927
 3514W        W19323   5.401  15.890   3.292  0.3212  0.2788  0.1870
 3515W        W19324   8.598  18.007   3.090 -0.0596  0.1986 -0.2645
 3516W        W19325  14.387   3.430   1.366  0.0462  0.0081  0.3040
 3517W        W19326   1.420   4.956  14.165 -0.1926 -0.3249 -0.0578
 3518W        W19327   7.987   2.368   4.848 -0.3289  0.2929  0.1320
 3519W        W19328   9.082  11.475  13.042 -0.0811 -0.4739 -0.1977
 3520W        W19329   4.039   8.252  13.270  0.0208 -0.1624  0.0756
 3521W        W19330   0.116   8.222   4.351  0.0263 -0.3085 -0.4310
 3522W        W19331   0.715  11.775   3.914  0.2338 -0.3561 -0.1037
 3523W        W19332  15.640   9.064  15.264 -0.1638 -0.0229 -0.0610
 3524W        W19333   8.846  17.684   4.794  0.1687 -0.0171 -0.1728
 3525W        W19334  17.372   3.955  12.556 -0.2580  0.1030  0.1923
 3526W        W19335  17.120  16.398   1.007 -0.3570 -0.1192 -0.0886
 3527W        W19336  14.415   6.559  11.281 -0.2707  0.0688 -0.1456
 3528W        W19337   1.303   0.733   3.388 -0.2064  0.0999  0.0211
 3529W        W19338  18.640   2.923   3.683 -0.1201 -0.2661 -0.0566
 3530W        W19339   3.496   3.433  14.307 -0.0633 -0.0215 -0.1492
 3531W        W19340  13.501  16.608  15.286  0.0854 -0.0980  0.1801
 3532W        W19341   9.166   3.675  14.715  0.2527 -0.2673  0.0314
 3533W        W19342  11.701   6.810  12.220 -0.1279 -0.1125 -0.1287
 3534W        W19343   5.405   9.027   3.286 -0.3153 -0.0474 -0.4055
 3535W        W19344   3.987  16.270   1.277  0.0203  0.2478  0.1006
 3536W        W19345   7.746  14.149   4.636  0.0618 -0.0945  0.1335
 3537W        W19346   0.941   1.713  12.949  0.1706  0.3077 -0.1750
 3538W        W19347   7.398   8.373   0.654 -0.4731 -0.0337  0.1587
 3539W        W19348   4.066   8.103   3.881  0.2553 -0.1768  0.1209
 3540W        W19349  11.733  13.314   4.827 -0.0319 -0.0306 -0.1694
 3541W        W19350   2.134  18.435  10.924  0.3550 -0.0218 -0.2097
 3542W        W19351  18.501  10.109  15.274 -0.0490  0.0544  0.1958
 3543W        W19352  11.474  11.274  14.734  0.0138  0.2547 -0.0196
 3544W        W19353   8.668   7.665  11.242  0.3026  0.0472 -0.1462
 3545W        W19354   1.432   0.664   3.864 -0.2444 -0.1305  0.2024
 3546W        W19355   5.783   0.923  12.907 -0.0003  0.1391  0.0654
 3547W        W19356  12.989  17.459  14.430  0.0226 -0.2007  0.4157
 3548W        W19357   2.746  12.353   1.909  0.3060  0.1637 -0.0341
 3549W        W19358   1.158   3.259   1.643  0.5100  0.2283 -0.2234
 3550W        W19359   6.359   8.635  12.025 -0.3959 -0.0467  0.1727
 3551W        W19360  16.398  15.052   0.027 -0.1188 -0.2392  0.1672
 3552W        W19361  16.351  14.017   0.871 -0.0031 -0.2203 -0.2649
 3553W        W19362  18.130   2.029  12.179  0.1105  0.0340 -0.1818
 3554W        W19363   3.397  12.645  11.066  0.0432  0.0675  0.1832
 3555W        W19364   7.492  18.000  15.513  0.1767 -0.1367  0.0786
 3556W        W19365   3.279   3.147   1.300 -0.0014 -0.0900  0.1444
 3557W        W19366  17.209   8.244   4.841  0.1653  0.1760  0.0533
 3558W        W19367   9.117  13.687   1.358  0.1823  0.1627  0.1768
 3559W        W19368  11.598   2.399   2.140  0.3314  0.0427  0.2402
 3560W        W19369   5.591  15.561  12.255 -0.1041  0.4417  0.1598
 3561W        W19370   5.733  12.801  13.643  0.2041  0.0297  0.4468
 3562W        W19371   3.661   9.297   2.944 -0.4561  0.0508 -0.0779
 3563W        W19372   3.914   7.112  11.800 -0.2023 -0.0150  0.0803
 3564W        W19373  14.312  13.326   4.024 -0.0856  0.0617 -0.0431
 3565W        W19374  15.316  15.658   4.089  0.1111  0.0864  0.3120
 3566W        W19375   4.533   8.201  13.090 -0.1809 -0.2419 -0.2164
 3567W        W19376  16.958  10.726   2.148 -0.2867 -0.0648  0.1172
 3568W        W19377  13.129  18.178   3.267  0.0148  0.2194  0.2439
 3569W        W19378  18.434   4.622  14.353  0.2808 -0.0475 -0.0586
 3570W        W19379   0.891  11.443  15.300  0.0685 -0.2511 -0.0959
 3571W        W19380   2.267   2.930   4.172 -0.0838 -0.1789  0.1442
 3572W        W19381  11.677   3.953  15.319 -0.3696  0.2092  0.0158
 3573W        W19382  14.120   8.322  12.850  0.3272 -0.0600 -0.2041
 3574W        W19383  13.926   6.930  14.167  0.2074 -0.1329  0.1949
 3575W        W19384   3.154  16.484  11.154 -0.0878 -0.1871  0.2457
 3576W        W19385  13.395  17.607   2.978  0.1017 -0.0533  0.0498
 3577W        W19386   6.823   3.276   0.985 -0.0383  0.2500 -0.2414
 3578W        W19387  10.888  13.762   2.701 -0.1653  0.0953 -0.1661
 3579W        W19388  17.251   9.996  15.267 -0.2761 -0.1871 -0.0462
 3580W        W19389  14.652   8.120  12.761  0.0073  0.5292 -0.1634
 3581W        W19390   4.295   6.204   0.357 -0.0828 -0.0964  0.3297
 3582W        W19391  12.230  14.688  14.033  0.0778 -0.0966 -0.3261
 3583W        W19392   9.124  14.436   2.408 -0.1137 -0.3260 -0.0256
 3584W        W19393  10.917   7.963  15.472 -0.1897  0.1616  0.0977
 3585W        W19394   4.110  10.643   0.633 -0.1744  0.1308  0.1998
 3586W        W19395   2.783  10.246   6.473  0.1541  0.2078  0.1930
 3587W        W19396  10.179   4.168   4.980  0.1903  0.1849 -0.2039
 3588W        W19397  14.198   9.463   5.219  0.2020 -0.0925  0.0749
 3589W        W19398  12.265   4.919  14.253 -0.1498  0.1260  0.1733
 3590W        W19399   7.261   5.534   4.455  0.2428 -0.2210  0.1765
 3591W        W19400  12.224  13.981  13.855  0.0207 -0.4013 -0.0483
 3592W        W19401  16.574   2.590  15.186  0.1294  0.0457 -0.1581
 3593W        W19402   3.953   2.530   4.931 -0.2866 -0.5649  0.0825
 3594W        W19403   8.357  16.436  12.956 -0.3550 -0.2031 -0.1517
 3595W        W19404  14.123   1.482  14.420  0.0510  0.1706  0.0296
 3596W        W19405   3.063   5.060   5.522 -0.4054 -0.2595  0.0513
 3597W        W19406  15.007  13.102   4.569 -0.0566 -0.0055  0.0374
 3598W        W19407  14.756  13.105  13.082 -0.2165  0.1160  0.1737
 3599W        W19408   5.640  18.190  12.039  0.0951  0.0052 -0.0499
 3600W        W19409   7.685  17.978  14.973 -0.3298 -0.0122  0.0131
 3601W        W19410  11.214  12.130  15.356  0.0324 -0.4225  0.4124
 3602W        W19411   3.027   5.414  14.703  0.0202  0.0201 -0.1570
 3603W        W19412   2.106   3.694   1.410  0.0896 -0.4731  0.0230
 3604W        W19413   7.204   2.845  15.399 -0.1584 -0.2195 -0.1687
 3605W        W19414   8.650   8.238  15.749  0.1120  0.0396  0.2951
 3606W        W19415  10.452  16.380  14.993 -0.2537  0.2263 -0.1823
 3607W        W19416   4.032   1.712  12.706 -0.1623  0.1106  0.3041
 3608W        W19417   2.132   1.571  14.765 -0.3163  0.0061  0.1697
 3609W        W19418  14.405   6.708  13.248 -0.3829 -0.0390 -0.1675
 3610W        W19419  10.892  11.659   3.527 -0.0661 -0.0462  0.1244
 3611W        W19420  15.298   2.256   0.595 -0.0758  0.1016  0.2258
 3612W        W19421   2.482   0.791   5.928 -0.2214  0.0076 -0.0410
 3613W        W19422   9.543   4.639   5.189  0.0039 -0.0218 -0.2044
 3614W        W19423  10.856   9.889   5.415  0.0774 -0.2444 -0.0665
 3615W        W19424  15.333  13.268   0.940 -0.0183  0.1783  0.1164
 3616W        W19425  14.338  16.304   4.516  0.0359 -0.0018  0.0154
 3617W        W19426   9.605   1.158  15.734  0.2622  0.0279  0.1352
 3618W        W19427  18.120   8.037   3.262  0.0963 -0.0996  0.0112
 3619W        W19428   7.979  18.464   1.087  0.0395  0.0234  0.0290
 3620W        W19429  18.484   5.688   5.171 -0.0583  0.1557  0.0034
 3621W        W19430  12.293  15.310   0.125  0.2226  0.0461  0.2874
 3622W        W19431  10.323  12.135  13.761 -0.1248 -0.0376 -0.1357
 3623W        W19432   4.711   2.959   4.384  0.1842 -0.0117 -0.0314
 3624W        W19433   6.443  18.389   5.203  0.0309 -0.0308  0.1789
 3625W        W19434   0.514  18.600  10.328 -0.2953  0.2716 -0.3451
 3626W        W19435  16.964  14.599  13.472 -0.0398  0.0360 -0.2263
 3627W        W19436  16.822  15.750  15.460  0.2703  0.2044  0.0188
 3628W        W19437   6.477  17.285   0.246  0.0929  0.1527  0.1088
 3629W        W19438   2.967  17.386   2.686 -0.1587  0.1560  0.0296
 3630W        W19439  17.768   2.336  12.980 -0.1149  0.1281 -0.0992
 3631W        W19440   1.284   7.308   1.357  0.1365  0.3747  0.0675
 3632W        W19441  13.273   4.655   5.078  0.0404  0.3529 -0.2284
 3633W        W19442  14.338  13.404  13.001 -0.2328  0.1948 -0.0705
 3634W        W19443  14.268   9.424   1.979  0.1480  0.2966  0.1881
 3635W        W19444  16.647   5.945  15.596 -0.0551 -0.3325 -0.0603
 3636W        W19445  15.590  18.316  14.629 -0.1218 -0.0982 -0.1139
 3637W        W19446  11.181   3.791  13.115 -0.0904  0.1903  0.0922
 3638W        W19447  18.582  11.822  13.788 -0.2164  0.2969 -0.2177
 3639W        W19448   4.601   7.518  14.000 -0.0771 -0.0386 -0.1346
 3640W        W19449  11.774  14.545  15.185 -0.1926 -0.0572 -0.0958
 3641W        W19450   2.055   9.234   0.642  0.0181  0.1411 -0.0657
 3642W        W19451  14.998   7.540   2.443  0.1620  0.2283 -0.3080
 3643W        W19452  17.784  13.324   4.615 -0.2114 -0.1516 -0.2495
 3644W        W19453  13.584  15.799   1.992 -0.0597 -0.1595 -0.3010
 3645W        W19454   4.146   8.852  15.207  0.1284 -0.2358 -0.0133
 3646W        W19455  12.088   5.092   5.040  0.2020  0.1182 -0.2210
 3647W        W19456  11.985   5.832  15.370 -0.1581 -0.2789  0.2525
 3648W        W19457  14.767   9.279   4.039 -0.2143  0.0990 -0.1454
 3649W        W19458   5.691   2.455   3.372 -0.1092  0.1816  0.1457
 3650W        W19459  14.232   4.205   2.670 -0.0358  0.0095  0.0329
 3651W        W19460   3.192  11.432   0.742  0.0614 -0.1340 -0.0104
 3652W        W19461   8.775  17.871  11.343  0.0051  0.0494 -0.0402
 3653W        W19462   5.454   1.784  15.615 -0.0401 -0.2717  0.3205
 3654W        W19463   9.216  16.562   0.400 -0.0407  0.1349 -0.0597
 3655W        W19464   8.773   6.559   2.128 -0.1662 -0.3902  0.0056
 3656W        W19465  17.903   4.056  11.944 -0.3216  0.0280  0.0841
 3657W        W19466  13.716  14.637  10.943 -0.0313 -0.2212 -0.0518
 3658W        W19467   3.048   9.628  13.866  0.1517  0.1291 -0.0275
 3659W        W19468  18.057  16.084   4.944  0.0829 -0.1388  0.1783
 3660W        W19469   3.224   0.566   0.862 -0.1409 -0.0459 -0.0641
 3661W        W19470  12.230   7.380   2.249 -0.1054  0.2119  0.1888
 3662W        W19471   9.683   9.583  11.702  0.0151  0.2929  0.2735
 3663W        W19472  14.797   0.212   4.287  0.0692 -0.1989 -0.2150
 3664W        W19473  10.722   1.127  14.588  0.0661 -0.2406 -0.3644
 3665W        W19474  11.620   9.518  12.659  0.1652  0.3670  0.4405
 3666W        W19475  13.239  10.028   0.849 -0.3281 -0.2266  0.1330
 3667W        W19476   9.495   8.327   0.154  0.4012 -0.1233 -0.1366
 3668W        W19477   2.757   5.589   1.022  0.0882  0.1694  0.2774
 3669W        W19478   2.285   7.966  13.390 -0.1140 -0.1866  0.2577
 3670W        W19479   7.222  12.946  11.938 -0.1800  0.1014  0.1854
 3671W        W19480   3.757   7.106   0.277  0.1721 -0.0246  0.0347
 3672W        W19481  13.671   3.916  11.798 -0.0185  0.1367 -0.1150
 3673W        W19482   5.973   4.196  11.297 -0.1356  0.2465 -0.1728
 3674W        W19483  11.780  13.512   2.728  0.0453 -0.0652  0.1832
 3675W        W19484  18.429  15.243  10.860 -0.0948  0.1102 -0.0938
 3676W        W19485  16.104  14.631  11.751 -0.1792  0.0360  0.0240
 3677W        W19486   6.832   1.892  11.336 -0.0029  0.0201 -0.0381
 3678W        W19487   7.583  15.089   2.987 -0.1557  0.0727 -0.2307
 3679W        W19488   1.151  15.156  15.346 -0.0399 -0.1839 -0.1205
 3680W        W19489   5.114   9.364  11.232  0.0261 -0.0150 -0.2012
 3681W        W19490   4.300  14.342   2.907  0.2133  0.1192 -0.2642
 3682W        W19491  17.756   8.752   2.817 -0.0770 -0.0256  0.2045
 3683W        W19492   8.729  14.630   4.007 -0.0224 -0.1767 -0.1193
 3684W        W19493   3.956   8.763   2.168 -0.1115 -0.0175  0.0435
 3685W        W19494   4.615   4.774  11.344 -0.1796 -0.0905 -0.0061
 3686W        W19495   2.356  18.627  13.762 -0.2801 -0.1941  0.1225
 3687W        W19496  14.817  17.696  12.674 -0.1878  0.2185 -0.2025
 3688W        W19497  11.565  16.099  12.665 -0.3171  0.0672  0.0819
 3689W        W19498  16.528   4.264  13.839  0.2338  0.1300 -0.3249
 3690W        W19499   7.923  14.004   3.950  0.0696  0.1324 -0.1622
 3691W        W19500   3.707  11.012   2.926 -0.3634  0.0499  0.1982
 3692W        W19501   1.585  12.393   0.478  0.1866  0.1087 -0.1722
 3693W        W19502  17.550   1.168   2.608  0.2504  0.0951 -0.0187
 3694W        W19503   4.066   6.918   5.594  0.1750 -0.0803 -0.1498
 3695W        W19504   3.329  10.057  13.979  0.1760  0.0349  0.2699
 3696W        W19505  17.555  17.120   0.861 -0.0304 -0.2417 -0.0068
 3697W        W19506   4.370   8.983   5.004  0.2557 -0.1138  0.1664
 3698W        W19507   7.211   3.702   2.135  0.3161  0.2468  0.1072
 3699W        W19508   6.007   1.129  10.930 -0.3840  0.2389 -0.0551
 3700W        W19509   1.845  15.667   5.589 -0.3370 -0.0160  0.0564
 3701W        W19510   2.575   2.238  12.114  0.1027 -0.0789  0.0553
 3702W        W19511  14.807  16.027  12.146 -0.0314  0.1627 -0.0886
 3703W        W19512  13.631  11.589   5.219 -0.0539  0.0580 -0.0705
 3704W        W19513  11.487  14.761   1.952  0.1876  0.0554  0.0054
 3705W        W19514   5.563  14.647  15.665 -0.0243  0.2032 -0.1461
 3706W        W19515   0.963  11.228   0.359  0.3202 -0.2362 -0.0507
 3707W        W19516   2.331  17.419  15.658 -0.0482 -0.2811 -0.1246
 3708W        W19517  16.418   0.997  11.079 -0.1885  0.0864  0.1169
 3709W        W19518  14.938   5.743  15.207 -0.1043 -0.0951  0.2715
 3710W        W19519   5.806   2.463  13.010  0.1796  0.1505 -0.1696
 3711W        W19520  15.598   2.670   1.495 -0.2233 -0.2578 -0.1581
 3712W        W19521  16.640  18.630  13.143  0.2749 -0.0363  0.2573
 3713W        W19522   9.525   1.527   1.599  0.1050 -0.0628  0.1775
 3714W        W19523   2.405  10.241  11.765  0.0347  0.0535 -0.1682
 3715W        W19524  13.667  11.376  12.842 -0.3400 -0.0602 -0.0331
 3716W        W19525  13.824  11.212  12.348  0.2812 -0.1007  0.1028
 3717W        W19526  12.681   6.218  13.175 -0.0073  0.1350 -0.0849
 3718W        W19527   3.907   5.766   1.351 -0.0044 -0.1750 -0.0420
 3719W        W19528   1.820   7.477   2.704 -0.1255 -0.0877 -0.0805
 3720W        W19529  11.389   1.719  15.439 -0.1522 -0.1566  0.0260
 3721W        W19530  10.071  10.078   1.858  0.0516  0.1809 -0.0765
 3722W        W19531  16.063   6.684   2.763 -0.4081  0.0582 -0.2327
 3723W        W19532   0.734   1.908  11.056 -0.3881  0.2552  0.2108
 3724W        W19533   1.285   9.222  11.749 -0.0369 -0.0293  0.0232
 3725W        W19534   2.332  13.698  15.376 -0.0937 -0.0999 -0.0598
 3726W        W19535  17.548  17.471  10.696  0.0844  0.0852  0.0165
 3727W        W19536   9.560   7.744  14.804 -0.3705  0.0502  0.0664
 3728W        W19537   8.331   4.525   1.099 -0.0140  0.1223 -0.1202
 3729W        W19538   0.468   4.367   3.665 -0.0070  0.0994 -0.3355
 3730W        W19539  16.399   7.504  11.117  0.2960  0.1756  0.2613
 3731W        W19540  12.173  15.612   4.847  0.3255  0.0241  0.1382
 3732W        W19541   7.459  13.518   2.205 -0.1447  0.0536  0.2963
 3733W        W19542  14.694  14.217  15.724 -0.0373  0.1196  0.0547
 3734W        W19543  16.283  18.519   3.020  0.0878  0.0192  0.1907
 3735W        W19544   7.777  13.486   3.211  0.2341 -0.2684  0.0511
 3736W        W19545   0.960   8.008  14.527 -0.1471  0.2021  0.1668
 3737W        W19546  15.308   7.525  11.607  0.0470  0.4223  0.0362
 3738W        W19547  17.057   6.906   4.001 -0.0528  0.0573  0.0598
 3739W        W19548  16.271  14.463   4.749  0.4109 -0.0313 -0.0289
 3740W        W19549   1.185  12.771   0.470  0.0496 -0.1409  0.0687
 3741W        W19550  11.194  15.630   1.884  0.0864 -0.0021 -0.0004
 3742W        W19551   2.193  17.466   3.045 -0.1624  0.1090  0.0933
 3743W        W19552   1.338   5.513   3.217 -0.3574  0.1259 -0.1995
 3744W        W19553  17.425  15.119  12.041  0.0611 -0.2040 -0.1278
 3745W        W19554   8.931  18.302   1.247  0.4385 -0.0911 -0.1380
 3746W        W19555   7.362  18.198  11.718 -0.0918  0.0058 -0.0157
 3747W        W19556  14.590  11.836  11.425 -0.0857  0.2393  0.2991
 3748W        W19557  11.748  13.957  15.471  0.0666 -0.0557 -0.2862
 3749W        W19558  15.981  12.261  15.341 -0.0043 -0.2028  0.0416
 3750W        W19559   9.187  16.999  11.505 -0.0428  0.1445  0.0904
 3751W        W19560  10.588  16.520   9.227  0.3311 -0.2678 -0.1666
 3752W        W19561  18.360   5.577   3.214  0.1408  0.1177 -0.1046
 3753W        W19562  11.634  14.177  12.691 -0.0490 -0.2783  0.0015
 3754W        W19563  17.766  18.020   0.590  0.2533  0.4934 -0.2142
 3755W        W19564  12.830  15.822  11.576  0.2185 -0.0288  0.1264
 3756W        W19565   6.745   2.806   0.558 -0.0957  0.3183 -0.0176
 3757W        W19566  17.344   7.052   5.828  0.1388 -0.1517  0.2068
 3758W        W19567   6.752  15.954  15.420 -0.1441 -0.0500  0.0763
 3759W        W19568  18.159   0.957  11.059  0.0421  0.1361 -0.1082
 3760W        W19569  13.377  15.109  13.150 -0.0045  0.1437 -0.1016
 3761W        W19570  11.462   8.358  14.687 -0.1725  0.1081  0.1598
 3762W        W19571  17.923  18.516   2.076 -0.0336  0.0179 -0.3532
 3763W        W19572   4.657   4.279  13.945  0.0805  0.1943 -0.1702
 3764W        W19573   6.641   3.295   4.432 -0.0442  0.0359 -0.3914
 3765W        W19574   2.409   6.644   1.560 -0.1049 -0.0356 -0.3848
 3766W        W19575  10.623  10.796  11.158  0.1899  0.1090 -0.0141
 3767W        W19576   8.622  16.555  11.578 -0.3460 -0.1034 -0.0872
 3768W        W19577  12.094   6.347   0.347 -0.4221  0.0874  0.0596
 3769W        W19578   0.599  13.621   5.210  0.0247  0.0298 -0.1925
 3770W        W19579  11.666   2.633  11.141  0.3973  0.1541 -0.0816
 3771W        W19580  12.365   3.705   6.290  0.0585 -0.1984 -0.0715
 3772W        W19581   9.956   3.711   1.185  0.1308 -0.2834  0.2322
 3773W        W19582   5.938   1.181   0.380  0.0224 -0.0963  0.1507
 3774W        W19583  10.396   0.653  11.538 -0.3709 -0.1677 -0.0795
 3775W        W19584  15.038   7.278  12.963 -0.0605 -0.1020  0.0963
 3776W        W19585  16.559  12.994  14.559 -0.0867  0.2262  0.1906
 3777W        W19586   7.157   6.949   0.433  0.2560 -0.4412 -0.1697
 3778W        W19587  10.748  15.522  10.915 -0.1215 -0.0229  0.0537
 3779W        W19588  10.843   4.810   4.707 -0.0260  0.1552 -0.0097
 3780W        W19589  10.509  14.011   2.365 -0.0557 -0.0164 -0.0198
 3781W        W19590  16.742  16.696   0.145 -0.1723 -0.1617 -0.0299
 3782W        W19591  15.652   1.072  13.110  0.2193  0.2456 -0.5317
 3783W        W19592  17.057  18.537   3.992 -0.2489 -0.1547  0.0089
 3784W        W19593   1.089  18.563   1.194  0.2120  0.4729 -0.0875
 3785W        W19594  13.147  17.566   9.361  0.0910  0.1365 -0.0967
 3786W        W19595   2.455   1.505  10.645 -0.1029 -0.2444  0.1706
 3787W        W19596  12.619   7.438   5.511 -0.3726  0.2889 -0.1463
 3788W        W19597  11.165   9.367  12.947  0.0309 -0.2010  0.1678
 3789W        W19598   1.102  15.746  14.019  0.1373  0.0853  0.0371
 3790W        W19599  10.524   6.546   2.430 -0.0103 -0.2904  0.0386
 3791W        W19600  17.170  10.959   5.788  0.2006 -0.2369 -0.0419
 3792W        W19601   6.291  13.756   3.122  0.3694 -0.3685 -0.1179
 3793W        W19602   4.924  17.771  11.181  0.0896  0.1146 -0.3486
 3794W        W19603  13.000  12.027  11.135  0.1943  0.2702  0.2083
 3795W        W19604  10.250   0.958  13.284  0.2657 -0.0914  0.1922
 3796W        W19605   2.948  17.032  13.918  0.0567  0.0634  0.1156
 3797W        W19606   6.604   1.237  15.205  0.0906  0.0169  0.0942
 3798W        W19607   8.462   7.211   4.856  0.0930  0.1326 -0.2901
 3799W        W19608  14.153   9.106   0.043 -0.1079  0.2334 -0.0549
 3800W        W19609  10.951  14.940   3.715  0.1851 -0.0995 -0.2304
 3801W        W19610  14.062  17.898  12.124  0.1432 -0.3038  0.0166
 3802W        W19611   7.045   9.475  14.557  0.3063  0.3961  0.1528
 3803W        W19612   8.734  18.404   1.708  0.0547  0.0810  0.2827
 3804W        W19613  16.924  11.342   2.832 -0.1094  0.3067  0.0473
 3805W        W19614   1.058   9.378   0.936  0.1093 -0.0836  0.2880
 3806W        W19615  12.395   1.543  14.687 -0.0579 -0.1895  0.2177
 3807W        W19616  12.558  14.692   5.642 -0.0730  0.1526  0.2545
 3808W        W19617   4.859   1.487   4.908 -0.1767  0.0320 -0.0937
 3809W        W19618   2.529  18.370   3.751 -0.2687 -0.4122  0.1870
 3810W        W19619   4.443  13.120   3.574 -0.3669 -0.2231  0.0259
 3811W        W19620   7.128   2.286  14.299  0.2736 -0.0338 -0.0198
 3812W        W19621  12.067  13.525   2.310 -0.0211 -0.5562  0.2138
 3813W        W19622  16.990   3.133   4.175 -0.2610  0.0055 -0.2834
 3814W        W19623   4.127  14.895   0.167 -0.0179  0.1823  0.0698
 3815W        W19624  16.403   5.250   0.628 -0.3343  0.0110  0.2487
 3816W        W19625  13.904   7.380   9.742 -0.2492 -0.1004  0.1110
 3817W        W19626   1.600   8.303   4.786  0.0038 -0.0635 -0.0191
 3818W        W19627   4.830   0.576  11.704  0.0635 -0.0964 -0.0503
 3819W        W19628  16.601   6.818   0.793 -0.2373  0.1734  0.5387
 3820W        W19629  18.219   4.284   2.789  0.0468  0.2401  0.2504
 3821W        W19630   6.361  15.668  15.259 -0.0859  0.1010 -0.1180
 3822W        W19631  15.568   7.467   2.727 -0.1116 -0.0705 -0.0814
 3823W        W19632  16.154   1.253  10.726  0.0211 -0.0644  0.1225
 3824W        W19633   4.360  10.898   1.521 -0.0527  0.1857 -0.2311
 3825W        W19634  11.726   4.398   4.621 -0.0613 -0.2450 -0.0649
 3826W        W19635   4.575  16.470  12.800 -0.2607  0.0228  0.3229
 3827W        W19636  14.001  15.480   0.973 -0.0258 -0.4196 -0.0302
 3828W        W19637   9.071  15.786   2.667 -0.3050  0.1309 -0.1613
 3829W        W19638  10.452  11.043  13.674  0.0722  0.1706  0.0003
 3830W        W19639   5.378   7.023   0.342  0.0808 -0.2777 -0.1161
 3831W        W19640   5.763  15.065   0.933 -0.0174 -0.1135  0.2150
 3832W        W19641  11.975  10.646   4.013 -0.0426 -0.0222  0.0203
 3833W        W19642  14.712  10.398  15.309  0.0349 -0.3516 -0.1497
 3834W        W19643  17.595  14.164  10.966  0.1933  0.2602 -0.0370
 3835W        W19644   1.068  11.737  10.787 -0.1597 -0.1832 -0.2286
 3836W        W19645  15.360   0.545   4.852  0.0486  0.0247  0.2100
 3837W        W19646   6.118  13.922  14.432 -0.1474  0.2846  0.2472
 3838W        W19647  15.338   2.783   1.922  0.1517 -0.0564 -0.3632
 3839W        W19648  15.213   7.473  14.569 -0.0009 -0.3018  0.1449
 3840W        W19649   4.799  16.255  11.180 -0.0935 -0.0572  0.2898
 3841W        W19650   1.755  12.365  14.341 -0.2708 -0.1655 -0.0603
 3842W        W19651  11.556   5.808  11.579 -0.0185 -0.2243  0.1802
 3843W        W19652  11.238   1.414  11.471 -0.0214 -0.2172  0.0273
 3844W        W19653   1.293  17.240  10.582  0.3840 -0.1630  0.0388
 3845W        W19654   1.662  12.834   4.685  0.1118  0.0090 -0.1339
 3846W        W19655   0.241  14.472  14.551  0.0997 -0.1000 -0.0850
 3847W        W19656  17.308   4.235  14.376 -0.2433  0.5737  0.0526
 3848W        W19657  14.073  10.380  13.233 -0.3456  0.4478  0.0412
 3849W        W19658   8.182   9.023  13.924  0.2239 -0.0343  0.1933
 3850W        W19659   6.208   7.209  11.560  0.3128  0.0614  0.2855
 3851W        W19660   2.414   2.073   2.264  0.1886  0.0035  0.0656
 3852W        W19661   9.978   8.674  10.124  0.0039  0.1471 -0.1534
 3853W        W19662  15.431  14.529   0.251  0.0020 -0.0895 -0.0579
 3854W        W19663  18.091  13.211  12.988 -0.1410 -0.0689  0.1250
 3855W        W19664   2.910  15.510   2.890  0.0312  0.1536  0.0544
 3856W        W19665   9.052   5.824  13.536  0.1536  0.0281 -0.2595
 3857W        W19666   2.550   5.695  11.713  0.0444  0.2362  0.1101
 3858W        W19667   8.260  16.782   2.664 -0.2772  0.2756  0.2345
 3859W        W19668   8.724  16.668   2.487 -0.0751  0.1240  0.0663
 3860W        W19669   7.930  17.497   4.251 -0.1185  0.0121  0.2317
 3861W        W19670  17.197  10.898  12.821 -0.0621 -0.0487 -0.2217
 3862W        W19671  11.243  16.310   2.334  0.0910 -0.1407  0.0102
 3863W        W19672  12.636   9.997   2.632  0.1711  0.1423 -0.4616
 3864W        W19673   6.237  13.301   1.502  0.0058  0.1204  0.1813
 3865W        W19674  17.326  16.366   3.212 -0.0364  0.0636 -0.1063
 3866W        W19675   4.088  11.061   3.296 -0.1617  0.1553  0.0590
 3867W        W19676   1.642   3.563  15.212 -0.2509  0.2306  0.1490
 3868W        W19677   5.330  12.062   2.694  0.0189  0.1178 -0.3663
 3869W        W19678   7.836   4.569   0.159  0.1593 -0.2104 -0.2476
 3870W        W19679   5.730  10.693  14.125  0.1721  0.2513  0.0577
 3871W        W19680  11.687  17.747   0.088  0.1964  0.4074  0.0873
 3872W        W19681  11.625  14.872  14.693 -0.0156  0.0422  0.0545
 3873W        W19682   2.288  14.201  13.099  0.1700  0.1402  0.3182
 3874W        W19683   8.927   4.073  13.734  0.2026  0.1463 -0.1094
 3875W        W19684  11.841   7.676   2.490 -0.0064  0.3210 -0.1463
 3876W        W19685   3.809  16.261  12.133 -0.0555 -0.0364 -0.2217
 3877W        W19686  11.387   5.480   1.810 -0.0331 -0.0817  0.0351
 3878W        W19687   5.808  14.022  15.605 -0.0542 -0.1946  0.2408
 3879W        W19688  13.229  12.931   1.867 -0.2472 -0.3452  0.3111
 3880W        W19689  17.023  11.723  13.467  0.2033  0.0539 -0.0915
 3881W        W19690  16.798   7.499  13.535  0.1402  0.0015 -0.0432
 3882W        W19691  17.751  13.090   2.823  0.2209  0.3317 -0.2905
 3883W        W19692   0.423   4.073  12.662  0.1141 -0.0719  0.1796
 3884W        W19693   6.988   5.754  14.890  0.0232  0.1362 -0.2611
 3885W        W19694   1.950  16.702   4.066 -0.0573  0.0887 -0.1495
 3886W        W19695   4.059   7.363   5.959 -0.0782  0.2822 -0.0444
 3887W        W19696  13.311   9.702   3.087  0.3080  0.1394  0.2970
 3888W        W19697  14.409  13.318  13.449  0.2282 -0.2284  0.1165
 3889W        W19698   9.018   0.848  14.909  0.0752  0.3481  0.3271
 3890W        W19699   4.878   4.931  13.158 -0.1678 -0.1381  0.0193
 3891W        W19700  11.474   9.903   5.426  0.1693  0.0126  0.2222
 3892W        W19701   1.041   4.480   2.037 -0.0526 -0.2467  0.0057
 3893W        W19702   8.753   7.117   0.492  0.0284 -0.0849 -0.0060
 3894W        W19703   4.997   1.931   0.004  0.1129 -0.1822  0.0001
 3895W        W19704   4.081  12.687  11.651 -0.1456 -0.1082  0.1798
 3896W        W19705   3.150   9.449   3.406 -0.1323 -0.4169 -0.0867
 3897W        W19706   3.070   6.781  14.920 -0.2622  0.0079 -0.3278
 3898W        W19707  11.009   2.622  12.823  0.2236 -0.1458  0.0166
 3899W        W19708  14.265   6.233   1.154 -0.0067 -0.1802 -0.3630
 3900W        W19709  15.253   4.809  14.193 -0.0382 -0.0845 -0.1180
 3901W        W19710  14.707  10.005   2.756  0.1172  0.2553  0.2476
 3902W        W19711  10.395  12.347  12.320  0.1462 -0.0967 -0.0443
 3903W        W19712   8.930  11.658   1.202  0.0845 -0.0414 -0.0070
 3904W        W19713   8.111   8.025   4.035 -0.1386  0.3093 -0.0279
 3905W        W19714   1.098   2.190   4.608  0.0309 -0.2258 -0.1627
 3906W        W19715  14.848  14.953  14.295 -0.2794 -0.0845  0.0289
 3907W        W19716   1.071  13.990  13.776  0.0192  0.1738 -0.3012
 3908W        W19717  15.274   8.338  15.632  0.1403  0.0483 -0.0937
 3909W        W19718  18.411   0.295   0.744 -0.0609  0.0622  0.0597
 3910W        W19719  16.419   5.646  13.692 -0.0403  0.1189 -0.0240
 3911W        W19720  15.372   3.105  15.406  0.1515  0.0890 -0.4393
 3912W        W19721  11.507   2.684  13.749  0.0955  0.1524 -0.1548
 3913W        W19722  11.248  14.478  13.279  0.1835 -0.1525 -0.5209
 3914W        W19723   8.486   5.186   2.285 -0.3128  0.0636 -0.0111
 3915W        W19724  15.154   7.076  11.386  0.2807 -0.0531  0.4066
 3916W        W19725  18.457  14.869  11.211  0.0329 -0.0638 -0.1443
 3917W        W19726   0.777   7.308   1.607 -0.3855 -0.2381 -0.2508
 3918W        W19727   8.855  10.225   3.225  0.0126 -0.2113  0.2796
 3919W        W19728   1.156   8.869  15.515 -0.0215 -0.1425  0.1576
 3920W        W19729  14.270  16.862  11.393 -0.1708  0.1412 -0.1827
 3921W        W19730  17.171  14.349   1.915 -0.1273 -0.2752  0.4386
 3922W        W19731   9.759  13.083  12.357 -0.3662 -0.1498  0.2896
 3923W        W19732   3.265   5.537   5.969 -0.0892 -0.0542  0.1100
 3924W        W19733  18.350   4.690   1.657 -0.1017 -0.0573 -0.0559
 3925W        W19734  13.336   6.536   4.293 -0.0794 -0.1954  0.0043
 3926W        W19735   4.795   4.853  14.099 -0.0202 -0.0490 -0.1445
 3927W        W19736  15.968  13.018  11.722  0.0026 -0.0969 -0.0269
 3928W        W19737   1.252  11.644   2.682  0.1205  0.1633  0.0877
 3929W        W19738   3.134   0.742   2.414 -0.0552 -0.0709  0.0191
 3930W        W19739   9.625   7.817   3.522 -0.0493  0.0045 -0.0673
 3931W        W19740  11.926  16.817   3.248 -0.1863 -0.0659 -0.2354
 3932W        W19741  14.756   4.530   1.968 -0.4424  0.1651 -0.0994
 3933W        W19742  13.710   9.541   0.962  0.2455  0.1165  0.3240
 3934W        W19743   3.656   7.921  12.432 -0.1792 -0.1295  0.1813
 3935W        W19744   7.245  10.126   4.165  0.1627  0.2940  0.0374
 3936W        W19745   9.322   4.081  15.150 -0.0280  0.1568 -0.1980
 3937W        W19746  18.355   7.881   3.705 -0.3895  0.1011 -0.0136
 3938W        W19747   0.113   5.945   1.464 -0.1110  0.0602 -0.0542
 3939W        W19748  11.377   1.426  13.495 -0.0747 -0.2664  0.1690
 3940W        W19749  10.055  10.708   3.897 -0.0924 -0.1607  0.1332
 3941W        W19750  13.244   0.725  12.692  0.2158  0.0313  0.1679
 3942W        W19751  17.433  10.179  14.237 -0.0106 -0.3096 -0.0254
 3943W        W19752   8.557   6.665  11.975  0.4547  0.2169 -0.0687
 3944W        W19753  17.606   9.637  11.941 -0.0231  0.1491  0.2124
 3945W        W19754  16.788  17.576  10.999 -0.2339  0.0459 -0.0960
 3946W        W19755   0.359   1.298   0.989 -0.0853 -0.0777 -0.0916
 3947W        W19756  10.303   1.373   2.009  0.0959  0.4186 -0.0315
 3948W        W19757   5.114  11.274  13.099 -0.0752 -0.2873 -0.1073
 3949W        W19758   5.755   2.627   0.310  0.1235 -0.0463 -0.1844
 3950W        W19759   2.658  13.389  11.320 -0.1991 -0.2051 -0.0108
 3951W        W19760   6.168  14.413   1.786  0.3880 -0.0697  0.0830
 3952W        W19761   4.838   8.060   3.041  0.3600  0.1483 -0.3399
 3953W        W19762  17.624   5.339   2.021  0.0086  0.0550 -0.0740
 3954W        W19763   3.897  14.657   0.525 -0.0268  0.1237  0.0029
 3955W        W19764  16.829   3.630   2.158 -0.0109  0.2560 -0.0346
 3956W        W19765  10.796   7.789   2.734 -0.0568  0.3194  0.2588
 3957W        W19766  13.437   9.490   1.399  0.1523 -0.0634 -0.0055
 3958W        W19767  14.149   6.481   4.372 -0.1768  0.0197 -0.1794
 3959W        W19768  18.457   9.867  11.823  0.2266 -0.0132 -0.1322
 3960W        W19769   8.942   3.362  11.185 -0.3103 -0.1592 -0.1012
 3961W        W19770   9.256  15.743  12.208  0.0959 -0.1497 -0.2563
 3962W        W19771  16.212  10.003  10.676 -0.0925 -0.4233  0.0370
 3963W        W19772  14.219  18.265   1.532 -0.1756  0.2777 -0.1881
 3964W        W19773   7.981   5.957   0.518 -0.3491  0.0292  0.0561
 3965W        W19774  13.376   5.095  12.927 -0.2174 -0.0879  0.4552
 3966W        W19775  18.349  11.801   0.029 -0.0220 -0.1006 -0.1601
 3967W        W19776  17.022   7.175  10.226  0.1270  0.1644  0.0737
 3968W        W19777  14.222  13.391  15.269  0.0840  0.0382  0.3441
 3969W        W19778  13.292  14.822  11.823  0.1147  0.0178 -0.1326
 3970W        W19779   3.974   3.375   4.138  0.0169 -0.1603  0.1491
 3971W        W19780   1.978  15.521  10.570  0.1836 -0.0230  0.1604
 3972W        W19781   3.663   7.676   1.053  0.2807  0.2930  0.2373
 3973W        W19782  14.346  13.187  13.914  0.0174  0.0518  0.0942
 3974W        W19783   6.905   3.592  15.729  0.1849  0.0585  0.0257
 3975W        W19784   1.529  13.125  12.807 -0.3323 -0.1008 -0.1957
 3976W        W19785   4.599   6.064   3.739  0.1134  0.2253  0.2314
 3977W        W19786   7.192   3.677  14.784  0.1582 -0.0894 -0.4301
 3978W        W19787   7.808   1.911   0.376  0.0405 -0.3085  0.1775
 3979W        W19788  13.065  12.973   2.426 -0.0352 -0.1943  0.1801
 3980W        W19789   0.577  17.781  11.022  0.2764  0.1336 -0.1949
 3981W        W19790   1.781  12.989   3.029  0.0915  0.1805 -0.1393
 3982W        W19791   3.368  17.737  12.907 -0.0541 -0.0634 -0.1464
 3983W        W19792   1.646  12.183  12.659  0.1011 -0.0770  0.1725
 3984W        W19793  17.385   8.321  11.161  0.0759  0.3755  0.4953
 3985W        W19794   7.005  18.551  11.988 -0.0695 -0.1549 -0.0987
 3986W        W19795   1.317   0.329   0.856  0.0357  0.2155  0.0177
 3987W        W19796   4.019  14.646  14.922  0.1522  0.0611 -0.0436
 3988W        W19797  13.550   9.696  10.714 -0.3258  0.1156 -0.1770
 3989W        W19798   2.385  12.007  14.007  0.0431  0.1877  0.1875
 3990W        W19799   7.278   0.078   3.745 -0.0596 -0.2866  0.3428
 3991W        W19800   9.981   3.101  14.245 -0.0097  0.1827  0.0524
 3992W        W19801  16.508   7.317   0.720  0.0708 -0.2516 -0.0050
 3993W        W19802  13.603  16.258   2.208  0.2212  0.0016 -0.0424
 3994W        W19803   4.222  18.086  11.789 -0.2857 -0.1169 -0.1210
 3995W        W19804   0.713  16.013  15.649  0.2063 -0.1155 -0.3488
 3996W        W19805  12.243   2.161   0.120 -0.0725 -0.0990 -0.1467
 3997W        W19806   4.690  13.188   4.558 -0.2768 -0.0668 -0.1140
 3998W        W19807   1.792  10.055   2.076  0.0131  0.2833 -0.0426
 3999W        W19808   5.297  16.641   4.565  0.0623  0.2761  0.2115
 4000W        W19809  12.652   4.859   4.532  0.1991  0.0224  0.1963
 4001W        W19810  13.083   5.851  10.906  0.2803  0.4704  0.0072
 4002W        W19811   5.725   5.074   3.500 -0.1161 -0.0974 -0.0215
 4003W        W19812   3.375   9.553   0.100 -0.1041 -0.1348 -0.1536
 4004W        W19813  17.679   6.526  14.324  0.0755  0.0168  0.1117
 4005W        W19814  18.066   8.340   1.047  0.1235  0.0760 -0.3209
 4006W        W19815   8.448   7.377  14.131  0.1514 -0.1163  0.1626
 4007W        W19816   0.605   0.035   1.004  0.0239 -0.1077 -0.2315
 4008W        W19817  14.639  18.409  11.409  0.0091  0.1570 -0.1477
 4009W        W19818   1.015   6.713   4.519  0.5057 -0.0672  0.1318
 4010W        W19819   3.622  14.734  14.554 -0.0890 -0.0197  0.0200
 4011W        W19820   3.042   6.546   2.247 -0.0750  0.0117  0.0245
 4012W        W19821   3.491   0.249   2.502  0.0435 -0.2081 -0.1106
 4013W        W19822   7.669   4.927  15.198  0.0547 -0.1581 -0.0209
 4014W        W19823   0.520  14.037  13.162  0.0543  0.3397  0.0429
 4015W        W19824   5.489  16.354  14.731  0.0596  0.1984  0.2022
 4016W        W19825   5.964  12.539  13.985  0.4115  0.3196  0.1137
 4017W        W19826  18.266  13.500  11.856 -0.0498 -0.0154  0.2643
 4018W        W19827  17.075  18.294   3.511 -0.1849  0.0014 -0.1048
 4019W        W19828  16.172   6.452   6.214 -0.2199  0.2419 -0.3143
 4020W        W19829   6.703  14.842   0.628 -0.1890  0.0766  0.2860
 4021W        W19830  17.916   4.232   1.143  0.0372  0.1514 -0.0852
 4022W        W19831  11.728   8.282  15.191  0.1218  0.0139 -0.0608
 4023W        W19832  16.767   5.056  15.092  0.0212 -0.0042  0.2039
 4024W        W19833   4.051  13.342   3.243  0.4363 -0.1605 -0.3187
 4025W        W19834  18.282   1.775   3.790 -0.1451 -0.0453 -0.2335
 4026W        W19835  10.686   1.585   3.546 -0.2671 -0.4754  0.0210
 4027W        W19836   0.740   3.298   1.276  0.0432 -0.1056  0.1932
 4028W        W19837   5.308   5.728  14.352 -0.0237  0.3473 -0.0061
 4029W        W19838   2.131   3.829  13.913  0.2488  0.3116 -0.1630
 4030W        W19839  11.944  13.124  11.855 -0.1943 -0.1670 -0.0262
 4031W        W19840  15.919  10.338   2.156  0.0555  0.1217 -0.0416
 4032W        W19841   8.435   6.832   4.470  0.2372 -0.0604  0.3936
 4033W        W19842   9.476  17.418   3.146  0.1950 -0.2547  0.0589
 4034W        W19843   5.611   3.510  12.839 -0.1105 -0.1026 -0.0899
 4035W        W19844   1.151   7.737   1.694 -0.0441  0.3461 -0.1498
 4036W        W19845   0.935  10.101   3.052  0.1188 -0.0959 -0.1861
 4037W        W19846   2.574  16.968   5.212 -0.3344 -0.0040  0.1787
 4038W        W19847  10.304   3.536  14.238 -0.0448  0.1820  0.2287
 4039W        W19848  14.478   5.361   0.183 -0.1271 -0.0848 -0.0187
 4040W        W19849   4.096   4.076  15.715  0.2192 -0.0805 -0.1585
 4041W        W19850  13.039   3.725   5.559  0.0288  0.0652  0.4043
 4042W        W19851  12.286  10.051   1.121  0.2108 -0.0393  0.2781
 4043W        W19852  17.955   3.746   2.948  0.2750 -0.1810 -0.2923
 4044W        W19853   7.254  15.950   5.155  0.2287  0.0380 -0.0001
 4045W        W19854  17.301  11.054  12.318  0.0905  0.1178  0.2911
 4046W        W19855  12.110   1.251  12.527  0.3376  0.1042  0.0484
 4047W        W19856  14.969  13.425  13.499 -0.1612 -0.0675  0.0546
 4048W        W19857  11.173  12.283   2.142 -0.0260  0.1089 -0.1156
 4049W        W19858  16.024   3.897   0.644  0.1793  0.1064  0.1291
 4050W        W19859  12.280  16.711   2.905 -0.0166  0.0977 -0.1101
 4051W        W19860   8.409  16.860   0.774  0.1734 -0.0810  0.0812
 4052W        W19861  12.535  11.437  15.450 -0.1649  0.0391  0.4225
 4053W        W19862   2.311  10.257  15.386  0.0171  0.1264 -0.1342
 4054W        W19863   8.855   4.678  12.455  0.2073  0.0229 -0.1737
 4055W        W19864   8.526  13.495  14.718 -0.0802 -0.0512 -0.0055
 4056W        W19865  10.543  15.429  12.535 -0.1437 -0.1462 -0.3090
 4057W        W19866  14.409  14.897   0.361 -0.1180 -0.0669  0.3697
 4058W        W19867  14.832   1.834  15.211 -0.0472  0.1968  0.3717
 4059W        W19868  12.604  14.367  13.988 -0.1642 -0.2174  0.1633
 4060W        W19869   2.173  17.315  11.945 -0.1272  0.1001  0.0432
 4061W        W19870   8.330  15.144  14.689  0.2132  0.0087  0.0411
 4062W        W19871  12.879   8.343  12.699  0.1637  0.2109 -0.1635
 4063W        W19872   2.664   0.887  12.069  0.1560 -0.1276 -0.1665
 4064W        W19873   7.635  10.904   4.518 -0.2906  0.1136  0.1554
 4065W        W19874   5.230  14.306   1.587  0.2579 -0.0261 -0.2801
 4066W        W19875   4.747   1.391   5.372 -0.0146 -0.1294 -0.2644
 4067W        W19876  15.844   4.755  12.296 -0.2718  0.1240  0.2025
 4068W        W19877   3.766  15.278   1.393  0.2519 -0.1227 -0.0770
 4069W        W19878   7.522   2.528  14.169 -0.0064 -0.0764  0.0240
 4070W        W19879   2.894   9.484   3.978 -0.1011  0.1896  0.0713
 4071W        W19880   7.933   9.031  13.477 -0.0419  0.1577 -0.3288
 4072W        W19881   8.676   4.572  14.740 -0.2518 -0.4475 -0.0008
 4073W        W19882   4.176  11.827  11.653 -0.1004 -0.2090 -0.1392
 4074W        W19883   6.211  11.964   2.842  0.2129 -0.1907 -0.1490
 4075W        W19884   6.855   0.049  14.320 -0.2173 -0.0625  0.2209
 4076W        W19885  10.007   1.300   1.391 -0.1420  0.3280  0.1316
 4077W        W19886  11.071  16.229   0.828  0.1033 -0.0263 -0.2415
 4078W        W19887   0.151  16.605  14.860  0.2248  0.1664 -0.2900
 4079W        W19888   5.837  14.087   0.773 -0.1330  0.3155  0.0751
 4080W        W19889   0.866   0.655   4.306  0.1493  0.4542  0.4781
 4081W        W19890   4.589  11.538  14.163 -0.1203  0.3646  0.0150
 4082W        W19891  10.152   5.272   2.265 -0.0708 -0.0835  0.0070
 4083W        W19892  17.726  17.266  13.760  0.0234 -0.2478 -0.0726
 4084W        W19893   2.925   3.970  12.006  0.1442 -0.0726 -0.3370
 4085W        W19894   6.856   2.454   4.889  0.0226  0.0993  0.1466
 4086W        W19895  18.485  16.704   3.154  0.0981 -0.2861  0.1995
 4087W        W19896   3.693   0.466  10.594  0.1303 -0.0075  0.0076
 4088W        W19897  12.285  17.686   3.233 -0.1616  0.2973  0.4072
 4089W        W19898  12.900  12.631   2.120 -0.2424 -0.1891  0.4329
 4090W        W19899  11.284   9.777  11.413  0.0990 -0.0224  0.2496
 4091W        W19900   7.392   4.206  11.440 -0.0456 -0.3042 -0.0620
 4092W        W19901   1.585   0.715   1.283  0.0754 -0.0720 -0.2833
 4093W        W19902  12.890   5.978   0.297  0.2062  0.2169 -0.1898
 4094W        W19903   1.618  11.683   1.427 -0.0193  0.0470 -0.3604
 4095W        W19904  13.656   1.420   4.274 -0.1898  0.1480 -0.0664
 4096W        W19905  11.894  15.891   2.684  0.2506  0.0961 -0.1358
 4097W        W19906   6.906  18.208   5.282  0.2902  0.1442  0.0696
 4098W        W19907   0.273   0.546   3.433  0.1543  0.0348  0.4500
 4099W        W19908   0.042   0.719   0.641  0.1385  0.1095 -0.1203
 4100W        W19909  17.051  12.340   3.216 -0.1604 -0.0759  0.3171
 4101W        W19910   6.001   9.347  13.330  0.0680 -0.1336  0.0566
 4102W        W19911  13.761   5.931   5.670  0.0823 -0.3001  0.2776
 4103W        W19912  14.306   1.729  13.923  0.1704 -0.0378  0.3160
 4104W        W19913   6.529  13.031   3.676  0.0046  0.1653  0.1310
 4105W        W19914   4.168  14.658   9.772 -0.2797 -0.0795  0.1631
 4106W        W19915   4.582  11.567   2.791 -0.0464  0.0428  0.0925
 4107W        W19916   9.313  14.010   1.017 -0.2072 -0.2998 -0.0159
 4108W        W19917   4.675  10.100   1.401 -0.2205 -0.0487 -0.0366
 4109W        W19918   3.656  12.392  11.493 -0.1902 -0.1427  0.1961
 4110W        W19919  18.580   0.024   2.740  0.2184  0.0158 -0.0348
 4111W        W19920  15.298   6.574  12.366  0.0535  0.1372 -0.3737
 4112W        W19921   1.619   3.643  11.956 -0.2355 -0.2080  0.0513
 4113W        W19922   7.748   1.196   0.517 -0.1068  0.0900 -0.2805
 4114W        W19923  17.014   8.258   2.476 -0.1295  0.0495  0.0858
 4115W        W19924  13.809   6.250   2.407 -0.2643  0.3234 -0.0851
 4116W        W19925  16.384  16.858   0.870 -0.2182  0.1613  0.1014
 4117W        W19926   5.498   8.065   0.253  0.0993  0.0181 -0.0587
 4118W        W19927   7.319   3.506   3.889  0.1536 -0.0016 -0.2382
 4119W        W19928  18.607  15.393  11.529 -0.0093  0.1451 -0.0139
 4120W        W19929  15.227  16.624  12.847  0.0620 -0.1612  0.2942
 4121W        W19930  17.619   1.924  13.356 -0.0715  0.1034  0.0609
 4122W        W19931  11.953   9.264  11.511  0.4224 -0.0268 -0.1005
 4123W        W19932   2.955   7.159  11.727 -0.0472 -0.0624  0.0543
 4124W        W19933   0.377   5.582   2.274  0.1997 -0.1670  0.1708
 4125W        W19934   1.727   3.349   0.014  0.0774 -0.3193  0.0204
 4126W        W19935   7.603  10.005   4.749 -0.2832 -0.1404  0.1953
 4127W        W19936  14.782  13.294   1.997  0.5313 -0.1836  0.2524
 4128W        W19937   0.391  14.026  15.423  0.1655 -0.0328  0.2002
 4129W        W19938   9.957  14.983   2.063  0.0694  0.1172  0.2448
 4130W        W19939   3.847   8.144  14.039 -0.4065 -0.2582 -0.0674
 4131W        W19940  14.323   1.777  11.225 -0.1129 -0.2998 -0.0786
 4132W        W19941   1.648  15.483  15.254  0.1895 -0.0475 -0.1763
 4133W        W19942  14.575   1.266   1.790  0.2856  0.0675  0.0487
 4134W        W19943   4.890   2.441  15.587  0.1215 -0.4785 -0.4569
 4135W        W19944   4.595   5.776   0.344  0.1112 -0.0047  0.2355
 4136W        W19945   5.609  12.326  11.288 -0.2321 -0.0334 -0.3741
 4137W        W19946  16.965  14.195  12.841 -0.1132 -0.0319 -0.5010
 4138W        W19947  10.687   9.732  14.390 -0.0741 -0.0596  0.1016
 4139W        W19948   0.707   8.997  15.574 -0.0832  0.1842  0.0251
 4140W        W19949   2.842  17.454  12.613  0.0277  0.1631  0.5801
 4141W        W19950   6.303   6.772   3.239 -0.1712 -0.4086  0.0106
 4142W        W19951   9.626  10.288  11.209  0.0872 -0.2796 -0.2272
 4143W        W19952   8.770   2.626   1.032 -0.1124 -0.1357  0.3350
 4144W        W19953   0.590  15.196   0.419  0.1036 -0.0420 -0.0658
 4145W        W19954   6.440   0.952   5.657  0.1154 -0.3654 -0.2571
 4146W        W19955  17.528  10.705  13.280 -0.1754 -0.1703  0.0747
 4147W        W19956  11.515  12.620   1.430  0.1344 -0.2217 -0.0559
 4148W        W19957   0.970   6.926  15.450  0.0253 -0.0387 -0.2694
 4149W        W19958   2.312   2.781  15.472 -0.1920 -0.0045  0.1927
 4150W        W19959  17.449   0.207   5.070 -0.0918  0.3355 -0.3236
 4151W        W19960  12.682  13.459   1.435 -0.2106 -0.0394  0.1525
 4152W        W19961  15.789   5.116  15.516 -0.1311  0.0562 -0.1619
 4153W        W19962   4.225  14.231  15.680 -0.0613  0.1365 -0.1042
 4154W        W19963   4.968   4.386   4.888 -0.2212 -0.0226 -0.0243
 4155W        W19964  11.257   4.057   2.803 -0.1032  0.1563  0.0660
 4156W        W19965  14.216   8.787  13.630 -0.1246 -0.1120 -0.1611
 4157W        W19966  12.653  18.508   2.634  0.2358  0.3571 -0.1788
 4158W        W19967   0.654   1.027   1.727 -0.1189 -0.0436 -0.1251
 4159W        W19968  13.912  12.060  14.800 -0.0056 -0.1103 -0.0907
 4160W        W19969   3.730  15.001  11.368  0.1145 -0.1342 -0.5144
 4161W        W19970   3.614  13.115   4.781  0.0271  0.1553 -0.1769
 4162W        W19971   0.489   3.744   1.155 -0.0928 -0.1773  0.5473
 4163W        W19972   0.822  18.435  14.973  0.0539  0.0723  0.1420
 4164W        W19973  10.799   0.401   2.972  0.0903  0.1237 -0.0123
 4165W        W19974  14.764   6.987  10.519 -0.2364 -0.3599 -0.1802
 4166W        W19975  11.651  12.053   6.005 -0.1170 -0.0215  0.2076
 4167W        W19976   0.266  14.563   3.004 -0.0115 -0.1794 -0.0663
 4168W        W19977   8.821  11.304  12.487  0.1438 -0.0364  0.0850
 4169W        W19978   9.726   3.390   3.984  0.1546  0.3083  0.0859
 4170W        W19979  15.307  10.992  13.437 -0.1780 -0.0781 -0.3934
 4171W        W19980  14.537  16.313  15.476 -0.0823  0.0427 -0.0298
 4172W        W19981  14.815  15.186   0.193 -0.3113 -0.0601  0.2474
 4173W        W19982   1.892   3.398   3.068 -0.0744 -0.1803  0.0011
 4174W        W19983  11.050  11.153   5.689 -0.0969  0.0882  0.1331
 4175W        W19984   5.093  11.248   3.508 -0.1988 -0.1011 -0.1200
 4176W        W19985   0.414  15.681  10.370 -0.1253 -0.1734  0.1730
 4177W        W19986  11.044  15.076  15.130 -0.2152  0.4737  0.1797
 4178W        W19987   1.652   6.221   1.831 -0.5754 -0.0850  0.1903
 4179W        W19988  16.259  15.291  14.151  0.2058  0.2226 -0.3507
 4180W        W19989  11.178  17.594  15.192 -0.1554 -0.0313 -0.3018
 4181W        W19990  18.064   9.916  15.389  0.0379  0.2709 -0.0461
 4182W        W19991   0.482   1.691   3.958 -0.2110 -0.0162 -0.0640
 4183W        W19992   8.585  12.952   4.529  0.1738 -0.0805 -0.1899
 4184W        W19993   9.492   9.089   1.253 -0.2041  0.3308  0.0891
 4185W        W19994  16.752   1.989   0.039 -0.1464  0.0238 -0.2568
 4186W        W19995  18.027   5.816   3.611 -0.0854  0.1835 -0.0339
 4187W        W19996  13.491   4.946  14.438  0.1694 -0.2179 -0.1822
 4188W        W19997   5.183   5.217   4.205  0.2546  0.0226  0.3157
 4189W        W19998   0.814  12.463   0.791  0.0920 -0.0171 -0.1409
 4190W        W19999  13.368   5.435   5.056 -0.1186  0.0602 -0.0249
 4191W        W20000   4.353  17.352  13.009  0.0379 -0.0378 -0.2264
 4192W        W20001   3.956  12.889   3.436 -0.1605 -0.2491  0.0851
 4193W        W20002   5.564  12.542  10.432 -0.3073 -0.0904 -0.0617
 4194W        W20003  10.790   9.011  12.250 -0.0052 -0.0358 -0.0447
 4195W        W20004   9.936  14.821  13.278  0.0463  0.1901  0.0745
 4196W        W20005   1.527   0.212  12.413 -0.2348 -0.4867  0.0634
 4197W        W20006   8.715   1.902  10.387 -0.3350  0.1244  0.2018
 4198W        W20007  16.008   7.221   4.470 -0.4030  0.0502 -0.2079
 4199W        W20008  17.678  18.464   5.003 -0.3845 -0.3284  0.1689
 4200W        W20009  18.020   4.192  12.425  0.1489 -0.1558 -0.1438
 4201W        W20010   3.343  15.798   0.705  0.3596  0.0534 -0.0520
 4202W        W20011   0.935  10.187   1.316 -0.2152  0.0099  0.2049
 4203W        W20012   4.825  18.551  14.292 -0.0522  0.0243 -0.4272
 4204W        W20013   7.240  13.356   4.925  0.1171  0.1273 -0.1344
 4205W        W20014   8.334  12.177  11.216  0.0249  0.0657 -0.4797
 4206W        W20015   8.912  14.881   1.077 -0.0901  0.0746  0.0327
 4207W        W20016   3.850   6.427   0.492 -0.1426  0.0194 -0.1962
 4208W        W20017  11.602   7.466   1.764 -0.4245  0.0366  0.1567
 4209W        W20018  15.554  13.219  14.398  0.0708  0.1527 -0.3759
 4210W        W20019   9.054  10.658   1.886  0.2107 -0.1458 -0.1444
 4211W        W20020  17.809  10.182   3.716  0.2221  0.1516  0.0637
 4212W        W20021   9.976   5.374  12.332 -0.3289 -0.0302 -0.1313
 4213W        W20022  10.432  11.811  12.234 -0.1331  0.3618  0.1700
 4214W        W20023   1.608   7.015   2.185 -0.0951 -0.2351  0.1962
 4215W        W20024  17.050  15.393   2.390  0.0549  0.0797  0.2511
 4216W        W20025  13.192   3.479   4.381  0.0621  0.0498  0.1826
 4217W        W20026   1.807   5.879  10.729 -0.0406 -0.1980 -0.1293
 4218W        W20027   2.335   1.288   3.653  0.2425 -0.0168  0.0634
 4219W        W20028   5.560   1.459   3.952  0.0286 -0.0648 -0.1401
 4220W        W20029  15.663   4.482   2.361  0.3235  0.0118  0.1001
 4221W        W20030   9.153   0.348   4.455  0.3817  0.1136  0.0946
 4222W        W20031   7.629   7.792  15.584 -0.2583  0.1099  0.1757
 4223W        W20032  10.498   7.765  11.367 -0.1963  0.0582 -0.2977
 4224W        W20033   7.546  12.483  11.830  0.4496 -0.2676 -0.1994
 4225W        W20034   0.585   8.063   2.431  0.2316 -0.0227  0.1083
 4226W        W20035   7.821  16.335   3.006  0.0914 -0.2828  0.0122
 4227W        W20036   2.606  15.628   5.483  0.1177 -0.1731  0.4589
 4228W        W20037   2.098  10.974   0.799 -0.1259 -0.3877 -0.0067
 4229W        W20038  13.094   4.163  11.958  0.0713 -0.1305  0.0279
 4230W        W20039  17.490   2.044  11.507  0.3527 -0.3473 -0.0390
 4231W        W20040  17.970   4.658  12.533  0.0553 -0.1987  0.0183
 4232W        W20041  18.247  17.672   2.725  0.0066 -0.0377 -0.0687
 4233W        W20042   8.158   8.468   5.110  0.1047 -0.2119 -0.4137
 4234W        W20043  10.005   7.157   2.428  0.2286 -0.5648 -0.3531
 4235W        W20044   9.107   7.228   0.810 -0.1956  0.2143 -0.0577
 4236W        W20045   8.389   1.819  14.218  0.3541  0.0497 -0.1911
 4237W        W20046   7.980   2.616   0.754  0.1954  0.1590 -0.3726
 4238W        W20047   9.334   7.051  14.350  0.1695  0.2741 -0.0190
 4239W        W20048  11.228   1.223  13.032 -0.1045 -0.1879  0.2245
 4240W        W20049   2.021  13.302   4.053  0.0407  0.1408  0.0739
 4241W        W20050  13.234   2.597  15.081 -0.0259 -0.0572 -0.1137
 4242W        W20051  16.385  11.441   2.159  0.1487 -0.2809 -0.1640
 4243W        W20052   7.801   8.695   3.144  0.4729 -0.0903 -0.3398
 4244W        W20053   1.134   8.300   1.324 -0.0482  0.0479 -0.2455
 4245W        W20054   9.324   6.487  11.750  0.1452  0.1288 -0.0859
 4246W        W20055   3.777   6.113   1.782 -0.1702 -0.0229  0.3094
 4247W        W20056  14.091  11.863   3.580 -0.2857  0.0428 -0.2217
 4248W        W20057   1.674   6.763  11.153 -0.0674  0.2831  0.4806
 4249W        W20058  17.963  12.128  14.534  0.1967 -0.0214  0.1443
 4250W        W20059  12.738  18.041  10.580 -0.2284  0.0642 -0.0093
 4251W        W20060   1.602  16.345   4.253  0.0346  0.1349  0.0918
 4252W        W20061   7.336   8.221   1.196  0.0878 -0.0590  0.1006
 4253W        W20062   4.564   7.509   0.044 -0.0579 -0.0278 -0.2878
 4254W        W20063  18.061   4.211   1.645 -0.0076 -0.0451 -0.3606
 4255W        W20064   2.176   2.676   3.045  0.1853  0.0350 -0.1267
 4256W        W20065  13.638  13.769   2.214  0.1010 -0.0688  0.1950
 4257W        W20066   1.579  14.780  14.354 -0.0148 -0.2055  0.0614
 4258W        W20067  10.369   2.138  14.437  0.3148 -0.1284 -0.1149
 4259W        W20068  15.895  11.841   2.655 -0.1911 -0.1677 -0.2760
 4260W        W20069  11.271   7.116   2.978 -0.2576  0.0141 -0.1686
 4261W        W20070  10.968  17.187   2.314  0.2019 -0.2166 -0.2163
 4262W        W20071  16.319  17.390   4.711 -0.0869 -0.0361  0.0246
 4263W        W20072   8.037   7.326   1.399  0.3719  0.0382 -0.1649
 4264W        W20073   8.551  11.714  14.593  0.2328  0.1015  0.3363
 4265W        W20074  13.879  17.651   3.026  0.2441  0.2472  0.0360
 4266W        W20075  17.747  10.832   2.486 -0.2436 -0.0172  0.0977
 4267W        W20076  11.099  15.705  12.664  0.2907 -0.0091 -0.0481
 4268W        W20077   3.275  16.773  13.019  0.2852  0.0889  0.2912
 4269W        W20078   0.661   3.506   3.661  0.1406 -0.0030  0.2067
 4270W        W20079   2.453  11.193   5.336 -0.0393  0.2023 -0.3902
 4271W        W20080  13.944  16.826   0.440 -0.0658  0.0368  0.2165
 4272W        W20081   4.485   4.364  14.735 -0.5594 -0.0727 -0.0304
 4273W        W20082   7.593   2.155   3.457  0.1065 -0.1712 -0.0801
 4274W        W20083   8.631  17.385   0.967  0.0977 -0.2013 -0.1443
 4275W        W20084  15.858   7.794   4.232 -0.0186  0.1128  0.3243
 4276W        W20085  17.550   7.019  11.559 -0.2728 -0.1759  0.0680
 4277W        W20086  10.878   5.849   3.180 -0.1726 -0.4126  0.0125
 4278W        W20087  13.530  18.137  14.660  0.1714 -0.0852 -0.1570
 4279W        W20088   2.385   5.874   5.738 -0.0409 -0.0416  0.2712
 4280W        W20089  14.182  18.312   0.551 -0.4263 -0.0899  0.0320
 4281W        W20090   5.793  13.515   5.119 -0.0766  0.0158  0.1580
 4282W        W20091   7.699  10.745  11.861 -0.2349 -0.0077  0.1154
 4283W        W20092   0.551   9.648   1.558  0.1403  0.0404  0.0873
 4284W        W20093   6.575  16.238  10.798  0.0255 -0.2320 -0.0243
 4285W        W20094  16.917  18.251  12.491 -0.1942  0.0286 -0.0344
 4286W        W20095   0.468   2.431   1.680 -0.3051 -0.0241  0.1304
 4287W        W20096  15.428  16.695   3.616 -0.0396  0.1911 -0.0583
 4288W        W20097   3.099   4.753   0.423  0.0639  0.0798 -0.2061
 4289W        W20098   8.469  14.896  12.145  0.2977 -0.0784  0.5616
 4290W        W20099  13.896  15.148  11.025 -0.2252  0.1204 -0.2024
 4291W        W20100  12.837   2.925   2.099  0.1392  0.2277  0.0811
 4292W        W20101   0.250   8.449  12.928 -0.1034  0.3163  0.0757
 4293W        W20102   2.053  14.008  14.336 -0.1508 -0.0992  0.2214
 4294W        W20103   4.712   1.741   1.905 -0.2341 -0.0089 -0.1398
 4295W        W20104   9.848   3.491   4.446  0.0118  0.1944 -0.3416
 4296W        W20105  14.465  18.201   0.961  0.1457 -0.1020 -0.0270
 4297W        W20106  17.618   1.380   3.140  0.0173 -0.0752 -0.1690
 4298W        W20107   0.838  16.640  12.212  0.0758 -0.2680  0.1622
 4299W        W20108  14.767  15.140  13.826  0.0721  0.2312 -0.0939
 4300W        W20109  13.315   7.092   2.107  0.2220  0.0331 -0.0609
 4301W        W20110  11.585  10.222  11.920  0.2492  0.0260 -0.1851
 4302W        W20111   5.619   9.854  15.137 -0.2240  0.0902  0.0259
 4303W        W20112  17.318   2.511  12.158 -0.3762  0.2063  0.1287
 4304W        W20113   8.319   5.277  13.223  0.3720  0.0172  0.3568
 4305W        W20114   4.321   9.952  14.370 -0.0774  0.0070 -0.0524
 4306W        W20115  10.595   3.492   5.371 -0.4327 -0.1127 -0.2489
 4307W        W20116   3.345  11.675   3.638  0.0894  0.3679  0.1682
 4308W        W20117   9.221  12.343  14.124 -0.1799 -0.1698  0.2576
 4309W        W20118  13.144  15.254   4.254 -0.1394  0.1609 -0.1086
 4310W        W20119   9.390  17.059  14.546 -0.3820 -0.0812  0.0808
 4311W        W20120   3.384   5.856  15.594  0.1109 -0.2568  0.0673
 4312W        W20121  17.603   5.974   3.415  0.2678  0.4510  0.0426
 4313W        W20122   1.976  11.857  15.140  0.1730  0.2317 -0.3640
 4314W        W20123  12.870  16.491  14.622  0.1099  0.0957  0.0732
 4315W        W20124  13.514  15.837   1.050 -0.0036 -0.2628 -0.1344
 4316W        W20125  12.996  13.053   5.130 -0.0218  0.1612 -0.2759
 4317W        W20126   7.356   1.335  14.236 -0.2485 -0.2524 -0.0972
 4318W        W20127   4.734   0.835   4.582 -0.1044  0.0944 -0.5874
 4319W        W20128   5.900   7.858  11.054  0.0390 -0.0243 -0.2508
 4320W        W20129  16.545   7.254  15.492  0.0060 -0.2484 -0.2788
 4321W        W20130  17.281   5.202   2.827  0.0929 -0.1274  0.0132
 4322W        W20131   3.301   9.441   5.011  0.1306  0.2093 -0.0311
 4323W        W20132  16.818   4.504   1.634 -0.3620  0.0239 -0.0997
 4324W        W20133   8.944   4.924  13.828 -0.0783  0.2035 -0.1049
 4325W        W20134   3.688   5.124   5.404 -0.0733  0.0494 -0.0605
 4326W        W20135   5.655   7.592  15.141  0.0097  0.0638  0.1112
 4327W        W20136   8.998   8.266   0.818 -0.0029 -0.1811  0.2239
 4328W        W20137   4.539   1.847   3.384 -0.0630  0.2276 -0.0537
 4329W        W20138  15.633   0.377  14.181  0.1260 -0.1514  0.0850
 4330W        W20139   8.184   2.556  12.884  0.2806 -0.1068 -0.1457
 4331W        W20140  15.130   5.430   1.013 -0.0302 -0.2653 -0.0489
 4332W        W20141  12.038  10.075  14.115 -0.0023  0.0105  0.0293
 4333W        W20142   3.342  16.746  13.922  0.1470  0.1198  0.1355
 4334W        W20143   0.639   0.983  11.838 -0.1639 -0.2363  0.0161
 4335W        W20144   3.753  14.512  12.676 -0.0201 -0.0803 -0.1879
 4336W        W20145   0.776  13.738   3.965  0.0382  0.0984  0.1859
 4337W        W20146   9.286   7.459  15.711 -0.3986 -0.4042  0.3192
 4338W        W20147  10.958  12.720   2.796 -0.0269  0.1041  0.3039
 4339W        W20148   7.607   5.224   2.068  0.0432  0.1043 -0.0266
 4340W        W20149  14.024   2.587   0.925  0.1761 -0.3270  0.4242
 4341W        W20150  16.065  10.646  14.917  0.0170  0.0891  0.0208
 4342W        W20151   7.575  10.883   2.184  0.0109  0.2653  0.0263
 4343W        W20152  16.103   2.516   4.199 -0.1964  0.0565  0.0976
 4344W        W20153   7.689  17.506  15.595  0.1785 -0.0291  0.0132
 4345W        W20154   9.423   3.114  12.221 -0.2222  0.2184  0.1897
 4346W        W20155   3.665   0.663   1.765  0.1981 -0.4656 -0.0890
 4347W        W20156  11.763   1.768  14.527  0.0477 -0.0652 -0.2658
 4348W        W20157  13.021  11.920   4.546  0.0343  0.0955 -0.1785
 4349W        W20158  16.952   2.013   0.513 -0.1777  0.1948 -0.1552
 4350W        W20159   7.201  12.313   5.799  0.0255 -0.2535  0.2995
 4351W        W20160  10.676  11.394   3.909  0.0704 -0.3488  0.0683
 4352W        W20161  11.353   9.573   4.509 -0.0073  0.2029  0.0696
 4353W        W20162  12.977   4.567   2.134 -0.3403  0.0573  0.3580
 4354W        W20163  18.178  16.242   0.999  0.0408 -0.1740 -0.1915
 4355W        W20164   4.917   7.877   2.022 -0.2119  0.0026  0.1090
 4356W        W20165  18.137   5.343   2.769 -0.2319  0.1064  0.0557
 4357W        W20166  13.284  17.782   3.573 -0.0446  0.1037 -0.0531
 4358W        W20167  11.110  10.239  11.646 -0.0172  0.0384 -0.2402
 4359W        W20168   1.606   7.021  12.845 -0.1518 -0.0584 -0.2268
 4360W        W20169   0.618  12.755   3.911  0.2206 -0.0452  0.0097
 4361W        W20170   2.130  16.730   3.471 -0.3092 -0.0943  0.1527
 4362W        W20171   0.663  10.358   0.009 -0.1316 -0.0659  0.1456
 4363W        W20172   2.604  17.120  15.317  0.0673 -0.1188  0.0716
 4364W        W20173   3.220   5.055  15.078 -0.0531  0.0970  0.1053
 4365W        W20174   1.239   8.543   4.414 -0.0999  0.1608 -0.1159
 4366W        W20175   1.635   9.312   2.839 -0.0557 -0.2810 -0.2168
 4367W        W20176   0.624  12.809   0.387  0.0615  0.0026 -0.1591
 4368W        W20177  16.750  17.977   3.286 -0.0615 -0.0452  0.2428
 4369W        W20178   3.957   6.181   2.350  0.1151  0.0992  0.0583
 4370W        W20179   4.724  14.613  10.752 -0.2920  0.1028  0.2020
 4371W        W20180   5.580  15.938  10.758  0.2217  0.5151 -0.1012
 4372W        W20181  17.481   1.504   0.003 -0.4098  0.1544 -0.0242
 4373W        W20182  17.076   2.576   4.136  0.0599  0.0856  0.2071
 4374W        W20183   6.840  12.643  10.814  0.0056  0.0958 -0.2273
 4375W        W20184  17.819  12.008   5.779  0.1183  0.1176  0.1505
 4376W        W20185   2.192   0.624   3.263 -0.0068 -0.0759  0.3723
 4377W        W20186  17.317   3.394  13.367 -0.0758  0.1547  0.0071
 4378W        W20187   2.141  14.896  12.945  0.0411 -0.3182  0.1174
 4379W        W20188  17.182   4.787   9.977 -0.0207 -0.2429  0.1135
 4380W        W20189   7.651   2.933  14.485 -0.1236 -0.2005  0.1082
 4381W        W20190  18.627  16.524   0.990  0.1836 -0.0536 -0.0141
 4382W        W20191  15.076  12.941   2.988 -0.0453  0.2060 -0.2735
 4383W        W20192   0.280  17.277   1.866 -0.1569 -0.2415  0.0725
 4384W        W20193  13.709   7.875   2.937 -0.0142 -0.1467 -0.1493
 4385W        W20194   3.933  14.151  15.198  0.2257 -0.0759  0.0124
 4386W        W20195   2.083  10.791   3.613 -0.2180  0.1738  0.1498
 4387W        W20196   4.067   5.699  13.316  0.1396 -0.0697 -0.0554
 4388W        W20197   4.738  15.827  12.006  0.0150 -0.0814  0.0292
 4389W        W20198   7.979  16.216   2.024  0.1392 -0.1087 -0.2811
 4390W        W20199   0.397  10.930  15.498  0.1545  0.0070  0.0341
 4391W        W20200   8.354   4.365  13.352 -0.2312  0.3234  0.0609
 4392W        W20201  15.965   2.734   3.392 -0.1390 -0.1646  0.0656
 4393W        W20202  16.663   5.422  13.124  0.4228  0.0423 -0.0780
 4394W        W20203   6.678  13.086  14.209 -0.6594  0.0373  0.0568
 4395W        W20204   0.339  11.929  13.442  0.2131 -0.1912 -0.3787
 4396W        W20205  15.556  12.273   1.851 -0.0993  0.1219  0.1820
 4397W        W20206  10.358  15.441   5.202  0.0526 -0.2503 -0.4225
 4398W        W20207   2.837  10.861   1.750 -0.1728  0.1327 -0.1368
 4399W        W20208  17.271  10.056   0.766 -0.2071  0.1938 -0.2526
 4400W        W20209  12.150   3.767   3.415 -0.2247  0.0160  0.1391
 4401W        W20210   3.203   7.005   3.208  0.1816  0.0669 -0.1467
 4402W        W20211   7.936  10.022  14.296  0.0087 -0.0279 -0.0355
 4403W        W20212  13.818   0.013  11.790  0.0120  0.0621 -0.0689
 4404W        W20213  16.864   0.278   3.130  0.1130  0.0577 -0.2181
 4405W        W20214  18.297  11.361   1.266 -0.2554  0.0233  0.0682
 4406W        W20215  13.039  13.095   3.440 -0.1933  0.1262 -0.0705
 4407W        W20216   7.419   4.302  14.308 -0.0668  0.0156  0.0990
 4408W        W20217  11.913   5.468  11.813  0.1014 -0.0277 -0.1155
 4409W        W20218   4.206   7.725   3.577  0.0955  0.2131  0.2626
 4410W        W20219  12.025   9.351   3.649  0.0688  0.0907 -0.2527
 4411W        W20220  14.398   1.755   3.184 -0.0118  0.0528 -0.0507
 4412W        W20221   8.106   0.401   4.241  0.1204 -0.0672 -0.1351
 4413W        W20222  13.219   8.324   3.666  0.0757 -0.2751 -0.0520
 4414W        W20223   6.938  14.127  11.729  0.0543  0.1973  0.0273
 4415W        W20224  17.185  10.273   0.253 -0.0272  0.2984  0.2574
 4416W        W20225   0.926   1.503  13.430 -0.4522 -0.2070 -0.1569
 4417W        W20226   4.560   9.628   4.921  0.1232  0.3186  0.0042
 4418W        W20227  12.080  11.989  10.817  0.0586  0.0439  0.1453
 4419W        W20228  16.867  12.722  13.906  0.2709  0.0306 -0.0729
 4420W        W20229  10.330  11.208   4.655  0.5618 -0.0448 -0.0943
 4421W        W20230  17.496   4.968  15.160 -0.4999  0.1372  0.1003
 4422W        W20231   2.209  16.610  13.569 -0.0540  0.1722  0.1814
 4423W        W20232   1.599  15.394  11.339  0.2510  0.0520 -0.0946
 4424W        W20233   3.788  14.966  12.152  0.1513  0.0996  0.0194
 4425W        W20234   5.172   0.796   0.283  0.2164  0.0174 -0.0316
 4426W        W20235   7.166   1.417  14.832  0.0424  0.2925  0.0564
 4427W        W20236   4.286   5.024   1.564  0.2878 -0.1560 -0.0566
 4428W        W20237  12.972  12.427  14.313 -0.1647 -0.5206 -0.0245
 4429W        W20238   6.699  15.047   1.814 -0.0202 -0.1747  0.1819
 4430W        W20239   8.394   3.269  11.134 -0.0083  0.1408 -0.0058
 4431W        W20240  13.974   6.323  10.988  0.5061  0.3085 -0.3167
 4432W        W20241   4.688   9.279   3.862  0.4434  0.1597 -0.1402
 4433W        W20242  13.822   5.009   3.737 -0.1174  0.0421 -0.1759
 4434W        W20243   0.015  11.731  15.021 -0.4467 -0.0941 -0.2047
 4435W        W20244   7.348   3.205  12.976  0.0309 -0.0363 -0.1126
 4436W        W20245   6.937   1.726   4.337  0.0435 -0.1140  0.0094
 4437W        W20246  16.809  18.453   3.057 -0.0494 -0.0170 -0.0342
 4438W        W20247  12.100  16.214  13.744  0.0266  0.2804  0.3550
 4439W        W20248  13.005  12.917   9.651  0.3514  0.0378 -0.2140
 4440W        W20249   2.584   7.297   1.235 -0.1194  0.0317 -0.0262
 4441W        W20250   0.995   2.922  12.714  0.0225 -0.0498 -0.0317
 4442W        W20251  11.171  13.102   1.688 -0.0361 -0.1588  0.0624
 4443W        W20252   6.251   4.442  13.909 -0.3847 -0.1108  0.3489
 4444W        W20253   9.597  11.451  13.066 -0.0526 -0.0376 -0.1876
 4445W        W20254  17.754  17.815  13.870  0.0125  0.0531 -0.0144
 4446W        W20255   7.022  15.310   0.773  0.5293  0.0979 -0.2120
 4447W        W20256  11.400   7.980  13.694  0.0018  0.1790 -0.1021
 4448W        W20257   6.319   0.658   1.954  0.2311  0.2334  0.0119
 4449W        W20258  13.723   3.568   4.208  0.0166  0.2028 -0.0773
 4450W        W20259  18.213   5.829  10.253  0.2575  0.0047  0.0743
 4451W        W20260   9.628   1.653   4.361 -0.0756 -0.0335 -0.1791
 4452W        W20261  18.385   6.255  12.876 -0.0725 -0.0555 -0.0528
 4453W        W20262   1.471   6.524   2.307  0.0474  0.2849 -0.2140
 4454W        W20263  16.126   4.083  14.304 -0.4249 -0.0056 -0.0789
 4455W        W20264   2.897   5.315   3.251 -0.0807  0.1396  0.0991
 4456W        W20265   1.547  17.392   9.576 -0.1051  0.0592 -0.4544
 4457W        W20266   4.285   7.368   0.909  0.0370 -0.4215 -0.1415
 4458W        W20267   2.096   3.160   1.448 -0.1572  0.0857  0.2091
 4459W        W20268  16.588  18.495   1.006 -0.0825  0.2882 -0.3003
 4460W        W20269  11.014  14.514   4.520  0.0613 -0.0461  0.3409
 4461W        W20270  16.767  11.712   2.311  0.1346 -0.2011 -0.1403
 4462W        W20271  15.160   4.678   0.116 -0.3261  0.2846 -0.3892
 4463W        W20272   1.826   5.074   1.985 -0.0537 -0.0176 -0.0984
 4464W        W20273   1.955  16.197   1.217  0.3565 -0.1970  0.1202
 4465W        W20274  16.355  14.607  12.176  0.0078  0.2563  0.0939
 4466W        W20275  14.711   9.744   3.957 -0.0937  0.3971 -0.1869
 4467W        W20276  11.630   5.572   5.091 -0.0997 -0.0440 -0.2775
 4468W        W20277   0.886   2.352   5.040  0.0737  0.1641 -0.3081
 4469W        W20278  17.040   4.897  12.511  0.1373  0.0505  0.2845
 4470W        W20279   6.802   1.058   9.777  0.2757  0.1977  0.1032
 4471W        W20280   2.527   6.604  11.913  0.1220 -0.3244 -0.0456
 4472W        W20281   8.659  17.013   2.109  0.0448  0.1557 -0.2458
 4473W        W20282  10.659   2.642  11.981  0.1867  0.0577  0.1080
 4474W        W20283  14.743  15.531   3.949 -0.0673  0.0765 -0.3259
 4475W        W20284   1.007   1.320  11.856 -0.0373  0.0728  0.0850
 4476W        W20285  14.577  14.955   4.018 -0.2224 -0.2106  0.5510
 4477W        W20286   3.826   7.892   4.255  0.0466  0.1635  0.1251
 4478W        W20287   5.954   0.003   4.284  0.0284  0.2767 -0.1098
 4479W        W20288   5.363   0.524  13.638 -0.2879  0.1509 -0.0356
 4480W        W20289   1.991  12.931   2.506 -0.1020 -0.0328 -0.0372
 4481W        W20290  11.151  18.531  11.674  0.1972  0.0878  0.0853
 4482W        W20291   2.158   3.029  13.484  0.4883 -0.0251  0.0668
 4483W        W20292   4.761   7.366  11.709 -0.2523 -0.0681 -0.1094
 4484W        W20293   7.279   6.487   3.457  0.2561  0.0459 -0.1145
 4485W        W20294  18.322  12.462  11.423  0.0752 -0.0079 -0.0214
 4486W        W20295   4.291  17.983  15.292 -0.0637  0.0958  0.1208
 4487W        W20296   7.593   7.771   5.226  0.3215 -0.0133  0.1391
 4488W        W20297   6.597   7.175  11.202  0.1468  0.1458 -0.1027
 4489W        W20298   5.029   2.949  15.664 -0.0856 -0.0024  0.2518
 4490W        W20299  13.397  12.152  12.571  0.1335 -0.0450  0.0755
 4491W        W20300  16.548  12.754  15.020 -0.1725  0.0350  0.3788
 4492W        W20301  18.382   1.215   1.275 -0.0795 -0.0801 -0.0187
 4493W        W20302   8.549   3.625   4.494 -0.1920 -0.0528  0.0863
 4494W        W20303  11.418   0.886  11.211  0.1717 -0.1237  0.1407
 4495W        W20304  17.304  14.253   2.471  0.0752  0.1085  0.0589
 4496W        W20305   2.502  18.198   5.267 -0.1100  0.1394 -0.2759
 4497W        W20306   4.851   2.402  12.051 -0.2476 -0.0070  0.1923
 4498W        W20307   0.193   7.589   3.833 -0.0692 -0.0830 -0.0727
 4499W        W20308   8.355   8.212  11.857 -0.0287 -0.0392 -0.1662
 4500W        W20309  16.436  18.247  14.469 -0.1391  0.2606  0.0867
 4501W        W20310   1.210   1.361   9.988  0.1468 -0.2144  0.0497
 4502W        W20311  16.214  10.671   3.302  0.0123 -0.0091 -0.2891
 4503W        W20312   0.952   4.415   2.549 -0.2965 -0.0513  0.2266
 4504W        W20313   8.564   7.016   2.085  0.0161  0.0986 -0.1499
 4505W        W20314   9.219  15.153  10.647 -0.2041 -0.3885  0.0655
 4506W        W20315   7.745  13.195   2.493  0.1328  0.0557  0.0190
 4507W        W20316   7.722   9.585  12.646 -0.0157 -0.1733 -0.2534
 4508W        W20317  14.885   0.530   5.232  0.1660 -0.0481  0.2459
 4509W        W20318  15.987  14.498  10.430  0.1692 -0.2225  0.0472
 4510W        W20319   6.855  13.222  12.028 -0.0904 -0.2933  0.2121
 4511W        W20320   7.449  17.295  14.606  0.2742  0.0644 -0.1043
 4512W        W20321   6.031  10.838   5.169  0.1719 -0.1543  0.0867
 4513W        W20322  12.677  13.898   3.242  0.0827 -0.4597  0.0514
 4514W        W20323   8.016  16.160   2.637 -0.2447 -0.3059  0.2673
 4515W        W20324  16.467   3.825   4.515 -0.2067  0.0685 -0.1253
 4516W        W20325   0.435  10.621   2.017  0.3091 -0.2306 -0.2347
 4517W        W20326  14.096   5.068  13.632  0.3444 -0.0491 -0.0071
 4518W        W20327   5.243  11.270   1.965  0.1652  0.1708 -0.1519
 4519W        W20328   7.669  18.140   1.463 -0.1180  0.2396 -0.1208
 4520W        W20329  11.163   2.508  10.165  0.0260 -0.0013 -0.0538
 4521W        W20330  15.360  17.542   9.951 -0.0147  0.1098 -0.0683
 4522W        W20331   0.659  12.259   3.693 -0.0791  0.0904 -0.0166
 4523W        W20332  18.352   9.589   5.031 -0.3314  0.3362  0.1001
 4524W        W20333  18.112   1.778   1.212 -0.1240 -0.4059  0.3725
 4525W        W20334   8.717   7.540   0.819  0.3359 -0.0097  0.0415
 4526W        W20335   0.525   3.677   2.150  0.2643  0.0596  0.0958
 4527W        W20336   4.831   0.627   1.084 -0.1210 -0.0506  0.0390
 4528W        W20337  15.823  14.911  15.357 -0.2329 -0.3459 -0.2750
 4529W        W20338   2.970   5.724   1.617 -0.2454  0.0924 -0.3665
 4530W        W20339  16.927  13.110  14.916 -0.4159 -0.2878  0.0117
 4531W        W20340  11.782   6.039  11.169 -0.2937 -0.1116  0.1494
 4532W        W20341  15.953   4.818   2.716  0.1066 -0.1184  0.2385
 4533W        W20342   2.238  12.609   1.022  0.1652 -0.2718 -0.0429
 4534W        W20343   4.248   9.314  11.810 -0.0466  0.2606 -0.0169
 4535W        W20344  18.129   5.162   3.269 -0.0780 -0.1548  0.0940
 4536W        W20345   6.019   7.020  13.191  0.2994  0.2544 -0.2368
 4537W        W20346   1.854   5.439  12.063 -0.0264 -0.3237 -0.2373
 4538W        W20347   6.367   1.133   3.604  0.4603  0.1712 -0.4153
 4539W        W20348  15.997   3.791  15.512 -0.1141 -0.0053 -0.1617
 4540W        W20349   6.772   1.316  14.447  0.0144  0.2142  0.0169
 4541W        W20350  17.665  17.299  11.847  0.2897 -0.1073 -0.0492
 4542W        W20351   1.859   2.108   5.089 -0.0002  0.0711  0.3877
 4543W        W20352   0.989  13.991  10.922 -0.0445 -0.0360 -0.2149
 4544W        W20353  13.738   7.610   1.417  0.0672 -0.1641  0.0378
 4545W        W20354   2.910   3.614   2.763  0.2222  0.3293 -0.0112
 4546W        W20355  14.574  12.372  12.232 -0.0844 -0.0548  0.4203
 4547W        W20356   2.578   1.693  13.979 -0.0720 -0.0990 -0.0915
 4548W        W20357   6.126  11.592  11.586 -0.0740  0.1547  0.3502
 4549W        W20358  13.063  16.240  11.845 -0.0101 -0.0093  0.2001
 4550W        W20359  14.365  10.535  14.830  0.0399 -0.1060 -0.0430
 4551W        W20360  12.059  13.562  15.593 -0.0318 -0.1274  0.0415
 4552W        W20361  13.914   1.144  14.016  0.3278 -0.3155  0.0091
 4553W        W20362  16.540  11.311   0.121 -0.1728  0.0656 -0.0598
 4554W        W20363   9.595  17.859  13.303 -0.2105 -0.1224  0.1617
 4555W        W20364   8.048   5.298  12.735 -0.1844 -0.0272 -0.0547
 4556W        W20365   3.302   5.127   4.547  0.2427  0.2503  0.2614
 4557W        W20366   6.627  15.447   0.314 -0.1162  0.1443 -0.3389
 4558W        W20367  17.464  11.121   5.431  0.1245 -0.0418  0.0750
 4559W        W20368   7.170   5.910  11.975 -0.0912 -0.0467 -0.2658
 4560W        W20369  14.436  13.159   1.621 -0.2822 -0.3206  0.0884
 4561W        W20370  18.446  17.434   4.306  0.1663  0.1921 -0.0499
 4562W        W20371   6.351   2.492   1.386  0.0264 -0.3867 -0.1212
 4563W        W20372   5.630   7.132  12.219  0.2740  0.1213  0.2359
 4564W        W20373  16.582   2.795   5.026 -0.5026 -0.2393  0.2997
 4565W        W20374  11.663   2.886   0.133 -0.2329  0.0173 -0.0874
 4566W        W20375  11.091   3.968  14.215  0.0649 -0.0781 -0.0279
 4567W        W20376  13.301   2.917   4.650 -0.3066  0.1701  0.0519
 4568W        W20377   5.799   2.090  13.375  0.0437  0.0262  0.0632
 4569W        W20378   7.868  11.237   0.385  0.0244 -0.0458 -0.1323
 4570W        W20379   4.278   1.327  12.041 -0.2118  0.2582  0.0218
 4571W        W20380  13.355   2.462   2.653 -0.0373 -0.0879 -0.0300
 4572W        W20381   2.903  18.656   2.774 -0.2836 -0.1888  0.1550
 4573W        W20382  10.747  14.686   5.329 -0.4116 -0.0708  0.0493
 4574W        W20383   5.690  18.362  13.331 -0.0477 -0.1420  0.0893
 4575W        W20384  12.391  12.510   0.808 -0.2579  0.0871 -0.4927
 4576W        W20385  18.317   9.116  12.377 -0.0744 -0.2350  0.1060
 4577W        W20386   7.409   6.726   0.893  0.0736  0.0198  0.1113
 4578W        W20387   5.431   0.127   4.372 -0.2476 -0.2481 -0.0443
 4579W        W20388  13.481  14.320   4.409  0.0205 -0.0205  0.0024
 4580W        W20389  17.086  15.013   3.339  0.2400 -0.1738  0.2016
 4581W        W20390   3.677  16.722  15.616 -0.1358 -0.1209 -0.1497
 4582W        W20391   4.108  12.748   1.253  0.0313  0.3107  0.0414
 4583W        W20392   7.791  16.479  15.589 -0.2005  0.0098 -0.1663
 4584W        W20393  16.755  16.623   1.692  0.1854 -0.1765  0.3331
 4585W        W20394  16.774   5.586   3.033 -0.0396  0.0668  0.3381
 4586W        W20395  13.588   0.231   3.423 -0.0496 -0.2055 -0.2457
 4587W        W20396   4.292  14.900   1.249  0.2026 -0.1498  0.4082
 4588W        W20397   1.498  13.441  15.146  0.1363 -0.0207  0.1267
 4589W        W20398   1.118  18.257  11.506 -0.1118  0.0458  0.0245
 4590W        W20399   1.498   1.946  14.075 -0.0999 -0.1861  0.4478
 4591W        W20400   3.968   9.599  15.638  0.3344  0.0841 -0.1123
 4592W        W20401   1.590   8.844  11.947 -0.0980  0.0091  0.3370
 4593W        W20402   9.345  18.091   2.453  0.1878 -0.4200  0.1265
 4594W        W20403   1.098   3.917   2.266  0.0369 -0.2165  0.1679
 4595W        W20404  17.409   8.258  10.223 -0.1827  0.0200  0.0713
 4596W        W20405   1.988  15.917   2.950  0.1883 -0.3599 -0.0526
 4597W        W20406   6.137  11.403  13.371 -0.1477  0.2043  0.3028
 4598W        W20407   7.183  14.906  14.127 -0.0965 -0.2110  0.0055
 4599W        W20408   6.796   5.787   4.337 -0.0107 -0.1354 -0.1368
 4600W        W20409   9.721   2.282  13.350 -0.4712 -0.2425  0.2324
 4601W        W20410  12.285  10.413   5.587 -0.1190  0.2000  0.2528
 4602W        W20411   2.795   9.566  12.977 -0.0367 -0.1258 -0.3300
 4603W        W20412   9.875  12.616   4.754  0.3113 -0.0811  0.2075
 4604W        W20413  11.338  11.592  15.618 -0.2456 -0.0215  0.2457
 4605W        W20414   6.135  10.315   1.865  0.0894  0.0048 -0.1489
 4606W        W20415   3.912   4.353  14.006  0.1016 -0.1006  0.0970
 4607W        W20416   7.161   2.251   4.219  0.1918 -0.0074  0.0505
 4608W        W20417   2.369  12.211   2.658 -0.0690  0.1033  0.1174
 4609W        W20418   2.939   6.745   5.642 -0.1020  0.0257  0.0693
 4610W        W20419  12.707   3.652  11.167 -0.1800 -0.0399 -0.2665
 4611W        W20420   2.979   5.761   3.504 -0.0532  0.2111 -0.1142
 4612W        W20421  10.255  17.574   3.977  0.0350  0.1783 -0.0932
 4613W        W20422   7.136  14.575  13.718 -0.0552  0.3126 -0.3142
 4614W        W20423   8.019   7.602   5.639 -0.0700  0.1568 -0.0049
 4615W        W20424   6.330  14.510  11.751  0.0490  0.2196  0.4337
 4616W        W20425   5.405  15.777   5.012 -0.2308  0.1566  0.0869
 4617W        W20426   2.058  11.674  10.498 -0.1819  0.6081  0.0062
 4618W        W20427  18.498   0.663   1.185  0.0635  0.0292  0.0752
 4619W        W20428   6.514  16.538  11.674  0.0415  0.1060 -0.0713
 4620W        W20429  14.254   7.250   4.975  0.2186 -0.0232 -0.3977
 4621W        W20430  13.939  12.034  10.690  0.0374 -0.2273  0.0574
 4622W        W20431   8.282   7.260  13.526 -0.0368  0.5123  0.0257
 4623W        W20432  18.560  15.736  11.161 -0.1021  0.2725  0.0378
 4624W        W20433   8.719   8.604   0.594  0.0855  0.1711  0.1902
 4625W        W20434   0.402  14.103   3.131 -0.1022 -0.1865 -0.0881
 4626W        W20435   6.004   9.929  12.376  0.3139  0.0130 -0.1532
 4627W        W20436   3.329   8.944  12.783 -0.1838  0.2108 -0.1456
 4628W        W20437   2.731   2.700   3.943 -0.2996 -0.0932 -0.2296
 4629W        W20438  18.064  11.334  12.059 -0.1392 -0.2228 -0.0969
 4630W        W20439   1.189   6.005  12.103  0.3304 -0.1175 -0.0679
 4631W        W20440   4.776   0.114  14.794  0.0116  0.0654 -0.1304
 4632W        W20441   5.894  14.938  13.338  0.1458  0.1589 -0.2034
 4633W        W20442   8.426   1.192   2.872  0.1380 -0.2680 -0.0640
 4634W        W20443   6.026  13.295   2.373 -0.1509  0.2215  0.0117
 4635W        W20444   4.910   5.293  14.450 -0.3372 -0.0626  0.1376
 4636W        W20445  11.380   7.615   2.280 -0.1120  0.2942 -0.2657
 4637W        W20446   3.043   3.418   2.294  0.0042 -0.0897 -0.2999
 4638W        W20447   6.314   2.235  15.384 -0.3847  0.0340 -0.4668
 4639W        W20448   3.299   5.858  10.319  0.0214  0.1480 -0.2752
 4640W        W20449   9.977  14.116  11.757 -0.0693 -0.0679 -0.1419
 4641W        W20450   0.695   0.522   1.833  0.0725  0.0292 -0.1104
 4642W        W20451   3.988   0.948   2.642 -0.1938 -0.1845 -0.0610
 4643W        W20452  11.851  12.997  14.017 -0.1153  0.0452 -0.1053
 4644W        W20453   2.021  18.470   5.158 -0.1107 -0.1539  0.0008
 4645W        W20454  10.536  18.381   1.100  0.2389  0.1128 -0.0489
 4646W        W20455   6.932   9.158  13.263 -0.0024  0.0852 -0.0537
 4647W        W20456  17.981   4.651   0.913  0.0235 -0.0311 -0.6318
 4648W        W20457   0.145   6.455   0.123 -0.0510  0.3080 -0.2317
 4649W        W20458   7.833   2.389   5.938 -0.2416 -0.1253  0.1176
 4650W        W20459   0.620  12.363  15.053  0.0601 -0.0431 -0.0142
 4651W        W20460   6.451  10.816   5.573 -0.0899 -0.1430 -0.0424
 4652W        W20461  11.540  10.849   4.966 -0.2819  0.0501 -0.0385
 4653W        W20462   1.012   1.752   1.203 -0.2365  0.0536  0.0862
 4654W        W20463  18.145   5.503  15.251  0.0359 -0.1101  0.0772
 4655W        W20464   3.840   7.496   2.820 -0.0737 -0.2159  0.0555
 4656W        W20465  10.608   5.737   4.605  0.0575 -0.0448  0.1092
 4657W        W20466   9.461   7.254   3.587  0.1307 -0.1645  0.0566
 4658W        W20467   4.257  15.184  12.025 -0.1375  0.2730 -0.0999
 4659W        W20468   1.168   1.986  11.337 -0.0356 -0.1405 -0.4273
 4660W        W20469  14.612  11.549  11.940  0.1906 -0.2176 -0.0619
 4661W        W20470  17.417  13.304  14.274  0.1764 -0.2552  0.1076
 4662W        W20471  11.936  11.675   4.819 -0.2377  0.0792  0.2489
 4663W        W20472   9.709  15.193  14.923 -0.0911  0.1014 -0.0285
 4664W        W20473  16.379  10.643   1.967  0.0267  0.2608 -0.0314
 4665W        W20474  18.160   0.634  14.610  0.1988  0.3447  0.1310
 4666W        W20475  14.732   4.183   3.207  0.0710 -0.0859  0.0917
 4667W        W20476  12.192   1.622   1.286  0.0184  0.0753 -0.3500
 4668W        W20477  11.255  11.623   2.029  0.0753 -0.1055 -0.0385
 4669W        W20478  10.974   5.784  14.674 -0.1073  0.0830  0.2882
 4670W        W20479   6.605  11.088   0.218  0.1340 -0.1168  0.1656
 4671W        W20480  11.721   7.893   2.011 -0.0676 -0.1163  0.1288
 4672W        W20481  15.210  13.295  10.588  0.0092  0.0396  0.0866
 4673W        W20482  18.138   4.122  14.361 -0.0213 -0.0731  0.0157
 4674W        W20483  18.049  11.551  15.381 -0.0728  0.1761 -0.0134
 4675W        W20484   1.408   8.106  12.252  0.0458  0.1101 -0.1280
 4676W        W20485  16.197   0.671   0.116  0.0504 -0.1766  0.1465
 4677W        W20486   1.069  15.880  12.989  0.1314  0.0030 -0.0658
 4678W        W20487   7.114   4.101  12.941 -0.0555  0.0251  0.3316
 4679W        W20488   6.588   7.205  12.127 -0.0381 -0.0528  0.0104
 4680W        W20489   5.425   3.146   1.093 -0.0376  0.0243 -0.1316
 4681W        W20490  18.648  12.238   4.241 -0.2375  0.2227  0.3172
 4682W        W20491  15.143  14.079   0.051  0.3279 -0.2315  0.0544
 4683W        W20492   5.504   3.592   1.167 -0.3102 -0.1801  0.0587
 4684W        W20493   1.649   9.906  10.778 -0.3463 -0.0595  0.1003
 4685W        W20494  16.466   6.164   3.902  0.1084 -0.0455  0.0131
 4686W        W20495   6.287   0.552  12.704 -0.4672 -0.2292 -0.2094
 4687W        W20496   6.453   1.720  12.667 -0.0743  0.0826 -0.1670
 4688W        W20497   4.224  12.347   1.602  0.2560 -0.0138  0.2469
 4689W        W20498   3.868   0.888   5.437  0.1392 -0.0854 -0.0071
 4690W        W20499   0.510   2.355  11.037 -0.0111  0.1074 -0.0678
 4691W        W20500   5.538  15.348   0.373  0.1684  0.2113  0.0605
 4692W        W20501   6.236   8.627   0.571 -0.1084  0.4164 -0.0864
 4693W        W20502  18.113  14.005  11.599  0.1705  0.0168  0.0554
 4694W        W20503  12.600  15.959  12.036 -0.1218 -0.0882 -0.1531
 4695W        W20504  16.456  10.803  14.242 -0.0856  0.2452  0.2012
 4696W        W20505  10.844   6.401  13.133 -0.2646 -0.2172  0.0661
 4697W        W20506  16.435  16.807   2.007  0.0202 -0.5192 -0.0914
 4698W        W20507   1.753  10.566   4.176  0.2719  0.1373 -0.1258
 4699W        W20508   9.394  14.062  10.637 -0.0968 -0.1348  0.0408
 4700W        W20509   8.821   3.262   0.520  0.1379 -0.0786 -0.0362
 4701W        W20510  18.229  18.595   1.008 -0.0669 -0.1926 -0.2139
 4702W        W20511   4.477   5.899  15.566 -0.0798  0.1453  0.3258
 4703W        W20512  17.782  12.782  12.925  0.2984 -0.0236  0.1863
 4704W        W20513   1.047   2.050   3.282 -0.0929 -0.1227  0.1112
 4705W        W20514  17.530  18.097   1.541  0.0311 -0.2270 -0.0953
 4706W        W20515   1.393   8.362  11.824  0.2078  0.0089  0.0299
 4707W        W20516  10.536  16.843  13.769 -0.0650  0.0208  0.1312
 4708W        W20517  13.957   3.560  14.347  0.4970  0.2756 -0.1494
 4709W        W20518   8.525   9.329   0.379  0.1608 -0.1467  0.0400
 4710W        W20519  15.785   1.132   0.902  0.2506  0.2631  0.4185
 4711W        W20520   2.428  16.181   1.100  0.1879  0.0693  0.1133
 4712W        W20521  18.265   3.837  11.200 -0.3204  0.1827  0.1491
 4713W        W20522  14.753   2.848   3.893  0.1450  0.0202 -0.0084
 4714W        W20523  17.623  16.849  12.266  0.2250  0.2137 -0.3073
 4715W        W20524  17.089   0.656  11.795  0.0652  0.1385  0.2564
 4716W        W20525  11.367   3.806   1.504 -0.1215  0.0068  0.3190
 4717W        W20526   6.958   9.684   3.973  0.2333 -0.0082 -0.0033
 4718W        W20527   3.905  16.403   2.111 -0.0035  0.0288 -0.2551
 4719W        W20528   2.922  17.654   1.291 -0.1190 -0.1920  0.0515
 4720W        W20529   2.058   5.168  14.026 -0.0266  0.1418 -0.5438
 4721W        W20530  18.307  16.178   2.891  0.1069 -0.0617 -0.0011
 4722W        W20531   5.499   1.822   1.488  0.0832  0.1024  0.0617
 4723W        W20532   1.341   1.484  14.168 -0.0014 -0.3127  0.1146
 4724W        W20533   8.249  13.678   3.112  0.1638  0.2043 -0.0408
 4725W        W20534   5.094  11.319  10.157  0.0240 -0.0447 -0.0486
 4726W        W20535  14.853  16.193   1.500  0.4789 -0.3646  0.0704
 4727W        W20536  14.106  13.613  11.689  0.0505  0.0404  0.1928
 4728W        W20537   5.094   5.068   1.407  0.0196  0.2620 -0.3034
 4729W        W20538   8.769   7.337  13.742 -0.0554  0.0729  0.0694
 4730W        W20539   8.098   4.537  12.215 -0.2290  0.1987 -0.0755
 4731W        W20540   3.499   4.209   2.087 -0.3483  0.3345  0.0478
 4732W        W20541  17.187   9.849  11.900 -0.0581 -0.0273 -0.2932
 4733W        W20542  10.769  10.055  10.429  0.3297  0.2060 -0.1456
 4734W        W20543   3.160  17.761   4.972  0.0239  0.0037 -0.2458
 4735W        W20544   1.046   1.286  14.541 -0.2208 -0.0862  0.3434
 4736W        W20545   7.323   6.504  11.172 -0.0488 -0.2860  0.0413
 4737W        W20546   7.290  17.921   5.160  0.2123  0.2853 -0.3047
 4738W        W20547  16.193  10.993   5.421 -0.1495  0.0530 -0.1073
 4739W        W20548  10.723   0.015   2.119 -0.1236  0.2047  0.1355
 4740W        W20549   4.976  14.212   4.588  0.1819 -0.0889  0.0557
 4741W        W20550   0.970  14.779   1.779 -0.1359  0.0037  0.1213
 4742W        W20551   1.430   9.300  14.915 -0.3668  0.0056 -0.0435
 4743W        W20552   2.374  14.324   4.272 -0.1783  0.1068 -0.0575
 4744W        W20553   6.179   8.674  15.729 -0.2546  0.1544 -0.1037
 4745W        W20554  10.347   7.768  13.521  0.0916 -0.1371  0.1234
 4746W        W20555   7.965   1.726  11.421 -0.3525  0.0449 -0.2841
 4747W        W20556   1.821   7.975   2.378  0.1668 -0.0162  0.3292
 4748W        W20557  16.628  15.984   3.624 -0.1497 -0.1460 -0.3489
 4749W        W20558  16.798  17.054   2.929  0.0592 -0.2953  0.0516
 4750W        W20559  10.810   6.122   2.348 -0.1767 -0.0417 -0.4872
 4751W        W20560   7.230  17.306  15.435  0.0806 -0.1160 -0.1604
 4752W        W20561   2.311   2.616  12.310 -0.1387  0.4011 -0.1012
 4753W        W20562   2.541   3.647  12.430  0.0720  0.1164 -0.2293
 4754W        W20563   1.534   1.712   1.447  0.0656 -0.0274  0.0665
 4755W        W20564  15.913  13.764  15.341  0.4072  0.0188  0.0767
 4756W        W20565  11.418   2.442   0.085 -0.1254 -0.2577  0.1389
 4757W        W20566  16.327  16.380  12.005 -0.1005  0.0679 -0.0210
 4758W        W20567   1.966  12.803  11.897 -0.2111 -0.3347 -0.0022
 4759W        W20568   1.195   6.272   3.775 -0.0473 -0.0160 -0.0577
 4760W        W20569  16.255  10.949  15.564 -0.1151  0.1550 -0.1886
 4761W        W20570   5.762   3.363  14.812 -0.0155 -0.1198  0.0593
 4762W        W20571   9.505  12.496  11.346  0.5469  0.0187 -0.0085
 4763W        W20572  18.204   0.750   1.616 -0.1645  0.3120 -0.2354
 4764W        W20573  10.920  14.820   5.848 -0.1614  0.1120 -0.2214
 4765W        W20574   9.294   4.949  10.849  0.3543 -0.2805  0.0669
 4766W        W20575   3.756   5.547  11.837  0.2629 -0.0207 -0.0974
 4767W        W20576   6.691  16.133   4.593  0.1596  0.0011  0.1865
 4768W        W20577   7.609   9.292  13.759 -0.0156  0.1183  0.1960
 4769W        W20578   2.926   9.442   4.638  0.1586 -0.0813 -0.0232
 4770W        W20579   5.332   2.251  13.183  0.0756 -0.3769 -0.1357
 4771W        W20580   1.035  14.783   2.319 -0.1238 -0.0402 -0.0731
 4772W        W20581  11.278   9.248  13.998  0.0606  0.0659 -0.2468
 4773W        W20582  12.665  18.250   4.957 -0.2742 -0.0036 -0.3450
 4774W        W20583  18.493  16.177  15.021  0.1128  0.0568 -0.2898
 4775W        W20584  10.410  11.784   2.478  0.1577  0.0818 -0.0758
 4776W        W20585   0.280  11.315   4.356  0.3415  0.1563  0.1366
 4777W        W20586   7.263   4.340   5.158 -0.0010  0.0158  0.0340
 4778W        W20587   9.885   7.383   0.367  0.0936 -0.2306 -0.1069
 4779W        W20588  10.162   2.200   0.376  0.0540  0.1739  0.0858
 4780W        W20589  10.410  12.641  11.691  0.0005  0.0878  0.2017
 4781W        W20590  11.202  10.374  12.193 -0.0876  0.0222  0.2436
 4782W        W20591   6.173  17.209  14.115 -0.2723 -0.2609  0.1714
 4783W        W20592  15.510   4.269  13.439  0.0644 -0.0655 -0.3108
 4784W        W20593   9.169  10.997  13.010 -0.2018  0.3446 -0.3465
 4785W        W20594  10.774  10.613  13.049  0.2952 -0.0209 -0.0440
 4786W        W20595   6.515   7.824  14.740  0.1664 -0.1393  0.1601
 4787W        W20596   9.854   2.257  12.436  0.4427 -0.1167  0.0398
 4788W        W20597  11.771  15.907  11.482  0.2194 -0.5923  0.2381
 4789W        W20598  10.297   9.113  13.841 -0.0948  0.0065 -0.2366
 4790W        W20599  17.433   1.476  12.460 -0.2566 -0.2611  0.3310
 4791W        W20600   2.439   3.883   0.838  0.0846 -0.3618  0.1313
 4792W        W20601  10.084  11.469  12.772 -0.1137  0.0767 -0.4346
 4793W        W20602  12.854   8.374   2.868  0.0233 -0.3309 -0.0700
 4794W        W20603   2.630   3.342   3.580 -0.0171 -0.1930  0.3484
 4795W        W20604   8.089  12.752   3.315 -0.0914  0.0398 -0.0163
 4796W        W20605  15.210  14.070  10.326 -0.0254  0.1498 -0.0560
 4797W        W20606  10.865   1.254   2.636  0.0213  0.0820 -0.0639
 4798W        W20607  15.567   5.425  11.663  0.0204  0.2314 -0.0553
 4799W        W20608   8.354   1.155  13.640  0.0691  0.2150  0.1268
 4800W        W20609   0.268   5.044   0.523  0.1141 -0.2345 -0.0577
 4801W        W20610   4.591  15.234  13.183  0.0447  0.1286  0.1969
 4802W        W20611   2.995  12.342   3.499  0.1238  0.0956 -0.0075
 4803W        W20612   5.098  15.077  13.403 -0.1144  0.1089  0.3858
 4804W        W20613   1.676  11.712  12.703 -0.1569  0.0113  0.2526
 4805W        W20614   2.075  17.106   0.270 -0.0546 -0.0250 -0.4355
 4806W        W20615   5.854  16.603   3.146  0.2964 -0.2105 -0.0807
 4807W        W20616   6.164  12.668   0.864 -0.1034  0.2975  0.0563
 4808W        W20617  13.668  17.685  14.261 -0.0274  0.0205  0.0647
 4809W        W20618   0.652  11.595  12.578  0.1156  0.1921  0.2560
 4810W        W20619   0.610  13.803  13.592 -0.1522  0.2068 -0.0500
 4811W        W20620   3.169  17.986  13.594  0.0749  0.1020 -0.0806
 4812W        W20621   9.606   1.513  13.902 -0.0040 -0.1736 -0.0186
 4813W        W20622   9.956   8.815   2.558 -0.0528 -0.0583 -0.0239
 4814W        W20623   3.114  14.288   2.006  0.1740 -0.0097 -0.0225
 4815W        W20624  11.612   0.957   0.559 -0.0093  0.1385 -0.2232
 4816W        W20625   2.647  10.895  13.190  0.1212  0.0279  0.1455
 4817W        W20626  13.759   9.331  15.480  0.0345  0.2492 -0.1480
 4818W        W20627  13.780   4.589   5.017 -0.1391  0.3145  0.3088
 4819W        W20628  10.656  18.525  11.461 -0.2654  0.2845 -0.0579
 4820W        W20629  15.498  16.375   1.846  0.0242  0.5652 -0.2282
 4821W        W20630   0.983  15.026  11.763  0.1458 -0.3617  0.1179
 4822W        W20631   7.367   2.524   5.641  0.2461 -0.0789  0.0706
 4823W        W20632   6.864  15.553   1.157  0.1130  0.2479  0.2204
 4824W        W20633   4.717  14.719   4.585 -0.0538 -0.0648  0.1081
 4825W        W20634  12.625  15.988  10.484 -0.1274  0.0304 -0.2519
 4826W        W20635  14.759   5.605  12.476 -0.1982 -0.0399  0.2162
 4827W        W20636  17.429   7.658  14.792 -0.2522 -0.1271 -0.1570
 4828W        W20637  11.452  12.447   9.668 -0.1211  0.4730  0.0688
 4829W        W20638   5.263   5.352   5.234  0.1128  0.0564  0.1913
 4830W        W20639   7.717   6.948  15.461  0.1425  0.1154 -0.4639
 4831W        W20640  12.277   8.383  14.979  0.0256 -0.0490 -0.0579
 4832W        W20641   2.514   8.228  15.724 -0.0102  0.1094 -0.2744
 4833W        W20642  16.928   6.686  13.007 -0.3203  0.2706 -0.1394
 4834W        W20643   7.308  15.777  10.888  0.0559  0.0580  0.0505
 4835W        W20644   2.123  16.469   0.812  0.2001 -0.0309 -0.0666
 4836W        W20645  13.782  12.961   0.070  0.1262 -0.4125 -0.3151
 4837W        W20646   4.728   9.016   4.396 -0.1954 -0.2581  0.1229
 4838W        W20647   4.376   4.664  13.717  0.1312 -0.1467  0.0849
 4839W        W20648  13.579   2.638   0.759 -0.0678  0.1885  0.3070
 4840W        W20649  16.416  10.851   3.838  0.0377 -0.0318  0.0701
 4841W        W20650   7.700   5.452  15.265 -0.1807 -0.1280 -0.1822
 4842W        W20651  14.963  16.371  12.510 -0.0144 -0.0309  0.0042
 4843W        W20652   2.355   7.245  11.558 -0.3034 -0.1529 -0.2311
 4844W        W20653  11.994   6.195   2.243  0.0738  0.0343 -0.0255
 4845W        W20654   2.385  15.426  12.495 -0.2070  0.0319 -0.0742
 4846W        W20655  12.672  10.237  14.798  0.0829 -0.1182 -0.2014
 4847W        W20656   2.540  11.682   5.204 -0.1345 -0.2736 -0.1351
 4848W        W20657   0.274   3.271   1.925 -0.0577 -0.1282 -0.4285
 4849W        W20658   4.507  13.557  14.039  0.2562  0.1135  0.4936
 4850W        W20659   6.088   4.386   0.647  0.0146  0.2733 -0.1394
 4851W        W20660  10.349  14.215  14.244  0.0771  0.5251  0.3121
 4852W        W20661   6.066   8.361  13.507 -0.0319 -0.0075  0.0996
 4853W        W20662  18.461   7.903   4.191  0.1986  0.1808 -0.1614
 4854W        W20663   0.244   5.988   0.599 -0.0918 -0.0059  0.2654
 4855W        W20664   2.890   4.848   5.093  0.3776  0.6245 -0.1314
 4856W        W20665   4.491  12.757  14.993 -0.0563  0.1756 -0.2065
 4857W        W20666   7.481   4.649  14.730 -0.0587  0.0545  0.1111
 4858W        W20667  10.932   5.326  14.242  0.0480  0.0734 -0.1845
 4859W        W20668  15.144   3.285  10.358 -0.3123  0.2899  0.0005
 4860W        W20669  14.592   2.625   1.503 -0.2161  0.0900 -0.0310
 4861W        W20670   7.908  15.542  14.829 -0.3198 -0.1041  0.3591
 4862W        W20671  17.833  17.231  15.521 -0.2279  0.3405 -0.0626
 4863W        W20672  16.448  16.407  14.961  0.1298  0.1804 -0.0627
 4864W        W20673   7.423   5.916   2.817 -0.0672  0.0685  0.1068
 4865W        W20674   5.063   5.970   5.391  0.1263  0.0950 -0.0123
 4866W        W20675  16.250  15.678   3.549 -0.0510  0.1190 -0.0563
 4867W        W20676  11.646   7.279   3.273  0.2538  0.2013 -0.1541
 4868W        W20677  16.478  15.932  11.300 -0.1634  0.0572 -0.1428
 4869W        W20678   0.241  13.441  14.005 -0.1601 -0.3027  0.3161
 4870W        W20679  12.461  13.755  13.037 -0.0761  0.0859  0.0821
 4871W        W20680  15.464   3.271   0.688  0.1415 -0.0832 -0.1803
 4872W        W20681   6.911   5.704  14.056  0.2108  0.1673  0.3013
 4873W        W20682  14.262  10.331   4.889 -0.1784 -0.0015 -0.1252
 4874W        W20683   3.672  16.611   1.412  0.1382 -0.0172  0.0097
 4875W        W20684  15.968   1.944  13.273  0.0192  0.2922 -0.0630
 4876W        W20685   1.709   0.429  11.496 -0.3124 -0.1167 -0.2821
 4877W        W20686   7.868   4.310   3.321  0.0888 -0.1381  0.1189
 4878W        W20687  12.760   6.622  13.499 -0.2820  0.0159  0.0184
 4879W        W20688  16.903  17.786   3.819  0.1676 -0.0693 -0.1488
 4880W        W20689   3.377   1.811   5.499 -0.1933  0.0432 -0.3383
 4881W        W20690   8.929   8.746  10.163 -0.1058 -0.3299 -0.1200
 4882W        W20691   4.838   3.410   4.586  0.1843  0.0783 -0.3144
 4883W        W20692  11.363  11.800   5.005  0.3952 -0.1561  0.1251
 4884W        W20693   7.073   8.224   2.653 -0.2012 -0.0602  0.0892
 4885W        W20694   2.155   0.577   5.610  0.3008 -0.0708 -0.2268
 4886W        W20695  14.379  16.499  10.163  0.0945 -0.0032 -0.1203
 4887W        W20696   8.793  17.855   1.186  0.0968  0.0041  0.0538
 4888W        W20697   1.999  18.377  12.636  0.0993  0.2230 -0.0806
 4889W        W20698   6.591  10.027  15.697  0.0161  0.0558  0.0332
 4890W        W20699   3.414   5.250  11.525 -0.0146  0.0729 -0.1801
 4891W        W20700  12.940   2.570  11.785 -0.0331 -0.0738  0.0860
 4892W        W20701  10.398   3.362   1.502 -0.4380  0.0870 -0.2759
 4893W        W20702   1.314   7.999  13.676  0.1331 -0.1986 -0.3391
 4894W        W20703  12.481  12.578   1.362  0.1723 -0.0690  0.1283
 4895W        W20704   1.507   9.604   0.180 -0.1615  0.1693  0.1477
 4896W        W20705   4.590   4.259   1.244  0.2874  0.3967 -0.0171
 4897W        W20706  17.831   0.155  10.606  0.0147 -0.1309  0.2919
 4898W        W20707   7.922  13.520   4.043  0.0772 -0.2034  0.1596
 4899W        W20708   0.087   7.708   0.765 -0.2177  0.1823 -0.1498
 4900W        W20709  18.204   9.990  14.326  0.0418 -0.1317 -0.2526
 4901W        W20710   3.232   9.087   3.015 -0.3841  0.3669 -0.1376
 4902W        W20711  12.347  14.737   1.418  0.0601  0.2232 -0.0303
 4903W        W20712  11.432  14.409   2.504 -0.2375  0.0080  0.1263
 4904W        W20713  13.520   9.117   4.224 -0.4098 -0.0846 -0.1034
 4905W        W20714   9.665   1.622  15.166  0.3804 -0.2205 -0.2278
 4906W        W20715  18.034  12.255   0.248  0.0540 -0.1980  0.0736
 4907W        W20716  10.102  18.493   0.240 -0.1861 -0.3833 -0.0787
 4908W        W20717   8.525  16.308  15.207 -0.1248  0.2919  0.0318
 4909W        W20718   8.160   7.604   5.044 -0.0128 -0.0957 -0.2442
 4910W        W20719  11.973  14.934   1.702 -0.0730 -0.0556  0.0063
 4911W        W20720   6.224   1.939  14.281  0.0871  0.1755 -0.2106
 4912W        W20721   8.000  17.801   1.678 -0.0708  0.0925 -0.1081
 4913W        W20722   2.095   0.916   4.940  0.0387 -0.3666  0.1754
 4914W        W20723  16.274   2.108  13.578 -0.0698 -0.1008 -0.1459
 4915W        W20724   1.077   5.149   2.967  0.2065  0.3550  0.0108
 4916W        W20725  14.198   0.907   3.331 -0.1907 -0.1456  0.0421
 4917W        W20726   8.734  12.434  15.393 -0.0731 -0.0368 -0.5487
 4918W        W20727   9.020  11.754  14.799  0.0578 -0.0733 -0.1248
 4919W        W20728   2.013   7.325   2.141  0.1314 -0.1973 -0.3309
 4920W        W20729   7.817   8.029   1.997 -0.2364 -0.2505 -0.0934
 4921W        W20730   7.601   6.982  13.315  0.1114  0.0199 -0.0042
 4922W        W20731  10.044  12.661  15.086  0.0724  0.1562  0.0922
 4923W        W20732  15.882  11.186   4.494  0.3690  0.2811  0.1246
 4924W        W20733   8.378   7.817   2.612 -0.3064  0.0548  0.1616
 4925W        W20734  17.691   7.974   2.262 -0.2430  0.0198  0.3657
 4926W        W20735  16.497  10.679   1.027 -0.2779 -0.1482  0.0341
 4927W        W20736  18.178  18.178  10.326 -0.1113 -0.3330  0.1375
 4928W        W20737   2.282  14.504  15.557 -0.0478  0.0366 -0.2872
 4929W        W20738   6.771   4.390   4.782  0.2739 -0.1041 -0.0678
 4930W        W20739   5.869  10.902  13.245 -0.0209 -0.3622 -0.1204
 4931W        W20740  13.598  16.555   2.718 -0.0519 -0.1221 -0.3424
 4932W        W20741   7.609  11.231  12.201 -0.0166 -0.0661 -0.2273
 4933W        W20742   4.235   0.872  15.633  0.2468 -0.1677  0.1498
 4934W        W20743   9.860   1.406   3.317  0.4205 -0.2092  0.1156
 4935W        W20744   9.970   9.496  12.638  0.2535 -0.2838  0.1326
 4936W        W20745  12.197   8.825  13.643 -0.1197 -0.2887 -0.2491
 4937W        W20746   6.795  10.754   1.573  0.1962 -0.0529  0.2968
 4938W        W20747  12.238  16.526   1.229  0.0316  0.1450  0.1778
 4939W        W20748   8.084   8.682  11.991 -0.1064 -0.1021  0.4227
 4940W        W20749  14.753   5.439  11.320  0.2248 -0.0674  0.1390
 4941W        W20750   4.095   6.915   2.830 -0.0843 -0.0563  0.0207
 4942W        W20751  18.465   6.045   2.223  0.3907 -0.1725  0.2283
 4943W        W20752  15.674  12.661  14.434 -0.3477 -0.1285 -0.2160
 4944W        W20753   0.322  12.599  14.540 -0.0860 -0.2229 -0.0364
 4945W        W20754  13.763   3.797  12.972 -0.0186 -0.2610  0.1087
 4946W        W20755  17.225   9.850   4.333  0.5072 -0.3365  0.1038
 4947W        W20756  13.587   4.646   4.209 -0.0585 -0.6819 -0.0563
 4948W        W20757   8.857   1.294   4.967  0.0267 -0.1088 -0.0627
 4949W        W20758   3.282  12.401  12.437  0.0047 -0.1450  0.0948
 4950W        W20759   5.645   2.992  15.077 -0.1122  0.1495 -0.2280
 4951W        W20760   1.977   4.568  12.840  0.2077 -0.0077  0.1638
 4952W        W20761   1.182  14.815   3.333 -0.1228 -0.0163 -0.0760
 4953W        W20762  16.110  13.015  14.843 -0.2552 -0.2350 -0.0026
 4954W        W20763   6.646   5.095   3.953 -0.0780  0.0904 -0.1560
 4955W        W20764  17.265  13.898  10.801 -0.0708  0.1717 -0.0575
 4956W        W20765  15.117  17.536   2.895 -0.2851 -0.1583 -0.0700
 4957W        W20766  15.828   1.639   3.938  0.0703  0.1349  0.0078
 4958W        W20767   1.235   8.725   2.903 -0.1305  0.2308 -0.1427
 4959W        W20768   3.027  11.340  13.870 -0.2096  0.1796 -0.1580
 4960W        W20769  12.974   0.949   1.316  0.1464  0.0533  0.0592
 4961W        W20770   2.957   5.310   2.751  0.3161  0.1262 -0.0019
 4962W        W20771  17.417  13.843   3.773  0.2200  0.0805  0.2781
 4963W        W20772   2.488  13.809  14.058 -0.1878  0.2101  0.0163
 4964W        W20773   8.478  14.706   1.246  0.1246  0.1328  0.4004
 4965W        W20774   8.015   8.239  12.828 -0.0893  0.1933 -0.1673
 4966W        W20775   4.960   3.412  12.367 -0.1551  0.0340 -0.1096
 4967W        W20776  12.469   0.732  11.356 -0.2479 -0.3238 -0.2673
 4968W        W20777   9.329  13.612  11.616 -0.0277  0.0901  0.4449
 4969W        W20778  14.237   2.585   2.494 -0.2300 -0.2655  0.1215
 4970W        W20779  10.479   3.465  15.494 -0.2669  0.3533 -0.1761
 4971W        W20780   9.452   2.745  13.173 -0.2296  0.0634  0.1033
 4972W        W20781   6.122  13.420   4.426  0.2125 -0.0743 -0.0626
 4973W        W20782  10.413  11.508  13.482 -0.0867  0.1500  0.1515
 4974W        W20783   2.415   3.490   2.878 -0.0727 -0.1566  0.2030
 4975W        W20784   0.901   0.370   1.137 -0.0194 -0.3035  0.0598
 4976W        W20785   8.691  15.357   6.061 -0.1893 -0.0155  0.0469
 4977W        W20786  10.032  14.253   3.445  0.2655 -0.0374  0.0267
 4978W        W20787   1.229  16.479   4.770 -0.1896  0.0859 -0.0171
 4979W        W20788  11.910   7.963  10.725  0.0491 -0.0015  0.0216
 4980W        W20789  13.394  14.235  10.729 -0.0264 -0.1204 -0.1938
 4981W        W20790   4.352   2.035   2.871  0.1596  0.1758 -0.0081
 4982W        W20791  14.225   8.231  11.191 -0.0798  0.2152 -0.0586
 4983W        W20792  17.326   1.552  13.469  0.1969  0.2079  0.2165
 4984W        W20793   5.000   2.301   0.350  0.0496 -0.0178  0.4218
 4985W        W20794   3.238   5.601   1.195  0.0830  0.0225 -0.2480
 4986W        W20795  16.044   6.846  11.792  0.1799  0.2278  0.0629
 4987W        W20796   8.053   2.847  13.404  0.1408  0.1985  0.2890
 4988W        W20797  15.382  15.539  12.751  0.0852 -0.0678  0.0129
 4989W        W20798   6.090   1.308   5.769  0.2680 -0.0343  0.2031
 4990W        W20799   0.407  14.233  10.043  0.2587 -0.2686  0.1252
 4991W        W20800  16.691  13.535  12.055  0.1385  0.2980  0.2060
 4992W        W20801  14.660  17.347  12.314 -0.0818  0.1934 -0.0837
 4993W        W20802  10.721   5.954  13.027  0.0022  0.1030 -0.0595
 4994W        W20803  10.067  14.740   2.499  0.2455  0.0819 -0.0948
 4995W        W20804   7.547   4.493   1.428  0.0486 -0.1873  0.0991
 4996W        W20805  13.079  13.901  15.536  0.1748  0.3380  0.1180
 4997W        W20806   5.838  15.419  12.684 -0.0804  0.1520  0.0090
 4998W        W20807   1.309  16.998   5.295  0.0138  0.1987  0.1382
 4999W        W20808   3.471   3.535  11.420  0.2212 -0.0793  0.0385
 5000W        W20809  11.162  14.407   4.080  0.2738  0.1141  0.0952
 5001W        W20810   7.379  10.445  10.977  0.4425  0.0787  0.2234
 5002W        W20811   1.677   2.582   4.896  0.0354 -0.0035  0.2952
 5003W        W20812   3.708  18.522  11.823  0.0980  0.1303  0.2021
 5004W        W20813  16.700  14.706   3.577 -0.0153 -0.0347 -0.0478
 5005W        W20814   2.360   7.319  13.413  0.1680  0.1447  0.2996
 5006W        W20815  10.198   2.999   0.964  0.0614  0.1005  0.1439
 5007W        W20816   5.930   4.198  14.364 -0.0634  0.1222 -0.0799
 5008W        W20817  13.343   3.913  10.442 -0.1477  0.3264  0.0904
 5009W        W20818   6.275   4.139  14.778 -0.1788 -0.0837  0.2686
 5010W        W20819  17.865   6.596   2.464  0.1632  0.1110  0.1965
 5011W        W20820   2.423   5.926   1.912  0.1514  0.3267 -0.1524
 5012W        W20821   5.872  17.555  13.022 -0.2716  0.2893 -0.0103
 5013W        W20822  17.408  13.751   2.353 -0.0751  0.1703  0.0872
 5014W        W20823   7.577   3.416   5.677 -0.1414  0.2808  0.0768
 5015W        W20824   4.304  17.129  12.216 -0.2007 -0.1273  0.1298
 5016W        W20825   6.835  11.244   4.648  0.1252  0.1291 -0.2928
 5017W        W20826  18.591   8.716  11.272 -0.1893  0.2594 -0.2927
 5018W        W20827  11.859   3.914   2.544  0.4111  0.0562 -0.1908
 5019W        W20828   0.778   4.102   3.240 -0.2137 -0.0453 -0.0225
 5020W        W20829  11.729  15.190   4.137  0.3055 -0.1873  0.0256
 5021W        W20830   7.717  11.598   5.468 -0.0066  0.0604  0.2079
 5022W        W20831   1.347  10.235  15.090 -0.1652 -0.1067 -0.1301
 5023W        W20832  12.462  13.312   0.117  0.2058  0.2836  0.2131
 5024W        W20833  11.687   9.823  14.600 -0.0993  0.1599  0.0721
 5025W        W20834   3.341  16.471  12.116  0.2519  0.1638 -0.2542
 5026W        W20835   2.084  10.943   3.115 -0.1694  0.2775  0.1595
 5027W        W20836   4.738  16.715  12.374  0.0883 -0.2923 -0.1004
 5028W        W20837  13.166   8.005  14.212  0.0693  0.0653 -0.1194
 5029W        W20838  15.030  12.133  11.285 -0.0563 -0.1279  0.1424
 5030W        W20839  11.908  16.842  13.459 -0.0736 -0.2212 -0.0987
 5031W        W20840  14.456   0.803   1.558  0.1324 -0.2712 -0.0046
 5032W        W20841   0.534  12.838  12.359 -0.3139 -0.0281  0.1308
 5033W        W20842   5.661  16.274  12.207 -0.1647 -0.0871  0.1216
 5034W        W20843  13.242   6.490  14.907 -0.4534  0.1765 -0.2614
 5035W        W20844   2.181  15.138   1.183 -0.1891 -0.0326 -0.4361
 5036W        W20845  14.579   1.732  15.697 -0.0636  0.1911  0.2427
 5037W        W20846  13.373   2.131   1.735 -0.1204  0.1025 -0.0859
 5038W        W20847  10.014   4.001   3.420 -0.0936 -0.0068  0.0392
 5039W        W20848   1.792   1.426   5.653  0.0264  0.0240 -0.4769
 5040W        W20849   7.762  18.469  10.461  0.1923  0.0888  0.1285
 5041W        W20850  12.140  12.144   2.406 -0.1906  0.0194 -0.1218
 5042W        W20851  16.037   3.453   1.380 -0.2109  0.0267 -0.0002
 5043W        W20852  16.392  17.427   9.982  0.2542 -0.0961  0.0556
 5044W        W20853  15.224   0.451   4.368 -0.0773 -0.2097  0.0232
 5045W        W20854   7.222  12.120  12.113  0.1654  0.0424  0.0488
 5046W        W20855   1.316  13.268  15.567  0.3765  0.2337 -0.0441
 5047W        W20856   0.892   8.956  14.301  0.0253 -0.1694  0.0356
 5048W        W20857  11.335   7.731  11.146  0.4586  0.1229 -0.0462
 5049W        W20858  16.408   2.357   3.120 -0.0073 -0.1679 -0.0102
 5050W        W20859   2.812  17.183   5.576  0.1532  0.0050 -0.3651
 5051W        W20860  17.808   2.476   4.021  0.1648  0.1212  0.4265
 5052W        W20861   5.264   3.378  14.764 -0.0443 -0.2702  0.0033
 5053W        W20862   6.754   6.590   3.473  0.1038 -0.1594  0.0013
 5054W        W20863   6.875   3.478   3.684  0.2158 -0.3888 -0.0592
 5055W        W20864   4.518  16.159   1.295  0.0251 -0.0447 -0.2600
 5056W        W20865   2.080   6.141   3.618 -0.3894  0.1012  0.0449
 5057W        W20866   4.886   4.477  11.022 -0.0277 -0.0603 -0.0929
 5058W        W20867   7.308   5.285  13.901  0.0002 -0.1129  0.0020
 5059W        W20868  13.592  11.848   1.100 -0.0809  0.0142 -0.1966
 5060W        W20869   5.680   3.322  13.407 -0.0996 -0.0338 -0.2372
 5061W        W20870   5.861  11.123  13.741  0.0960 -0.0461  0.0584
 5062W        W20871  10.525  14.939   1.100  0.2345 -0.2414 -0.0702
 5063W        W20872  16.288   8.600   4.295  0.0905  0.0900 -0.0878
 5064W        W20873  15.505  11.245  15.017  0.1371 -0.2766 -0.2416
 5065W        W20874  16.428  17.327   1.143  0.0023 -0.1654  0.0618
 5066W        W20875   6.787   9.975  14.413  0.2281 -0.1650 -0.1376
 5067W        W20876  11.548  11.373  11.296 -0.0059 -0.1835 -0.0802
 5068W        W20877   5.282  18.235   0.320  0.0774 -0.1570 -0.2314
 5069W        W20878  16.351  18.317  11.263  0.5205 -0.1140  0.3183
 5070W        W20879  16.873   2.386  10.773 -0.3569  0.0128  0.1052
 5071W        W20880  16.144   8.620   1.329 -0.4082  0.2510 -0.2014
 5072W        W20881  10.393   0.640   9.696 -0.0080  0.1950 -0.3164
 5073W        W20882  12.775   6.602  11.516 -0.2283  0.1735 -0.0959
 5074W        W20883  14.963   6.435  13.548 -0.2609  0.3042  0.1485
 5075W        W20884  11.373   0.469  15.261  0.0281 -0.2208  0.0537
 5076W        W20885  17.946   4.849   2.857 -0.1046  0.2368  0.2076
 5077W        W20886   8.122  16.026  14.417 -0.1012  0.1507  0.1618
 5078W        W20887   6.817  18.492   2.434  0.1171 -0.0537  0.0662
 5079W        W20888  10.488  13.926   0.287 -0.0836  0.4003 -0.0266
 5080W        W20889  16.789  13.912   3.233  0.4231 -0.0029 -0.0346
 5081W        W20890  10.855   8.565   1.479  0.1086 -0.0222  0.1195
 5082W        W20891  10.795   0.187  14.629 -0.2771  0.3466  0.3836
 5083W        W20892  18.597   8.152  14.379 -0.1330  0.0692  0.2684
 5084W        W20893  14.197  10.407  15.367  0.1627 -0.0639  0.1621
 5085W        W20894  17.920   6.166  11.416 -0.1712 -0.1801  0.1304
 5086W        W20895  16.124  15.048  14.787 -0.0135 -0.1080 -0.2311
 5087W        W20896  14.404   9.233  11.951 -0.0949 -0.2704 -0.0782
 5088W        W20897   5.358  16.678  15.264  0.2115  0.2558 -0.3369
 5089W        W20898   1.005  14.256   2.507 -0.2286 -0.0135  0.4477
 5090W        W20899  16.107   1.559   0.191 -0.0265  0.1660  0.0958
 5091W        W20900  18.302   2.550   2.004  0.0904 -0.0292 -0.0891
 5092W        W20901  11.956  17.640   4.807  0.2834  0.1595  0.0855
 5093W        W20902  16.054  11.910  11.790  0.1578 -0.0573 -0.0343
 5094W        W20903  14.638   4.123  11.754 -0.1661 -0.0312 -0.0444
 5095W        W20904  15.976  16.304   4.026  0.1781 -0.1987  0.1631
 5096W        W20905  11.742   5.543  12.387 -0.2567  0.0226  0.0762
 5097W        W20906   1.965  17.960   2.309  0.0545 -0.0119 -0.1789
 5098W        W20907   7.533   3.002   2.631 -0.0540  0.0703 -0.1355
 5099W        W20908  18.580   9.049   4.758  0.0506  0.0907 -0.0468
 5100W        W20909   4.630  18.289  15.043  0.0009  0.1598 -0.1645
 5101W        W20910   7.227  14.518   2.504  0.0226 -0.0331 -0.1990
 5102W        W20911  11.159   6.264   3.344 -0.0168 -0.2578 -0.1172
 5103W        W20912   4.931   7.689   1.586  0.0040  0.0458  0.0823
 5104W        W20913  10.947   0.975  14.141 -0.1914  0.0231  0.4208
 5105W        W20914  13.682   4.673  13.128  0.1601 -0.0027 -0.3536
 5106W        W20915  18.636   2.905  11.684  0.0584  0.1945  0.2150
 5107W        W20916   0.360   6.880  14.736  0.0346 -0.4459  0.2225
 5108W        W20917   8.871  14.185   0.168 -0.1469 -0.2679  0.1584
 5109W        W20918   8.042   4.704   2.561 -0.2295  0.1094 -0.2254
 5110W        W20919  15.602   6.825  15.502  0.3402 -0.0039  0.3031
 5111W        W20920   3.263  16.921   2.342 -0.1324  0.1119 -0.1558
 5112W        W20921   7.545   0.545  13.705  0.1182  0.2633 -0.1597
 5113W        W20922  12.622  16.151  11.250 -0.0247 -0.4375 -0.0346
 5114W        W20923  18.399   8.041   0.491 -0.2830  0.0375 -0.1011
 5115W        W20924  11.662  13.551   2.047  0.1129 -0.1284 -0.1460
 5116W        W20925   1.393   8.622   1.736  0.2859  0.1550 -0.0091
 5117W        W20926  10.431   9.818  10.777 -0.1480  0.0539  0.2613
 5118W        W20927  18.083   6.226  12.411  0.1269 -0.0214 -0.0074
 5119W        W20928   6.171   6.347   2.493 -0.3458 -0.0249 -0.3944
 5120W        W20929  16.573  17.513  15.274  0.0405  0.3249  0.0899
 5121W        W20930   8.471   6.588  12.833 -0.1859  0.2495 -0.2659
 5122W        W20931  16.544   3.471   1.487 -0.0950  0.0258 -0.1609
 5123W        W20932  16.746  13.878   1.142 -0.1541 -0.1528  0.0729
 5124W        W20933  11.230   4.915  14.194  0.0500  0.2223 -0.1712
 5125W        W20934  18.652   4.787   5.966  0.0698  0.1811 -0.1553
 5126W        W20935   3.504  12.169   3.780 -0.1925  0.1432 -0.3113
 5127W        W20936   6.349  17.349   3.960 -0.0898  0.0454 -0.0023
 5128W        W20937   0.110  12.810  12.703 -0.1164  0.4190  0.0321
 5129W        W20938   6.001   9.023   6.313 -0.0149  0.0076  0.0114
 5130W        W20939  13.430   3.815   4.702  0.0861 -0.3970  0.1242
 5131W        W20940  10.416  18.398  13.714 -0.0885  0.2096 -0.2337
 5132W        W20941   1.281  17.456   5.489 -0.2550 -0.1688  0.2556
 5133W        W20942  14.529  15.922   4.201 -0.0118 -0.1210  0.0977
 5134W        W20943  14.219   6.827   1.305  0.2576 -0.0345  0.3172
 5135W        W20944   3.509   2.383  12.371  0.1366 -0.1355 -0.0923
 5136W        W20945   6.149  10.095   3.350  0.2558  0.2013 -0.1274
 5137W        W20946   6.367   4.629   3.778  0.1941 -0.0544  0.0284
 5138W        W20947  14.441  12.799  13.359  0.5407  0.0039  0.1160
 5139W        W20948  13.217   1.058  11.710 -0.1982 -0.0929 -0.1682
 5140W        W20949   7.227   5.381   2.375  0.1077  0.1538  0.1792
 5141W        W20950   4.426   1.993  11.484 -0.1276  0.1001 -0.2489
 5142W        W20951  15.406   7.978  11.446  0.5559  0.1363 -0.1485
 5143W        W20952   0.766  11.475  11.672 -0.2095  0.1674 -0.0201
 5144W        W20953   2.846  18.064  15.069  0.1062 -0.0686 -0.2048
 5145W        W20954   3.775   3.962  12.482 -0.0724  0.1305  0.2560
 5146W        W20955   0.565  10.199  13.931  0.1057  0.1290  0.0177
 5147W        W20956   1.410  16.865   0.760  0.3257  0.1724  0.2822
 5148W        W20957   6.659   7.933   5.319 -0.4050  0.1497 -0.4407
 5149W        W20958   6.072   2.817   2.644  0.1203  0.1470 -0.0969
 5150W        W20959   1.935   2.646   1.181  0.2068 -0.2676 -0.2382
 5151W        W20960  13.671  10.031   4.498  0.2247  0.0701  0.0418
 5152W        W20961   5.096   6.028   4.550 -0.0795 -0.0509 -0.0400
 5153W        W20962   7.926  17.659   3.239  0.0955  0.0861  0.2577
 5154W        W20963  10.460   8.197  12.104 -0.4914  0.1384  0.2776
 5155W        W20964  13.755   2.834   2.520  0.3388  0.0554  0.5255
 5156W        W20965  13.303   5.674  14.361  0.0467  0.0304  0.0343
 5157W        W20966  18.223   6.552   5.327 -0.1140 -0.0571 -0.0867
 5158W        W20967  12.835  14.103  14.453  0.0315  0.1472 -0.1701
 5159W        W20968   7.986  14.390  12.085  0.1597  0.1054 -0.1767
 5160W        W20969  15.794  15.395   3.504  0.0916  0.2703  0.0661
 5161W        W20970   7.404   1.331   1.849  0.2866 -0.0695  0.1849
 5162W        W20971  17.128   7.702   5.028  0.0474  0.1091 -0.0274
 5163W        W20972  11.201   8.169   1.430 -0.1735 -0.0950 -0.0112
 5164W        W20973  13.081   3.669   2.977 -0.2499  0.2481 -0.0123
 5165W        W20974   0.045  12.729  12.172 -0.1642 -0.1952 -0.2329
 5166W        W20975   5.459   7.646  13.576 -0.0952 -0.1101 -0.0294
 5167W        W20976   1.019   6.903  13.639 -0.0668  0.0427 -0.1089
 5168W        W20977   9.485  15.363  11.120 -0.0585  0.0306 -0.0789
 5169W        W20978   1.854  10.265  15.221  0.0994  0.0867  0.2529
 5170W        W20979   1.906   6.910   0.955  0.0671  0.5268 -0.1801
 5171W        W20980  13.606   1.643   5.013  0.1302  0.1685 -0.0681
 5172W        W20981   9.601   5.693  12.484 -0.2501 -0.1605 -0.2970
 5173W        W20982  13.987  10.631  11.636 -0.0811 -0.0400 -0.1182
 5174W        W20983  12.769  14.228  13.067 -0.2687  0.0355 -0.3841
 5175W        W20984   3.251   4.973  15.743  0.2257 -0.2575  0.0801
 5176W        W20985  16.535   5.096  11.186 -0.2388 -0.1985  0.6722
 5177W        W20986   0.521   7.433   5.833  0.2605  0.1934 -0.2015
 5178W        W20987  13.073   7.600  14.541 -0.1371  0.2695  0.0376
 5179W        W20988   0.582  12.379   5.316 -0.0982  0.2552  0.2131
 5180W        W20989   5.993  13.227  11.100  0.5108 -0.1456 -0.0923
 5181W        W20990   3.475   2.600   1.107  0.0254  0.4468  0.2792
 5182W        W20991   2.497   9.945   3.967 -0.1487  0.0176 -0.0357
 5183W        W20992  18.546   6.701   3.201 -0.2417 -0.0596  0.0422
 5184W        W20993   2.586  17.818   0.319  0.1671 -0.2382 -0.0927
 5185W        W20994   3.077   2.327  12.710 -0.4365 -0.0342  0.1691
 5186W        W20995  16.243  15.845  10.315 -0.2100  0.3149 -0.0283
 5187W        W20996   4.165  10.513   1.959  0.1125  0.0305  0.2785
 5188W        W20997   8.097  11.111  14.759  0.0047 -0.3028  0.3798
 5189W        W20998   4.383  17.239   1.473  0.0665 -0.3209  0.2139
 5190W        W20999   2.158  13.850   4.248  0.0458 -0.3088 -0.2850
 5191W        W21000  15.119   2.563  11.457  0.1693  0.1631  0.0108
 5192W        W21001  11.341   6.790   1.596 -0.1666 -0.0120  0.1456
 5193W        W21002  17.287  14.606   4.243 -0.0840  0.1949 -0.1995
 5194W        W21003   9.329   1.312  11.607 -0.1086 -0.1514  0.0099
 5195W        W21004   4.666  15.667   1.117  0.0565  0.0248  0.0389
 5196W        W21005   1.963  10.559  14.276 -0.0349 -0.1821  0.1537
 5197W        W21006   9.640   0.274   1.354 -0.1412  0.1939 -0.0217
 5198W        W21007   0.872   5.579   1.027  0.1664  0.1800 -0.4044
 5199W        W21008  16.810   4.677   5.195  0.0547 -0.0258  0.1155
 5200W        W21009  13.753  18.448  11.305  0.0239  0.0393 -0.2048
 5201W        W21010  13.831  10.594   4.723 -0.0088 -0.1498 -0.2364
 5202W        W21011  16.635   8.218  11.532  0.0256  0.1671  0.0848
 5203W        W21012   9.746   2.747   4.787 -0.3300  0.2261 -0.1935
 5204W        W21013  12.223  12.124   4.758 -0.0107  0.0888 -0.2199
 5205W        W21014   6.284  18.358   1.848 -0.0959  0.1074 -0.2088
 5206W        W21015  14.364   1.883  12.201  0.1468  0.0587 -0.2040
 5207W        W21016  15.699   4.020  13.955 -0.0327 -0.0293  0.0507
 5208W        W21017  12.759   2.191  12.462 -0.0565  0.1237 -0.3761
 5209W        W21018   3.300  12.413   1.072  0.0560 -0.2143  0.1498
 5210W        W21019   8.472  16.808  12.561  0.1121 -0.0170 -0.2306
 5211W        W21020   5.507   4.437   4.661 -0.1203  0.0784 -0.0729
 5212W        W21021   6.285  15.209   4.578  0.1197 -0.1703 -0.0609
 5213W        W21022   3.784   9.115  13.743  0.0166 -0.1099 -0.0529
 5214W        W21023  14.821  15.707   2.344 -0.1126 -0.1216 -0.3219
 5215W        W21024  11.260   8.496  13.580 -0.0972  0.0019 -0.0402
 5216W        W21025   6.531  12.471  13.206  0.2071 -0.0205  0.0735
 5217W        W21026  17.542   7.677   0.933  0.1005  0.0786  0.1829
 5218W        W21027  12.920  14.454   5.376 -0.0413  0.1282 -0.0358
 5219W        W21028  13.000  18.536  12.752 -0.0912 -0.1940  0.0835
 5220W        W21029  16.087  14.620  12.611 -0.0296  0.0388 -0.2269
 5221W        W21030   7.612  12.060   4.097 -0.1946 -0.0141 -0.3295
 5222W        W21031   1.324  16.732  11.976  0.1031  0.1489 -0.1525
 5223W        W21032  10.606  11.347   2.605 -0.0522  0.0500 -0.2483
 5224W        W21033  18.614   1.692   0.186 -0.0984  0.2135  0.3241
 5225W        W21034   9.779   9.000  14.564 -0.3381 -0.0686  0.0933
 5226W        W21035   8.138  16.462   4.546  0.1956 -0.2419 -0.2122
 5227W        W21036  11.687   3.851   3.709  0.0240 -0.2256 -0.2583
 5228W        W21037  14.604   3.620   4.561 -0.2888  0.4013  0.0078
 5229W        W21038  13.805   3.409  13.349 -0.3464  0.3088  0.0734
 5230W        W21039   3.719   2.374  10.654  0.0911 -0.0162 -0.0737
 5231W        W21040   2.139  16.864  12.429  0.2408  0.0060  0.1839
 5232W        W21041  14.348   0.948  14.306  0.4176 -0.1137 -0.0148
 5233W        W21042  14.850   8.212  10.670  0.1946 -0.0788  0.1875
 5234W        W21043  14.658  18.424   1.770 -0.1268 -0.0621 -0.0219
 5235W        W21044  14.937   9.174   0.074  0.0789 -0.0449 -0.0942
 5236W        W21045  15.070  18.600  14.997  0.1495 -0.0326  0.1215
 5237W        W21046   2.897   0.797   1.673 -0.1655  0.1211 -0.1806
 5238W        W21047  16.859   1.294   5.798 -0.1700 -0.2033  0.0181
 5239W        W21048   6.392  12.134  11.411 -0.0770  0.0992  0.2335
 5240W        W21049  12.434   9.366  14.736 -0.4045 -0.1142  0.1344
 5241W        W21050  17.328   6.137  12.137 -0.3301 -0.1810 -0.1542
 5242W        W21051  15.049   2.361   2.833 -0.1451  0.0127 -0.4019
 5243W        W21052   6.447   6.541  13.563 -0.0790  0.0329 -0.1595
 5244W        W21053   6.320  11.321  12.862 -0.0756  0.0253 -0.0397
 5245W        W21054   6.231  14.159  13.506  0.1889  0.0788  0.2629
 5246W        W21055  11.041  14.729   9.412  0.0907  0.1742 -0.0479
 5247W        W21056   8.854  12.139   3.978 -0.0754 -0.0162  0.1553
 5248W        W21057  10.691   6.241   4.558  0.1442 -0.0435  0.1942
 5249W        W21058   7.677  10.425   1.315 -0.0686 -0.0933  0.1140
 5250W        W21059  13.514   0.230  12.692 -0.1890 -0.3382 -0.4055
 5251W        W21060  15.407  12.460   3.488  0.0953 -0.2559  0.0805
 5252W        W21061  17.673  16.288   0.946 -0.2342 -0.3764 -0.2462
 5253W        W21062   6.218   6.514   6.220 -0.3498  0.2869 -0.2114
 5254W        W21063   8.834  15.378   1.272 -0.1620 -0.1368 -0.0979
 5255W        W21064  14.574  11.557  14.339 -0.3785 -0.0813  0.0445
 5256W        W21065   9.744   9.970  14.865 -0.1089 -0.0751  0.3486
 5257W        W21066  13.790   2.261  14.222  0.0278  0.0898 -0.0518
 5258W        W21067   0.290   5.579  12.565 -0.1454  0.2452  0.1030
 5259W        W21068  13.102  17.204  13.502 -0.4964 -0.1441 -0.1889
 5260W        W21069   9.232   7.775  13.949  0.0347  0.0767 -0.1222
 5261W        W21070   3.843  13.815   9.617 -0.0096  0.0282 -0.0364
 5262W        W21071   7.760   9.686   0.496  0.2061 -0.1711 -0.3198
 5263W        W21072  14.775  14.620  13.430  0.0296 -0.2652  0.3168
 5264W        W21073  11.273   8.005  12.699  0.1874  0.2169  0.1674
 5265W        W21074  10.951   1.920   3.243 -0.1975  0.1775 -0.2866
 5266W        W21075   6.039  17.445   3.116  0.2107 -0.1128  0.2265
 5267W        W21076   3.804  13.968  11.974 -0.0300 -0.0353 -0.1353
 5268W        W21077  12.914  12.719   0.733 -0.0851 -0.3023 -0.1407
 5269W        W21078  13.064   5.032   4.877  0.2985  0.3608 -0.0202
 5270W        W21079  12.246  10.175  10.709 -0.0003  0.2769  0.1004
 5271W        W21080   2.814   1.017  14.488  0.4409  0.1961  0.1254
 5272W        W21081   4.254  17.201   2.069  0.2332 -0.0992  0.1814
 5273W        W21082  14.470  11.211  13.334  0.1993  0.0580 -0.0827
 5274W        W21083   0.520   9.987  15.480 -0.0801  0.0918  0.1188
 5275W        W21084   0.129   5.599   3.486  0.3408  0.0777  0.0941
 5276W        W21085  11.104  13.099  11.192 -0.0972  0.0892 -0.1194
 5277W        W21086  11.463  15.145  13.696 -0.2662 -0.1995 -0.0135
 5278W        W21087  18.360   0.812   2.076 -0.0212  0.0842  0.3279
 5279W        W21088  14.772   2.281  13.064 -0.1274 -0.2232 -0.0493
 5280W        W21089   9.634  11.988  14.394 -0.2611  0.1326  0.0420
 5281W        W21090   5.312   3.578   4.677  0.1513  0.0139  0.1654
 5282W        W21091   7.596   1.537  14.660 -0.1206 -0.3944 -0.0293
 5283W        W21092   7.332  14.908  12.676  0.3681  0.0675  0.2925
 5284W        W21093  12.933   9.385  14.668  0.1259 -0.0064 -0.2570
 5285W        W21094   6.457   3.501  12.578  0.1578 -0.0396  0.1909
 5286W        W21095  18.238  10.973  10.685  0.1118 -0.2109 -0.0611
 5287W        W21096   8.241   5.494  13.951  0.1301  0.0080 -0.1239
 5288W        W21097   8.539  11.869   4.312 -0.2124 -0.2181 -0.2277
 5289W        W21098  14.632   4.933   2.509 -0.0816 -0.1034 -0.0423
 5290W        W21099  14.936   1.745   0.783  0.1512 -0.1633 -0.2828
 5291W        W21100   3.828  17.119  10.852 -0.2255  0.0539 -0.0819
 5292W        W21101   3.845   6.382  12.542  0.2086  0.3753  0.0482
 5293W        W21102   6.899   0.583  15.266  0.0817  0.0605  0.0721
 5294W        W21103  18.390   4.603   2.214  0.0960  0.1291 -0.0877
 5295W        W21104   1.191  10.389   0.930  0.0409  0.3094 -0.1129
 5296W        W21105  15.859   1.626   1.050  0.0610  0.1145 -0.2747
 5297W        W21106   1.152   9.244   2.903  0.1746 -0.0123 -0.2185
 5298W        W21107   1.266  13.675   0.563 -0.3330 -0.3114 -0.1238
 5299W        W21108  17.156  15.766   0.097 -0.1245  0.1373 -0.0747
 5300W        W21109  16.584  16.915  13.995 -0.1313 -0.3925 -0.1030
 5301W        W21110  18.358   9.972   0.034  0.1280  0.2225  0.1707
 5302W        W21111  12.331  17.492   1.635  0.1603  0.1008  0.1492
 5303W        W21112   7.912  10.483   4.635  0.0760 -0.1574  0.0082
 5304W        W21113  16.809  13.925  13.263 -0.0399  0.0372  0.0294
 5305W        W21114  15.741   4.016  11.390 -0.2272 -0.1498 -0.0604
 5306W        W21115  17.633  15.377   0.045 -0.2853 -0.1147  0.0639
 5307W        W21116   9.295   2.658   0.717  0.4432 -0.0164 -0.0770
 5308W        W21117  14.879  10.929   4.639  0.2416  0.3060 -0.2001
 5309W        W21118   1.891   7.352  15.555 -0.0238 -0.3644 -0.1468
 5310W        W21119   4.011   1.102  11.646  0.0348 -0.0797 -0.0384
 5311W        W21120  16.699   1.163   0.874 -0.1895 -0.0333 -0.3426
 5312W        W21121   3.052  18.210  14.051  0.0177 -0.1803  0.2140
 5313W        W21122   7.239   9.482   2.852 -0.0551  0.0664 -0.1083
 5314W        W21123  10.232   8.840   5.557 -0.0530  0.0915  0.1853
 5315W        W21124  16.206   4.784  15.358 -0.1129  0.2450  0.2017
 5316W        W21125  11.725   0.388  12.859 -0.2028  0.1646 -0.4397
 5317W        W21126   7.748  18.134   5.087  0.0326 -0.1625  0.0043
 5318W        W21127  15.397  17.857  15.635 -0.0546 -0.4401 -0.1208
 5319W        W21128   8.622   2.867   2.491 -0.0908  0.3078  0.1274
 5320W        W21129  16.664   1.409  12.171  0.0969 -0.2692  0.1642
 5321W        W21130   2.408  10.944  12.772  0.0026  0.1831 -0.2502
 5322W        W21131  10.924  17.661   2.234  0.1322  0.2950  0.1957
 5323W        W21132  17.350   6.103   4.362 -0.1205 -0.1647  0.2525
 5324W        W21133  16.656  16.507   1.156 -0.1053 -0.0643  0.0653
 5325W        W21134  12.070  13.527   1.391 -0.1493 -0.1926 -0.2996
 5326W        W21135  10.790   0.656   0.216 -0.1730 -0.0100 -0.1549
 5327W        W21136  16.238  14.671  15.482  0.0445 -0.1108  0.2234
 5328W        W21137   5.449  10.150   4.198 -0.3377  0.0460  0.3096
 5329W        W21138   4.153  17.020  10.369  0.1723  0.0285 -0.1283
 5330W        W21139  17.615   1.037  15.454 -0.0354 -0.1334 -0.2303
 5331W        W21140   1.972   2.531   3.549  0.3104 -0.0208  0.1034
 5332W        W21141  12.584   3.229   2.333  0.1428  0.3176  0.0647
 5333W        W21142   5.666  17.383   0.798  0.0543 -0.0379 -0.2246
 5334W        W21143   8.482   8.224  11.324 -0.1752  0.1457  0.0014
 5335W        W21144   4.063  14.819  11.691  0.0599 -0.0252  0.0405
 5336W        W21145  12.282   9.923   0.279 -0.2752  0.0584  0.2966
 5337W        W21146   4.176  14.176  14.696  0.1048  0.4005 -0.1864
 5338W        W21147  15.888   0.135  14.565  0.1310 -0.0976 -0.3486
 5339W        W21148   8.189  11.417   0.832  0.1062 -0.3627 -0.1601
 5340W        W21149   5.978   9.881   0.721  0.2691  0.0598 -0.1788
 5341W        W21150   4.539  16.640  15.352  0.1141 -0.0169  0.0882
 5342W        W21151  11.376   3.149   1.750 -0.0680  0.0381  0.1162
 5343W        W21152   5.207   0.872  12.805  0.0645  0.1944  0.2131
 5344W        W21153  16.080   2.378   0.704 -0.0043  0.0332  0.1635
 5345W        W21154   4.812   4.122  15.157  0.0366 -0.5680  0.1078
 5346W        W21155  14.274  12.305  14.173 -0.2593  0.0842  0.2964
 5347W        W21156   5.580   6.009   1.730 -0.0384  0.0973  0.3253
 5348W        W21157  10.486  16.279   5.472  0.0321 -0.1989  0.0195
 5349W        W21158  18.355   6.020  14.645  0.2734 -0.0229  0.0684
 5350W        W21159   9.802  14.484   2.067  0.0215  0.0631  0.1198
 5351W        W21160  14.061  13.916  14.597  0.1618  0.1146  0.1068
 5352W        W21161  18.498  12.987  11.805 -0.1355  0.0446  0.0905
 5353W        W21162   5.399  10.444   2.167  0.2647 -0.1567 -0.0460
 5354W        W21163   2.956   4.139  10.132 -0.3717  0.2404 -0.0218
 5355W        W21164  16.972  14.772   0.640 -0.1203 -0.0396 -0.1391
 5356W        W21165   9.860  13.229   3.647  0.1698 -0.2578  0.1135
 5357W        W21166   9.386   7.799  12.568 -0.1027  0.0153  0.1974
 5358W        W21167   6.805  12.015  13.014 -0.1623 -0.0745 -0.2913
 5359W        W21168   0.589  14.591   2.254 -0.0571  0.1161  0.0233
 5360W        W21169   2.487   9.530  12.560  0.1874  0.0054  0.1947
 5361W        W21170  13.299   6.284  12.656 -0.1931 -0.2113 -0.2681
 5362W        W21171   3.509   9.368   4.471 -0.0836  0.0710  0.2901
 5363W        W21172  12.134   3.344  15.359  0.0279 -0.1042 -0.1792
 5364W        W21173  12.975  14.062  11.042 -0.2593 -0.1791  0.2389
 5365W        W21174  12.182   8.515   5.645  0.2071 -0.1309 -0.0108
 5366W        W21175   0.840   1.535  15.362 -0.0672  0.1914  0.0596
 5367W        W21176   7.673   3.074  10.080  0.0689 -0.0835 -0.4156
 5368W        W21177  15.311   1.284  12.196  0.0975  0.2233 -0.1799
 5369W        W21178   2.067   2.518  12.705  0.6372 -0.1811  0.2054
 5370W        W21179   5.319   7.737   3.918 -0.0686 -0.0928  0.1749
 5371W        W21180  18.093  10.581   1.814 -0.1374 -0.3104 -0.0029
 5372W        W21181   2.603   1.190   4.593 -0.1924 -0.2120  0.0328
 5373W        W21182   8.023  18.491   4.893 -0.0592  0.0058 -0.3617
 5374W        W21183  11.600   8.351   1.744 -0.2053  0.3356 -0.3631
 5375W        W21184   9.004   1.358   3.537  0.1592  0.0670 -0.2013
 5376W        W21185   5.839   5.074   4.727 -0.2985  0.1442  0.0096
 5377W        W21186   0.787   5.420  13.358 -0.4454  0.1521  0.3036
 5378W        W21187   9.987   3.463  14.666 -0.1817  0.3302  0.0210
 5379W        W21188   7.482   3.894  11.832  0.0266 -0.0797 -0.1867
 5380W        W21189   1.182  13.335  11.211 -0.2588 -0.0753 -0.0611
 5381W        W21190  17.232   3.166  14.283 -0.0489 -0.2015  0.1805
 5382W        W21191   7.289   5.807   1.175 -0.0454 -0.0306  0.0136
 5383W        W21192   3.218  18.033   3.529 -0.1872  0.0385  0.0319
 5384W        W21193  15.360   7.456  13.293  0.0667 -0.0884  0.0164
 5385W        W21194   8.651   9.744   3.175 -0.0654  0.2066 -0.0576
 5386W        W21195  16.833  11.551   0.530  0.0461  0.1139  0.0347
 5387W        W21196  13.508  13.870   3.694 -0.3756 -0.2155 -0.2895
 5388W        W21197  13.966  13.081   1.665  0.0679 -0.1433  0.1373
 5389W        W21198   4.689   3.345  15.611  0.0863  0.3800 -0.0565
 5390W        W21199  16.299   0.324   4.366 -0.0255  0.4399  0.1692
 5391W        W21200   3.262   7.869   0.741  0.3605 -0.1285  0.2371
 5392W        W21201  16.221   5.088  12.250  0.0558  0.1396  0.3132
 5393W        W21202  12.662   9.291  10.878 -0.0625 -0.0180 -0.3123
 5394W        W21203  10.816   9.895   3.605 -0.4147 -0.5644  0.1559
 5395W        W21204   9.189  10.593   2.832 -0.2243 -0.1889  0.0442
 5396W        W21205  11.457   5.317  12.769 -0.1602  0.1600  0.0408
 5397W        W21206   7.179  10.701  11.865 -0.0691  0.1345  0.0557
 5398W        W21207   0.134   3.185   4.443 -0.1730  0.2221 -0.1171
 5399W        W21208   0.130  16.245   1.775  0.0044 -0.1383  0.0778
 5400W        W21209   0.126   8.642  13.993  0.2230 -0.1352  0.1406
 5401W        W21210   3.907   4.287   3.169 -0.1361  0.1641 -0.2847
 5402W        W21211   6.758   8.005   2.964  0.2705 -0.0933  0.1403
 5403W        W21212  17.392  13.339  10.778 -0.5253 -0.0140 -0.0606
 5404W        W21213   2.525   1.964   5.908  0.2175  0.0987 -0.5299
 5405W        W21214  14.158   3.471  10.058 -0.0762  0.2101 -0.2790
 5406W        W21215   5.837  15.783  13.193 -0.2139 -0.0094  0.1485
 5407W        W21216   0.505   3.831  15.344 -0.0329 -0.1412  0.0940
 5408W        W21217   8.187   0.350   3.695  0.0750  0.0086  0.0832
 5409W        W21218   0.929  16.721   0.681  0.0150 -0.0124 -0.1544
 5410W        W21219   0.072  17.978   4.046  0.0400 -0.2660  0.0464
 5411W        W21220   9.445  10.371   1.880  0.0533 -0.2232 -0.0927
 5412W        W21221   1.173   1.431   4.446  0.0075  0.1000  0.1008
 5413W        W21222   1.770   0.836  10.715  0.0969 -0.1027  0.1185
 5414W        W21223   9.718   4.805   0.521 -0.3560  0.0266  0.2872
 5415W        W21224   7.411   2.066   0.701 -0.0575  0.0361 -0.1638
 5416W        W21225   7.433   0.580  14.910 -0.3134 -0.0688 -0.0317
 5417W        W21226   8.533  10.508   3.965  0.0910  0.1791 -0.1818
 5418W        W21227  10.375   9.327  14.265  0.1011  0.2749  0.0559
 5419W        W21228   0.981  18.051  13.349 -0.1907 -0.0821 -0.2656
 5420W        W21229   1.703  12.688   1.263 -0.0306  0.5516  0.0914
 5421W        W21230   8.162  13.315  14.434  0.3015 -0.1710 -0.1047
 5422W        W21231   5.777   6.014   0.322  0.2624  0.0497 -0.0611
 5423W        W21232   7.207  13.262   5.536 -0.0312 -0.0142  0.0490
 5424W        W21233   3.328  14.069   1.010 -0.2183  0.3779  0.1269
 5425W        W21234  15.391   1.199  13.536  0.0910 -0.2594 -0.1111
 5426W        W21235   6.999  12.862  14.656 -0.2176 -0.4438  0.0272
 5427W        W21236   0.856  11.035  15.613 -0.1728  0.0678  0.1035
 5428W        W21237   0.093   5.516   0.287  0.0966  0.1297  0.0379
 5429W        W21238  16.241  11.780   3.479 -0.0042 -0.3322  0.0570
 5430W        W21239   5.678   2.013   0.814  0.4837 -0.3295  0.0034
 5431W        W21240   6.437   9.691   2.566  0.0737  0.2949 -0.0387
 5432W        W21241   5.142  18.011  15.027  0.1317  0.0912  0.0611
 5433W        W21242  14.231   0.585  12.359 -0.1073 -0.2889 -0.0424
 5434W        W21243   5.540  17.483   3.648 -0.1328  0.0891  0.2211
 5435W        W21244   5.209   8.155  13.614 -0.0577 -0.0522 -0.2018
 5436W        W21245   5.527   7.637  11.608  0.1617 -0.1638  0.2150
 5437W        W21246   3.710  14.753   2.161  0.1390 -0.0981 -0.0277
 5438W        W21247  10.704  11.749  12.700  0.3801  0.0973 -0.0214
 5439W        W21248   9.718  12.830  15.405 -0.0686 -0.1857  0.0192
 5440W        W21249   3.496  14.797   1.355  0.0245 -0.1499  0.0640
 5441W        W21250   3.534  14.688   3.560  0.0036  0.0388 -0.0474
 5442W        W21251  15.848   2.818   4.662  0.0584  0.2785 -0.0287
 5443W        W21252   9.136   2.805   2.498  0.0625  0.2095  0.2348
 5444W        W21253   1.017  16.020  14.773  0.3151  0.1195  0.0759
 5445W        W21254   5.526   1.480  11.161  0.0662 -0.1802  0.1936
 5446W        W21255  13.414   7.649   0.081  0.2451  0.0322  0.0428
 5447W        W21256   0.173  11.872  15.491 -0.0198  0.1052 -0.3018
 5448W        W21257  17.630  11.088  12.724 -0.1201 -0.0174  0.0536
 5449W        W21258   0.428   7.350  11.030 -0.1724  0.1373 -0.0567
 5450W        W21259   3.834  14.270  14.348 -0.3312 -0.0185 -0.1169
 5451W        W21260   7.658   2.730   3.577 -0.1412 -0.0795  0.0701
 5452W        W21261  14.927   9.970   1.470  0.0414  0.0249 -0.1951
 5453W        W21262   3.544  18.268   9.598 -0.1925 -0.2997  0.4060
 5454W        W21263   0.262   2.967   9.926 -0.3227  0.0573  0.1148
 5455W        W21264   0.709   5.121  12.582  0.3421  0.3008  0.3327
 5456W        W21265   7.042   9.911   1.676  0.0779 -0.0311 -0.1039
 5457W        W21266   3.844  11.862   0.435  0.0506 -0.0144  0.3388
 5458W        W21267   2.004  16.396   5.275 -0.0250  0.1202 -0.2687
 5459W        W21268   0.122  14.484  13.169 -0.1135 -0.0602  0.3203
 5460W        W21269  17.162   0.658   2.823 -0.3740  0.0997 -0.1385
 5461W        W21270   2.480   7.655  11.808  0.1031 -0.2754  0.0253
 5462W        W21271   2.556   0.356   2.993  0.0686  0.0090 -0.0762
 5463W        W21272   0.819   0.665  10.659 -0.1482 -0.1465  0.0399
 5464W        W21273  15.161  14.626   4.648  0.2407 -0.3151  0.0516
 5465W        W21274   0.568  13.913   1.249 -0.1372  0.2151 -0.0065
 5466W        W21275   5.458   3.717   5.246  0.2508 -0.1986 -0.0302
 5467W        W21276  18.011   9.197   2.623 -0.0289  0.0741  0.1034
 5468W        W21277  18.412  11.772   4.293  0.0701 -0.0988  0.1476
 5469W        W21278  10.324   0.407  12.305 -0.1718 -0.1230  0.0738
 5470W        W21279   1.235   6.963   5.426 -0.0174  0.1865 -0.2992
 5471W        W21280  18.243   3.936   0.945  0.1871 -0.1944  0.1335
 5472W        W21281  18.478   9.701  11.323  0.2208  0.1085 -0.0201
 5473W        W21282   5.933   9.032   0.663  0.1765 -0.0295  0.0309
 5474W        W21283   3.555  18.247  14.725  0.0332  0.2910  0.0351
 5475W        W21284  18.265   0.111  14.696  0.1495 -0.1918 -0.3981
 5476W        W21285  10.615   9.405   3.555 -0.2335 -0.4672 -0.1607
 5477W        W21286   9.712  10.561  14.588  0.2369  0.1548 -0.0337
 5478W        W21287   7.182   0.888   3.196  0.2152  0.4693 -0.2658
 5479W        W21288   0.727  11.350   5.381  0.0470  0.0850  0.0997
 5480W        W21289  16.734  15.022   9.835 -0.0072  0.0079 -0.2699
 5481W        W21290  14.741  12.494  11.183 -0.2872 -0.5031 -0.0392
 5482W        W21291   9.585  16.113   2.822  0.0080 -0.1567  0.1088
 5483W        W21292   3.105   2.737  15.015  0.2458  0.0971  0.2694
 5484W        W21293   7.534  13.348   0.655 -0.0161 -0.0239 -0.1027
 5485W        W21294   0.946   9.658   3.193 -0.3036 -0.3447  0.1225
 5486W        W21295   9.466  10.082   1.176 -0.1297  0.2061 -0.1431
 5487W        W21296  14.147  17.928   2.421  0.1804  0.0608  0.0272
 5488W        W21297   1.157  16.133   2.586 -0.2076 -0.0410 -0.1556
 5489W        W21298  13.559   0.244   1.090 -0.0181 -0.1558  0.1443
 5490W        W21299   9.551  14.239  11.565  0.1734 -0.0701 -0.0208
 5491W        W21300  12.823  16.569   3.656 -0.2627 -0.1020 -0.0755
 5492W        W21301   5.529  18.539   0.976  0.0859 -0.1463 -0.1333
 5493W        W21302   8.938   0.007   4.950 -0.0988 -0.2187 -0.1523
 5494W        W21303   0.949   7.883  12.340  0.4402  0.2220  0.2553
 5495W        W21304   2.141  13.275  13.813 -0.0765  0.2377  0.1045
 5496W        W21305  17.834  14.164  13.024  0.0161 -0.3356 -0.1459
 5497W        W21306   5.818  11.482  11.195 -0.2061  0.1859  0.1102
 5498W        W21307   4.227  11.299  11.902 -0.2622 -0.0473  0.3195
 5499W        W21308  16.926   1.079  13.102  0.1739 -0.1499 -0.0128
 5500W        W21309   5.930   0.487   1.612  0.0014 -0.1568 -0.0354
 5501W        W21310   1.805  12.773   0.699 -0.4675 -0.2245 -0.2619
 5502W        W21311   0.146   6.991  15.741 -0.0345  0.1763  0.3555
 5503W        W21312  14.679   1.037   4.907 -0.2191  0.0133 -0.0215
 5504W        W21313  13.280   5.189   3.886  0.1655  0.1144 -0.3894
 5505W        W21314   6.357   6.445  14.658  0.3003  0.1325  0.1428
 5506W        W21315   9.658  14.810   4.015 -0.1304 -0.2048  0.2374
 5507W        W21316   7.640  11.496   3.312 -0.0468  0.4095 -0.1486
 5508W        W21317   7.809  16.736   4.927  0.1702 -0.0353 -0.1544
 5509W        W21318  12.684  11.724  13.495  0.2706  0.1741 -0.3111
 5510W        W21319  15.508   7.978  14.535  0.0237 -0.0022  0.1239
 5511W        W21320  12.087   2.156   1.027  0.1148  0.2401 -0.3195
 5512W        W21321   2.125  12.244  14.857 -0.0577  0.0969  0.3503
 5513W        W21322   2.068  10.674  13.143  0.1030  0.1528 -0.0566
 5514W        W21323  16.710   8.784  14.018 -0.1244  0.0127  0.2504
 5515W        W21324   5.621  17.075   2.968 -0.0696 -0.0011  0.3754
 5516W        W21325  14.443   6.584   3.035  0.0044  0.5879  0.1011
 5517W        W21326  10.440   4.735   5.102  0.1157  0.0511  0.0105
 5518W        W21327  12.617  15.784   3.754 -0.2679  0.0245 -0.0722
 5519W        W21328  11.708  13.663  12.482  0.0723  0.0794  0.2423
 5520W        W21329   8.369   3.198   1.402 -0.3102 -0.0976 -0.3195
 5521W        W21330  13.849  16.378   1.321  0.0900 -0.4355 -0.3045
 5522W        W21331  11.033   4.421   3.087  0.1823  0.1284 -0.1463
 5523W        W21332   8.082   7.870  15.354  0.1451 -0.1215  0.0528
 5524W        W21333  18.448   4.586  12.834 -0.0259 -0.1385 -0.0597
 5525W        W21334   4.437   2.945   3.630 -0.2575  0.3170  0.0864
 5526W        W21335   9.345   3.689  12.118 -0.1702  0.1439  0.0725
 5527W        W21336   0.937   8.483   3.260 -0.3345  0.0980 -0.1338
 5528W        W21337   6.352   3.877  11.116 -0.4531 -0.3639 -0.0692
 5529W        W21338   6.309  16.077  11.771 -0.2463  0.1118 -0.1276
 5530W        W21339   6.138  13.120   5.689  0.1379 -0.1277 -0.1794
 5531W        W21340  15.465   1.176  11.651  0.3156  0.0135  0.1663
 5532W        W21341   3.990  16.145  15.609  0.0014  0.2147  0.1094
 5533W        W21342  14.401   1.354   3.536 -0.3087 -0.0448  0.3812
 5534W        W21343   0.735   9.803  13.204  0.0522  0.1563 -0.0801
 5535W        W21344  11.736  13.998   2.372 -0.0331  0.5006  0.0707
 5536W        W21345  15.736   2.859  15.125  0.2536 -0.2227  0.2926
 5537W        W21346   9.418  12.018   1.067  0.0541 -0.1932  0.2599
 5538W        W21347  15.124  13.575   4.649  0.1606  0.1736 -0.1992
 5539W        W21348   8.225  12.131   0.085 -0.0821  0.3624  0.0179
 5540W        W21349  15.792  17.154  14.168 -0.0118 -0.1877  0.1956
 5541W        W21350  18.179   0.856   2.586  0.2353  0.0238  0.0009
 5542W        W21351   8.490   4.828   2.699  0.3087 -0.0551 -0.0235
 5543W        W21352   2.793  15.826  11.162  0.0030 -0.1623 -0.0281
 5544W        W21353   2.465  18.054   2.394 -0.0479 -0.1117  0.2137
 5545W        W21354  13.750  10.247   5.018  0.2742 -0.0092 -0.2320
 5546W        W21355  12.517   3.005   5.145 -0.1611  0.0189 -0.2742
 5547W        W21356   2.374   0.552  12.295  0.1035  0.1010  0.5943
 5548W        W21357   1.950  17.863   2.849 -0.1578 -0.1359 -0.0945
 5549W        W21358  16.602  14.197  12.174  0.0210 -0.0189  0.1593
 5550W        W21359   8.352  14.171   1.403  0.0814 -0.1463 -0.3119
 5551W        W21360   7.062  17.382   3.141 -0.0593 -0.3444  0.1604
 5552W        W21361  11.406  17.735   2.134  0.1236  0.1770 -0.0782
 5553W        W21362   8.352   8.726   3.045  0.1023 -0.1143 -0.1109
 5554W        W21363  12.527  10.711   3.938  0.3972 -0.1074 -0.0622
 5555W        W21364  10.865   2.045   2.032 -0.2226  0.0182  0.0083
 5556W        W21365   5.980  12.237   1.104  0.1459  0.0857  0.1357
 5557W        W21366   3.791   4.753  14.277 -0.1602  0.1830  0.0521
 5558W        W21367  13.105   8.456   2.398 -0.1233 -0.0974 -0.1086
 5559W        W21368  15.585   9.466   1.949 -0.2774  0.1228  0.0616
 5560W        W21369  12.215   6.157  14.171  0.3361  0.1106 -0.0309
 5561W        W21370   7.595   8.864  12.083  0.2062  0.0675  0.0657
 5562W        W21371   2.670   8.278  13.402 -0.0968  0.0282 -0.0462
 5563W        W21372   0.988  16.993   2.409  0.0440 -0.1787  0.4498
 5564W        W21373  16.847   6.178  12.943 -0.0559  0.3322 -0.4267
 5565W        W21374   0.282   9.818  11.195 -0.0239 -0.1905 -0.1696
 5566W        W21375   3.210   8.470   2.578  0.4613 -0.0979 -0.0143
 5567W        W21376   5.465   8.215   1.661 -0.0481  0.2539 -0.4107
 5568W        W21377  11.898  18.060  14.921  0.1179  0.2978  0.2158
 5569W        W21378   2.107   6.998   5.908 -0.2152  0.1053 -0.1813
 5570W        W21379   4.349  14.035   2.007 -0.1654 -0.2264 -0.1542
 5571W        W21380  11.683  17.209   4.396  0.0092 -0.1824 -0.1484
 5572W        W21381  17.811  16.091   3.237  0.0044 -0.0850  0.0634
 5573W        W21382   8.395  16.712   1.813 -0.1000  0.0227 -0.1745
 5574W        W21383   3.999  10.886   3.751  0.0559  0.1257 -0.0759
 5575W        W21384   9.040   9.742   3.784 -0.1493 -0.1068 -0.3351
 5576W        W21385   2.229   2.233  13.095 -0.2517  0.0252 -0.2093
 5577W        W21386  13.260  17.044  11.305 -0.0351  0.1267 -0.0469
 5578W        W21387   2.135   7.028  14.580 -0.1286 -0.2463 -0.0537
 5579W        W21388   0.555  14.323   0.351 -0.0119 -0.2383 -0.3245
 5580W        W21389   4.223  18.533   4.369  0.0926 -0.1613 -0.0949
 5581W        W21390  16.687  10.105   2.767  0.2281  0.1100 -0.1306
 5582W        W21391  13.100  14.384  12.540 -0.1358  0.0892 -0.1133
 5583W        W21392   2.665  16.758  13.656  0.1267 -0.0315  0.1387
 5584W        W21393  12.171  17.984  12.812 -0.2759 -0.0683  0.3360
 5585W        W21394  16.069   8.096  12.159  0.2548  0.0537  0.2783
 5586W        W21395  14.695   9.325   1.216 -0.1776  0.3013  0.1529
 5587W        W21396   9.028   8.824  10.906 -0.0846  0.1907  0.2513
 5588W        W21397  16.518   8.925   3.532 -0.3436  0.3291 -0.1479
 5589W        W21398  11.783  17.577  14.800 -0.1101  0.0690  0.0500
 5590W        W21399  13.733   5.141   4.302 -0.4461  0.0006  0.0743
 5591W        W21400   4.205  18.292   1.169 -0.2739  0.0378  0.0356
 5592W        W21401   1.901   6.957   2.724 -0.1425 -0.0330 -0.0441
 5593W        W21402   8.994   0.728   3.443 -0.0461 -0.1334  0.0071
 5594W        W21403  17.807   4.497  14.330  0.2040  0.1829 -0.2466
 5595W        W21404  17.452   0.967  12.472 -0.2062 -0.0050 -0.0903
 5596W        W21405   6.187   4.843   1.507 -0.3119 -0.0183 -0.0421
 5597W        W21406   2.240   4.369   0.978 -0.0346 -0.0254  0.0495
 5598W        W21407  11.594  11.617   1.619 -0.2203 -0.3102  0.2209
 5599W        W21408  11.254   5.540  13.455 -0.1461 -0.5155  0.0144
 5600W        W21409   6.428  12.139   5.779  0.2535 -0.2058 -0.0806
 5601W        W21410   2.855   8.838   2.806 -0.5198 -0.1127  0.3175
 5602W        W21411  14.489  15.721  14.871  0.4094 -0.0164  0.2763
 5603W        W21412  13.591  16.503  11.183 -0.0837 -0.0755  0.0327
 5604W        W21413   9.792   1.320  11.297 -0.0271  0.1307 -0.0983
 5605W        W21414   3.234  13.473  13.558  0.2120  0.0278  0.0569
 5606W        W21415  17.095   8.813  12.166 -0.1809  0.2612  0.0028
 5607W        W21416   6.302   0.480  15.152  0.3960 -0.2795  0.0321
 5608W        W21417  11.834   0.305   1.352 -0.1781 -0.2814 -0.0083
 5609W        W21418   1.285  14.068   4.028 -0.0882  0.2350  0.2854
 5610W        W21419   8.657   5.090  12.820  0.3392 -0.3466  0.1504
 5611W        W21420  15.149   5.905   4.685 -0.1557  0.0884 -0.0216
 5612W        W21421   2.999   4.373   3.280  0.0690  0.1108 -0.1597
 5613W        W21422  15.378   0.357   0.922  0.0092  0.5010 -0.0119
 5614W        W21423   4.439   9.429  14.469  0.0915  0.0345  0.0341
 5615W        W21424   6.281   1.153  14.206  0.0010  0.1564  0.0879
 5616W        W21425   0.946   1.114  14.018 -0.1276  0.0637 -0.1945
 5617W        W21426   2.235  13.286   0.683 -0.3277 -0.0247 -0.2039
 5618W        W21427  10.745   2.414   4.765  0.0226 -0.2516  0.0190
 5619W        W21428  16.406   5.774   2.609 -0.1562  0.2284 -0.1767
 5620W        W21429   0.485  12.376  15.529 -0.1616 -0.1175 -0.0631
 5621W        W21430   5.153   5.701   1.660  0.0279 -0.0249 -0.1022
 5622W        W21431  12.242   2.555   0.765  0.0762  0.2365  0.1536
 5623W        W21432   4.272   6.569  10.149 -0.1827 -0.0267 -0.0210
 5624W        W21433  10.106   9.138   2.866  0.2443 -0.1573 -0.1325
 5625W        W21434  13.422   8.596   0.428 -0.0187  0.2262 -0.3844
 5626W        W21435  11.386  12.645   2.508  0.0439 -0.1537  0.0778
 5627W        W21436  13.596   8.180  11.919 -0.5069  0.1017 -0.1518
 5628W        W21437   7.304   3.970  10.993 -0.3628  0.1807  0.2870
 5629W        W21438   5.690  13.557  11.422 -0.3343 -0.0307  0.3838
 5630W        W21439  15.938   3.116   4.287 -0.6433  0.1028 -0.0551
 5631W        W21440   7.562  12.487   3.125  0.0474 -0.4733  0.2556
 5632W        W21441  16.525  14.471   0.609  0.2356  0.0525  0.0050
 5633W        W21442   9.516   0.161  13.701  0.4467  0.1202 -0.0131
 5634W        W21443  10.986  10.711   0.135 -0.1605 -0.1244 -0.0392
 5635W        W21444   1.276   7.568   3.500 -0.0277  0.2379  0.2098
 5636W        W21445  10.766   9.214  10.022 -0.0806 -0.0219  0.1269
 5637W        W21446   1.577   6.507  14.212 -0.2592 -0.0545  0.2765
 5638W        W21447  15.717  10.223   1.127 -0.0741 -0.1197 -0.1299
 5639W        W21448   6.941  11.842   5.171  0.1017  0.0940 -0.0350
 5640W        W21449   3.559  17.440  15.191  0.0248 -0.1275 -0.1137
 5641W        W21450   7.548  11.273   1.735  0.2578 -0.2043 -0.0039
 5642W        W21451   0.633   7.699  11.939  0.1245 -0.1730  0.3722
 5643W        W21452  18.232  12.736  12.520 -0.3266 -0.1142  0.0122
 5644W        W21453   0.490   6.127  12.652 -0.0790  0.0605 -0.2395
 5645W        W21454  18.659   8.800   2.907 -0.0438 -0.0654 -0.0690
 5646W        W21455   9.854   9.953  13.602 -0.0229 -0.2577 -0.1567
 5647W        W21456   6.326   0.216  12.196 -0.0848 -0.1583 -0.0162
 5648W        W21457   7.374   4.266   0.190 -0.1824  0.0292 -0.0814
 5649W        W21458   8.240  15.995   5.106  0.0173 -0.0227  0.0692
 5650W        W21459  17.258   8.212   3.195 -0.1391 -0.0033 -0.0245
 5651W        W21460  15.593   5.781   1.276 -0.0020  0.4849 -0.2579
 5652W        W21461  12.431  17.539  11.218 -0.1406  0.1880  0.2452
 5653W        W21462   4.242   2.013   3.814 -0.2022  0.0342 -0.0772
 5654W        W21463  13.670  11.714  12.470  0.1089 -0.1457  0.0150
 5655W        W21464   0.291  15.291   2.813  0.1248  0.1272  0.1064
 5656W        W21465   3.638  15.773  15.618 -0.2673 -0.0423 -0.0175
 5657W        W21466  12.476   6.990  14.902  0.0233 -0.1618  0.3302
 5658W        W21467  18.341   0.286   3.411 -0.2783  0.4914  0.4311
 5659W        W21468  12.833   3.650   2.563 -0.1399 -0.0946  0.1370
 5660W        W21469  12.588   4.917   5.060 -0.2188 -0.3040 -0.0734
 5661W        W21470   7.780   9.633   3.475  0.1313 -0.3063 -0.1689
 5662W        W21471  14.833   8.062  11.351  0.0407  0.0767  0.3093
 5663W        W21472   6.519   7.433   6.109 -0.3535 -0.0590  0.2158
 5664W        W21473  10.607  11.950   3.850  0.1100  0.1379 -0.0255
 5665W        W21474  18.199  13.336   1.655 -0.0181  0.2959 -0.2305
 5666W        W21475   7.580   2.800  15.085  0.0149 -0.2079 -0.0110
 5667W        W21476  17.950   4.674  13.076  0.0250 -0.0173  0.1190
 5668W        W21477  12.031  14.917   0.510 -0.1847  0.1751  0.0989
 5669W        W21478  12.616  10.272  11.979 -0.1550  0.2028 -0.0594
 5670W        W21479  12.757  11.841  10.308  0.1393  0.2186  0.2688
 5671W        W21480   3.345  13.583  13.110  0.0167  0.1844  0.4504
 5672W        W21481  11.744  12.339   4.257  0.0658  0.3007 -0.2906
 5673W        W21482   6.261  10.070  12.823 -0.1039  0.4499  0.3447
 5674W        W21483  14.671  16.705  15.744 -0.3274 -0.2965  0.1347
 5675W        W21484   2.865   9.873   4.894 -0.1173 -0.0330  0.0143
 5676W        W21485  11.824   5.801  14.704 -0.5442  0.2863  0.2961
 5677W        W21486   9.565  17.183  10.715 -0.0978 -0.0539 -0.0309
 5678W        W21487   9.196  14.054   4.274  0.3055  0.0106  0.1288
 5679W        W21488   1.782  12.445  15.681  0.2308  0.0206  0.0420
 5680W        W21489  17.009   7.995  11.242  0.0800 -0.0659 -0.2461
 5681W        W21490   6.013   2.174   0.424 -0.1567  0.1876 -0.0727
 5682W        W21491   5.422   1.950  10.473  0.0008  0.0215  0.0988
 5683W        W21492   6.267  11.107   4.742  0.0414 -0.1823  0.0241
 5684W        W21493  15.239   4.782   2.167  0.2963  0.0934 -0.0809
 5685W        W21494  11.186  13.377  12.383  0.0625  0.0515  0.0657
 5686W        W21495   6.211  13.044  15.037 -0.1013 -0.0455 -0.0013
 5687W        W21496   4.336  14.442  13.148 -0.0264 -0.1938  0.1609
 5688W        W21497   5.308   6.432   2.625  0.0438 -0.0426  0.1021
 5689W        W21498  18.360   9.151   2.289 -0.0829  0.4982  0.0219
 5690W        W21499   6.258   4.604  14.514 -0.0829  0.2513  0.0180
 5691W        W21500  11.429  15.808  15.316  0.0760 -0.0230  0.0513
 5692W        W21501  14.520  17.899   1.759 -0.0297 -0.2527 -0.2826
 5693W        W21502  10.462   7.484   3.222  0.0883 -0.2179 -0.0093
 5694W        W21503   8.420  13.257   1.267  0.0974 -0.0949  0.3409
 5695W        W21504   4.969  11.615   1.690  0.3560 -0.0467  0.0663
 5696W        W21505   4.740   4.511   2.625  0.1042 -0.0849 -0.0521
 5697W        W21506  14.086   6.587  15.136  0.0965 -0.2247  0.1067
 5698W        W21507  13.821   0.073  13.197 -0.0070  0.0807 -0.2022
 5699W        W21508  17.340   6.941   0.717 -0.0171  0.0427  0.0098
 5700W        W21509   3.865  16.531   0.842  0.2920  0.2587 -0.1911
 5701W        W21510  16.697  15.574  12.473  0.0435 -0.0961  0.4601
 5702W        W21511   6.652   3.550  13.718 -0.3020 -0.1207  0.1431
 5703W        W21512  12.469  12.836   0.435 -0.2203  0.3751 -0.2209
 5704W        W21513  10.711   3.138   1.144  0.0835 -0.1553  0.0521
 5705W        W21514  13.088   5.266   0.578 -0.6413  0.0950 -0.1834
 5706W        W21515   0.409  16.064   0.411 -0.1897  0.3160 -0.0691
 5707W        W21516  15.781   3.336   5.892  0.2341  0.2565 -0.1838
 5708W        W21517  11.736   6.996  13.741  0.0068 -0.2655 -0.2448
 5709W        W21518   3.934  13.805  15.617  0.3412 -0.0100  0.1885
 5710W        W21519  14.238  17.257   3.627 -0.0208  0.1572  0.1730
 5711W        W21520  16.197   2.782  15.486  0.1381 -0.3802 -0.0994
 5712W        W21521   7.974   3.430  12.783 -0.0197 -0.0133 -0.2455
 5713W        W21522   1.141   3.847  12.662  0.1696 -0.2700 -0.0056
 5714W        W21523   0.350   0.084  14.739  0.2311  0.0619 -0.0260
 5715W        W21524  12.793  17.101  11.429  0.2281  0.3937 -0.2295
 5716W        W21525   4.594  12.716  11.496 -0.2545 -0.3034  0.2024
 5717W        W21526   3.364   8.262  14.048  0.0935 -0.1137 -0.0085
 5718W        W21527  10.935   7.923   2.298 -0.1686 -0.3949  0.0993
 5719W        W21528   2.127   5.631  14.353 -0.1623 -0.0218  0.1813
 5720W        W21529  13.001   4.095   1.344  0.2691 -0.0144  0.0199
 5721W        W21530  11.683   9.791  15.307 -0.1470  0.1559  0.0803
 5722W        W21531   5.130  15.905   4.269  0.1323 -0.0414 -0.0561
 5723W        W21532  14.731   8.310   1.802  0.1048 -0.3851  0.0902
 5724W        W21533   6.276   0.312   0.502 -0.1905 -0.0111 -0.0328
 5725W        W21534  14.218  17.170  10.951  0.1360 -0.0210 -0.1906
 5726W        W21535  13.545   3.483  12.501 -0.0524 -0.3644  0.0060
 5727W        W21536  13.352  16.172  15.090 -0.0482  0.0167 -0.1084
 5728W        W21537   8.974  15.996   3.914 -0.0442  0.0893  0.3576
 5729W        W21538   9.507  14.508  12.232 -0.0024  0.2702 -0.0872
 5730W        W21539  17.281   5.367  12.344  0.0898  0.0381 -0.2866
 5731W        W21540   3.724  18.169  10.521  0.0110  0.3506 -0.0474
 5732W        W21541   1.600  18.348   1.364  0.3209 -0.0492 -0.0857
 5733W        W21542  16.151   5.969   1.651  0.2749  0.1519  0.0346
 5734W        W21543   1.592   2.245  11.508  0.2334 -0.3360 -0.1416
 5735W        W21544   7.029   9.183   5.471 -0.3210 -0.0530 -0.0199
 5736W        W21545   1.303  12.086  11.615  0.0487 -0.3860  0.0832
 5737W        W21546   5.181   9.557  12.778  0.0233 -0.1805 -0.0530
 5738W        W21547   5.086  16.201  11.682 -0.0870 -0.2268 -0.3463
 5739W        W21548   3.956   6.244  13.017  0.1709 -0.2121 -0.1466
 5740W        W21549   4.911   1.750  11.266 -0.0186  0.1795  0.2144
 5741W        W21550  14.828   6.954   4.885  0.0962 -0.0243 -0.3415
 5742W        W21551   1.591   3.004   2.912 -0.0526 -0.0694 -0.0769
 5743W        W21552   7.337   3.809   1.395 -0.3111 -0.2319 -0.1048
 5744W        W21553  14.091  10.908  14.900  0.1870 -0.1603 -0.2376
 5745W        W21554   7.873  12.682   2.779 -0.1402 -0.2148 -0.1088
 5746W        W21555   9.863   2.254   9.992 -0.0925  0.1814 -0.0202
 5747W        W21556   3.852   4.774   2.955 -0.1075 -0.3333 -0.1463
 5748W        W21557   0.172   3.767   2.520 -0.0535  0.0703 -0.0114
 5749W        W21558  10.675   7.569  15.714  0.2727  0.0214  0.0244
 5750W        W21559   9.006  11.170   1.940 -0.1334  0.2189 -0.1559
 5751W        W21560   9.211   6.733   0.768 -0.0231 -0.0197 -0.3599
 5752W        W21561  10.632   6.105   3.526 -0.2380 -0.0445  0.1044
 5753W        W21562   4.772  11.798  13.751 -0.3607  0.3978  0.0865
 5754W        W21563   2.860  11.043   0.449  0.0578  0.0026  0.0060
 5755W        W21564  11.631   3.181  15.457 -0.3811 -0.0781 -0.3340
 5756W        W21565   9.953   3.543   1.647  0.1060  0.3128  0.0266
 5757W        W21566  17.814   1.370   3.719  0.3909 -0.5786  0.2449
 5758W        W21567   6.585  14.363  13.088 -0.3014 -0.3213 -0.4590
 5759W        W21568   4.164   5.974   4.989  0.2329 -0.0098  0.1166
 5760W        W21569   5.969   4.990   5.791 -0.0922 -0.0058  0.0023
 5761W        W21570  14.922  13.215  14.657  0.1584 -0.0621 -0.2536
 5762W        W21571   5.489   4.184  11.200 -0.3053 -0.2214  0.1864
 5763W        W21572   5.617  12.123   3.536 -0.0809  0.1895  0.0758
 5764W        W21573   4.472   3.055  13.075 -0.1978 -0.1033  0.0208
 5765W        W21574  17.045   7.562   1.881  0.1663  0.3297  0.1268
 5766W        W21575   8.783  12.337  11.077  0.2181 -0.0476  0.2152
 5767W        W21576  17.154  12.566  12.441 -0.1177  0.2723 -0.0263
 5768W        W21577   0.982  12.949  14.282 -0.3078  0.0092  0.0065
 5769W        W21578  11.006   1.378   3.139 -0.1201  0.0546 -0.0446
 5770W        W21579   9.514  15.169   3.462 -0.3633 -0.2044 -0.1929
 5771W        W21580   1.392   7.987   3.927 -0.1580 -0.0448  0.3068
 5772W        W21581   3.921  10.984   2.475 -0.0002  0.3562 -0.0668
 5773W        W21582   7.616  16.398   3.858 -0.2100  0.1182  0.0072
 5774W        W21583   7.489  16.667  13.948  0.1922  0.0302  0.1104
 5775W        W21584  15.059  17.797   3.924 -0.2343 -0.1465  0.1772
 5776W        W21585   3.056  11.109   2.712 -0.1001  0.0643  0.0176
 5777W        W21586  16.107   9.706  12.921  0.1735  0.0961 -0.0645
 5778W        W21587   1.191   5.489  12.341 -0.1945 -0.2875 -0.4518
 5779W        W21588  17.356   1.392   1.445  0.1935  0.0313  0.0118
 5780W        W21589  18.516   5.547   4.691  0.1928  0.2544  0.0409
 5781W        W21590  11.911   4.227  12.135 -0.1194  0.3916  0.4490
 5782W        W21591  17.916  12.387   0.932  0.2960 -0.0100 -0.1243
 5783W        W21592  17.475   7.397  12.496 -0.1434 -0.1667  0.2687
 5784W        W21593  15.856   6.061   2.821  0.1091  0.3330 -0.0590
 5785W        W21594  13.015  10.448   1.271  0.2714 -0.1483  0.0943
 5786W        W21595   0.078   8.389  10.930 -0.0588 -0.0807  0.3131
 5787W        W21596   1.962   8.577   3.463 -0.0134  0.0844  0.0830
 5788W        W21597   7.997  16.782  12.457  0.3094  0.0067 -0.0269
 5789W        W21598  14.847   4.785   3.933  0.0578 -0.0789 -0.0092
 5790W        W21599  11.194  11.226   5.152  0.1202 -0.3132  0.2050
 5791W        W21600  16.328   8.538  15.699 -0.0081 -0.2134  0.1948
 5792W        W21601   9.571  17.552   2.689  0.1485  0.3524  0.3268
 5793W        W21602  10.050   2.421   3.374 -0.1198  0.1257  0.0865
 5794W        W21603   3.128   4.106  11.253 -0.1825  0.2736 -0.0442
 5795W        W21604   6.569   6.091   2.542  0.1472 -0.1666  0.0781
 5796W        W21605   8.854  10.168   5.525  0.1052  0.3401 -0.0433
 5797W        W21606   7.358   3.189  11.563 -0.2008  0.1349  0.1412
 5798W        W21607   3.508  13.651  13.999 -0.2956 -0.2092 -0.0978
 5799W        W21608   2.181  10.322   6.299 -0.0306  0.0066  0.2277
 5800W        W21609   8.310   8.367   1.362  0.1937 -0.0777 -0.0822
 5801W        W21610  13.089   3.418  14.364 -0.1531  0.0549  0.3444
 5802W        W21611   6.165  10.346  14.266 -0.0562 -0.0759 -0.2446
 5803W        W21612   8.289   9.614  14.405  0.2098 -0.2508 -0.2195
 5804W        W21613   8.087  12.788   5.551  0.0257 -0.0197  0.0425
 5805W        W21614   7.305  12.870   0.785  0.1456 -0.1747  0.0404
 5806W        W21615   9.604   9.581   3.764  0.0202  0.2822 -0.0688
 5807W        W21616  17.957   0.004  11.150  0.1063  0.0419 -0.3248
 5808W        W21617   3.778  11.621  11.157  0.1810  0.0362  0.0150
 5809W        W21618  12.874  10.480   2.905  0.4588  0.2145 -0.2615
 5810W        W21619   2.310  12.414  13.490  0.0771  0.0375  0.1051
 5811W        W21620  17.195  14.003  13.624  0.2708 -0.0763  0.0660
 5812W        W21621  12.959  15.167   9.490  0.1137 -0.0942  0.0428
 5813W        W21622  16.449   3.671  15.721 -0.1226  0.2549 -0.0368
 5814W        W21623  14.008  10.647   2.001 -0.0956  0.0346  0.1291
 5815W        W21624   7.007  12.945   5.172 -0.0267  0.0789 -0.2582
 5816W        W21625  17.531   3.719  11.464 -0.0847  0.0899  0.0525
 5817W        W21626   4.535   3.850  13.476 -0.0580  0.0766 -0.2129
 5818W        W21627   2.684   2.053   0.952  0.1655  0.1858 -0.0433
 5819W        W21628  14.873  16.801   2.210 -0.0366  0.0590 -0.3214
 5820W        W21629   6.917   3.130  10.764  0.0032  0.0745 -0.1783
 5821W        W21630  12.115  18.380  13.222 -0.1199  0.2882  0.1328
 5822W        W21631  16.269  11.476   4.668  0.0856 -0.0318 -0.0170
 5823W        W21632  15.706  18.258  10.586 -0.3305  0.1929 -0.0454
 5824W        W21633  17.738   2.353   1.327  0.1105 -0.0284  0.2495
 5825W        W21634  16.966   0.236   5.087  0.1376 -0.0203 -0.0834
 5826W        W21635  17.593  10.635   0.116 -0.0712  0.0203  0.1153
 5827W        W21636   0.469  10.723  12.297  0.0906  0.0418  0.1442
 5828W        W21637  12.606  11.353  14.230 -0.0145 -0.0403 -0.0290
 5829W        W21638  11.815  10.165   3.969 -0.1139  0.0390  0.3037
 5830W        W21639  15.259   8.299   1.375 -0.1249 -0.1628  0.0598
 5831W        W21640  11.397   7.304  10.877 -0.1544  0.5638  0.2117
 5832W        W21641  11.248   3.659   1.961  0.0893  0.0284 -0.1779
 5833W        W21642   6.507   7.213   4.246 -0.1606  0.1556 -0.0974
 5834W        W21643  16.564  12.577   3.165 -0.0102  0.1290  0.1856
 5835W        W21644  10.179   8.851   2.050 -0.1010 -0.3517 -0.0885
 5836W        W21645   6.620   2.524  15.045  0.0010 -0.0584  0.0850
 5837W        W21646  16.379   7.406  13.068  0.1403  0.0002 -0.1688
 5838W        W21647  15.280   9.511  11.673  0.1590 -0.0961  0.0641
 5839W        W21648   4.710   1.847   0.385  0.0488  0.2559 -0.3897
 5840W        W21649  10.872   3.108  14.310 -0.1419 -0.0943  0.0583
 5841W        W21650   1.438   2.058   2.936  0.0731 -0.3501 -0.2408
 5842W        W21651  10.125  17.025  13.088 -0.1026  0.0934  0.0486
 5843W        W21652   8.849   6.380  11.258  0.1634  0.4597 -0.0606
 5844W        W21653   3.417   1.446   1.854 -0.0491 -0.2548  0.5145
 5845W        W21654  18.543   0.065  15.085  0.0379 -0.0620 -0.1893
 5846W        W21655  14.294   8.168   1.544  0.4766 -0.0852 -0.0334
 5847W        W21656   1.430   3.548   3.132 -0.0853  0.0598 -0.2596
 5848W        W21657  14.615  16.263   0.227  0.0566  0.2414 -0.1559
 5849W        W21658   2.592   0.871   3.538 -0.2764  0.0392  0.1617
 5850W        W21659   1.762   8.645   2.001 -0.1507 -0.0896 -0.0446
 5851W        W21660   3.529  10.509  13.572  0.0150 -0.0795  0.3340
 5852W        W21661  11.792   4.640   5.106  0.4296  0.0343 -0.0989
 5853W        W21662  14.684   4.561   4.658 -0.5332  0.0767  0.0240
 5854W        W21663  16.854  11.210  12.306  0.4065  0.0192  0.0124
 5855W        W21664  17.256   1.938   0.032 -0.2044 -0.0647 -0.1172
 5856W        W21665  13.424  16.093  10.923  0.0492 -0.2678 -0.1309
 5857W        W21666  14.106  11.329  15.295 -0.0780 -0.0716  0.1442
 5858W        W21667   2.305   7.286   2.588  0.1122 -0.2176  0.1530
 5859W        W21668   0.970  18.661   3.564 -0.0791  0.0393 -0.0825
 5860W        W21669  18.205   9.901   0.993  0.2479 -0.3245  0.2489
 5861W        W21670   0.476   9.282   5.036 -0.4750 -0.0047 -0.1281
 5862W        W21671   1.413   7.179  12.391  0.2541  0.0181  0.0889
 5863W        W21672   7.773   2.705  12.319 -0.2331  0.2094 -0.1537
 5864W        W21673  12.114  15.866   2.158  0.0462 -0.0803 -0.1609
 5865W        W21674   0.761   0.993   1.169  0.0881 -0.0611 -0.0024
 5866W        W21675   9.201   5.442  14.769  0.1413  0.1129 -0.0976
 5867W        W21676  18.406  13.245  13.954  0.0199  0.1813  0.5735
 5868W        W21677   5.021   8.478  13.304 -0.0837 -0.2176  0.1092
 5869W        W21678  11.942  17.360  15.626 -0.0465  0.0678 -0.3140
 5870W        W21679   3.001  16.507   2.477 -0.1909  0.1925  0.0209
 5871W        W21680  16.221  10.406  12.755 -0.1918  0.0405 -0.0064
 5872W        W21681   2.834   7.882  11.512 -0.3341  0.4555 -0.3404
 5873W        W21682  11.326  14.575  13.832  0.2164 -0.3645  0.0103
 5874W        W21683   3.266   7.866  15.550 -0.2404  0.1462 -0.3817
 5875W        W21684   0.398   3.834   3.478  0.0611  0.0687 -0.1666
 5876W        W21685  15.610   1.540   2.760 -0.0272 -0.3893 -0.2274
 5877W        W21686  16.568   5.832  12.579  0.2756 -0.2329  0.0926
 5878W        W21687   7.718   6.604  12.336  0.0434  0.0493  0.0813
 5879W        W21688   0.397  10.164   2.805 -0.2887 -0.1112 -0.3041
 5880W        W21689   1.297  16.162  14.165 -0.0957  0.3644 -0.2175
 5881W        W21690  18.309   4.761  11.223 -0.3927  0.0520 -0.1578
 5882W        W21691  18.201   1.475   3.231  0.1907 -0.1758  0.2807
 5883W        W21692   4.597  11.326  13.212  0.0927 -0.0851 -0.1650
 5884W        W21693   5.947   3.404   0.413  0.0885  0.1959  0.2491
 5885W        W21694  10.222  17.808   1.977 -0.0289  0.2907 -0.1818
 5886W        W21695   7.571   3.869  14.964  0.2998 -0.1323  0.0854
 5887W        W21696  10.153   6.618   4.732 -0.3632  0.2320  0.1866
 5888W        W21697   1.830  14.065   3.215 -0.0791  0.1379 -0.0404
 5889W        W21698  13.819  14.149  12.901 -0.0537 -0.0118  0.1145
 5890W        W21699  10.019   1.686   2.472  0.3786 -0.2836 -0.2937
 5891W        W21700   5.473  15.717   4.528 -0.2992  0.4161 -0.0576
 5892W        W21701   4.056   3.076  13.742  0.0940 -0.0227 -0.2209
 5893W        W21702   6.263   3.182   3.544  0.2284  0.1357  0.1627
 5894W        W21703   2.488  18.395  14.199  0.2562 -0.3926  0.2187
 5895W        W21704  13.206  18.380   2.809  0.1325 -0.2468 -0.1849
 5896W        W21705   0.272  16.764   1.766 -0.2296 -0.0206  0.0069
 5897W        W21706   3.478   9.010   2.149 -0.1626 -0.1170 -0.0722
 5898W        W21707  15.666  15.130  10.615  0.1613 -0.1187 -0.1900
 5899W        W21708  13.263   9.918   1.337  0.2259 -0.1098  0.1069
 5900W        W21709   7.786   9.318   0.891 -0.0849 -0.1757  0.0723
 5901W        W21710  11.045   9.043   1.677  0.0876 -0.2280  0.0771
 5902W        W21711   1.192  10.116  10.794 -0.0165  0.1653  0.1254
 5903W        W21712   2.178   1.502  11.622 -0.0885 -0.1798  0.2864
 5904W        W21713  13.122  17.793  10.370 -0.2399  0.3801  0.1036
 5905W        W21714  10.237  17.195  15.247  0.3289  0.1046  0.0619
 5906W        W21715   1.164  12.942   4.929 -0.2299 -0.2045 -0.0011
 5907W        W21716   1.469  10.064  10.309  0.0048  0.0730 -0.0148
 5908W        W21717   6.848  15.900   5.567  0.0375 -0.1240 -0.0533
 5909W        W21718  11.795   3.566  15.732 -0.7451  0.1571 -0.0242
 5910W        W21719   1.020  14.371   3.149 -0.1423  0.0812 -0.0336
 5911W        W21720  14.505   1.982   1.012 -0.0512  0.2395  0.0775
 5912W        W21721  11.783   1.765   0.931 -0.3553 -0.2521  0.0225
 5913W        W21722  17.239   0.621  15.710 -0.4174 -0.3738  0.1052
 5914W        W21723   2.880  14.982  11.814  0.0881 -0.0544  0.3663
 5915W        W21724  12.379   5.613  11.559  0.3554  0.1617  0.2797
 5916W        W21725   9.592   6.103   3.871  0.3453 -0.3990  0.3436
 5917W        W21726   6.036   1.642  11.000 -0.1265 -0.2745 -0.2696
 5918W        W21727   8.705  17.204   2.597 -0.0459  0.3303  0.0069
 5919W        W21728   9.344  18.358   3.091  0.0873  0.1629  0.0062
 5920W        W21729  17.356  11.533  15.441 -0.3662  0.0768 -0.1330
 5921W        W21730   2.139  18.091  11.378  0.2874 -0.1197 -0.0703
 5922W        W21731  14.920   2.857   3.029 -0.1267 -0.4111 -0.0502
 5923W        W21732   9.936   0.707  15.705  0.1849 -0.1882  0.1213
 5924W        W21733  14.575   2.277   4.413 -0.2331 -0.0903  0.1055
 5925W        W21734   1.958   0.167   3.140 -0.0657  0.2827 -0.1783
 5926W        W21735  12.096   0.651  13.628 -0.3311 -0.1311 -0.0481
 5927W        W21736  10.830   3.598  15.078  0.1191 -0.4540  0.1341
 5928W        W21737   9.365   0.484   1.740  0.0950 -0.1921 -0.5854
 5929W        W21738   8.426  15.989   4.613  0.0688  0.1517  0.0324
 5930W        W21739  15.879   6.490  12.275 -0.0032  0.0033  0.1776
 5931W        W21740  11.216   9.334   2.204  0.2577  0.0040 -0.3589
 5932W        W21741   8.517   3.568   3.573  0.0411 -0.1156  0.0763
 5933W        W21742   2.557  10.997   3.435  0.0158  0.0267  0.0362
 5934W        W21743   4.682  13.593  13.520  0.2034 -0.0243 -0.1490
 5935W        W21744   7.687   9.615   2.168 -0.2323  0.2305  0.0753
 5936W        W21745  15.486  15.849   3.477  0.3297  0.5587 -0.0883
 5937W        W21746   1.821  17.325  14.120 -0.1152 -0.2529 -0.3047
 5938W        W21747   5.873   6.519   1.032 -0.0351 -0.0162 -0.0083
 5939W        W21748   5.713   5.025  13.944  0.0318  0.1460  0.4518
 5940W        W21749  11.524  11.129  12.550 -0.2069 -0.0056 -0.3496
 5941W        W21750   6.703  11.301  14.739 -0.2091 -0.3497 -0.1838
 5942W        W21751   8.776  17.937  14.602 -0.1214  0.0526 -0.1141
 5943W        W21752   7.634   1.209  15.630 -0.1093  0.0961 -0.1223
 5944W        W21753   0.387  13.230   2.639 -0.0231  0.0833  0.1156
 5945W        W21754   8.609  10.748   4.781 -0.1570 -0.0930 -0.0155
 5946W        W21755  11.534   7.607  12.467  0.1260  0.1332  0.1247
 5947W        W21756  14.800  10.887   0.638  0.0890 -0.3201  0.3080
 5948W        W21757   4.984   7.659  15.582 -0.1360 -0.3783  0.1520
 5949W        W21758   1.343  12.694   3.561 -0.1089 -0.1072  0.3161
 5950W        W21759  15.003  10.780  15.075  0.0494 -0.0490 -0.1956
 5951W        W21760   4.268   0.887  14.581  0.0842  0.1920 -0.0299
 5952W        W21761  13.518  14.066  15.402  0.6019 -0.1567 -0.2162
 5953W        W21762  15.967  12.492  13.943  0.1021 -0.0182  0.2412
 5954W        W21763   1.057  12.632  10.760  0.1562 -0.1390 -0.0833
 5955W        W21764   7.983  18.597   0.003 -0.3054  0.2660  0.2163
 5956W        W21765   2.264   8.853   2.289  0.1176 -0.1104  0.1517
 5957W        W21766  17.559   4.213  11.601  0.0998 -0.2422  0.2061
 5958W        W21767   7.929   0.936  12.433 -0.0060 -0.2012 -0.3029
 5959W        W21768  16.636   7.855  12.959 -0.1468  0.1100 -0.2259
 5960W        W21769   7.828  10.653   0.643 -0.1567  0.1295  0.2110
 5961W        W21770  15.388  11.768   4.035 -0.1308 -0.1200  0.1789
 5962W        W21771   8.711   9.805  13.066  0.0107  0.4221 -0.1422
 5963W        W21772  15.413  18.324  12.937  0.1168  0.0152 -0.0429
 5964W        W21773   1.984   2.435  15.726  0.0562  0.0900  0.1300
 5965W        W21774  10.196   1.434  13.030 -0.1965  0.0901  0.3253
 5966W        W21775  11.061  13.451   5.032 -0.1559  0.0451  0.1551
 5967W        W21776   3.563  14.410   1.845 -0.1027  0.0304 -0.1297
 5968W        W21777   9.635   1.283   2.937  0.0230 -0.0965  0.0888
 5969W        W21778   6.943   6.741  13.668  0.1931 -0.1053 -0.0223
 5970W        W21779   4.857   2.966  12.654 -0.0602 -0.0023  0.2174
 5971W        W21780  12.748   7.103  10.675  0.0277  0.0579  0.1093
 5972W        W21781  15.627  16.230   3.186 -0.0375  0.0113  0.0781
 5973W        W21782  12.247  13.169   0.998  0.1935 -0.2334 -0.0941
 5974W        W21783  14.984  11.693   3.386 -0.2360 -0.1507  0.0761
 5975W        W21784  11.886   3.507   2.264 -0.0072 -0.1286  0.2911
 5976W        W21785   2.842   1.588   4.807  0.1087 -0.0366 -0.0264
 5977W        W21786  13.940  13.731   3.523  0.1225  0.1306  0.1612
 5978W        W21787  12.612   0.897   4.367 -0.0569 -0.3698  0.0590
 5979W        W21788  13.748   0.126   4.404  0.0914 -0.0148  0.0912
 5980W        W21789   1.045  18.050  12.273  0.1548  0.2195  0.0643
 5981W        W21790   4.662   0.754  15.364  0.2313  0.4604 -0.0634
 5982W        W21791  12.911  13.639   0.195 -0.0082 -0.0121 -0.3206
 5983W        W21792   5.120  18.380  12.148 -0.1369  0.0029  0.2239
 5984W        W21793  14.170  17.201   0.673  0.1730 -0.1672 -0.1822
 5985W        W21794   0.036   6.058   3.150 -0.1876  0.2145 -0.2033
 5986W        W21795   2.898  10.336   1.728 -0.2572 -0.0095 -0.4925
 5987W        W21796   6.382   4.988  12.304 -0.2219  0.3529  0.0127
 5988W        W21797  13.311  12.970  11.252 -0.1033  0.0104 -0.0216
 5989W        W21798  10.737   1.740   0.246  0.0513 -0.0129 -0.1531
 5990W        W21799  12.271   3.766  10.286 -0.0703 -0.1994 -0.2025
 5991W        W21800   5.481  15.449   2.474  0.1757 -0.2536 -0.1492
 5992W        W21801  12.006  11.874   4.269  0.1262  0.2055 -0.1722
 5993W        W21802   1.273   6.583  12.777  0.0624  0.1673 -0.1982
 5994W        W21803  17.853   6.554   4.530 -0.2131 -0.0077 -0.0285
 5995W        W21804  11.068   4.331   4.509 -0.0214  0.0804  0.1716
 5996W        W21805  11.021  18.386  15.674 -0.3308  0.1778  0.2734
 5997W        W21806   0.548   8.400  13.511  0.1573  0.1208 -0.1149
 5998W        W21807  17.393  14.407  13.218 -0.0682 -0.2778  0.2427
 5999W        W21808  18.225  12.078   0.678  0.1044 -0.1161  0.0014
 6000W        W21809  15.089  11.543  10.791 -0.4200  0.2435  0.1437
 6001W        W21810  16.611   1.024  10.632 -0.1349  0.2762 -0.0946
 6002W        W21811   6.468  14.575  12.609 -0.1969 -0.0628  0.3155
 6003W        W21812   9.963   9.983   4.025 -0.1871 -0.1219  0.1568
 6004W        W21813  18.435   3.080   2.045 -0.3707  0.1883  0.1393
 6005W        W21814  10.310   6.331  13.774 -0.1961  0.1083 -0.0508
 6006W        W21815  12.752   7.615  10.806  0.0210 -0.2225  0.2144
 6007W        W21816   9.703   4.605  13.883  0.1147 -0.1353 -0.1823
 6008W        W21817  12.291  16.460   9.297 -0.0397 -0.0027  0.0202
 6009W        W21818   6.820  12.046  11.554  0.2645 -0.2689  0.2941
 6010W        W21819   7.407   1.840  11.026 -0.0226 -0.1412  0.1683
 6011W        W21820   1.066   3.441  14.172  0.1885 -0.4137  0.2107
 6012W        W21821  12.967  17.207   3.567  0.3000  0.0767  0.0812
 6013W        W21822  16.606   6.263   0.596 -0.0972 -0.1317  0.4026
 6014W        W21823  18.110  13.805   5.753 -0.0708 -0.2445 -0.1106
 6015W        W21824   0.565  15.589   2.305  0.0343  0.0416  0.0531
 6016W        W21825  13.215  17.568   4.062 -0.0251 -0.3557  0.1103
 6017W        W21826   5.624   1.798  11.914  0.0637 -0.0658  0.0138
 6018W        W21827  11.368   3.515  15.117 -0.1406 -0.2476  0.0351
 6019W        W21828  18.248   6.739   2.758 -0.0838  0.3077  0.0311
 6020W        W21829   8.786  10.418  15.170 -0.1302  0.1961 -0.2386
 6021W        W21830  13.308  16.572   0.368  0.0445 -0.1092 -0.1245
 6022W        W21831   5.364   2.181  14.497 -0.3324 -0.0412 -0.0115
 6023W        W21832   6.750  13.904   4.076  0.3927 -0.0098  0.0946
 6024W        W21833   0.140  12.904   3.871 -0.2177 -0.0150  0.0910
 6025W        W21834  15.872  13.418   1.090 -0.2037  0.1340 -0.1499
 6026W        W21835   6.286  11.461  11.068 -0.3149  0.0420 -0.1530
 6027W        W21836   7.732  15.746   1.295 -0.2127 -0.2963 -0.0770
 6028W        W21837  11.489  17.216   3.628  0.0665  0.1434 -0.2873
 6029W        W21838  15.131  18.275   1.904  0.1043  0.1599 -0.1108
 6030W        W21839  15.285   7.955   0.353 -0.2253 -0.0459 -0.0751
 6031W        W21840   4.787  17.342   4.686  0.0863 -0.1482  0.3080
 6032W        W21841   3.679   9.744   5.073 -0.0960 -0.0459  0.2035
 6033W        W21842  12.319  18.365  10.536  0.1155  0.3049  0.0616
 6034W        W21843  13.439  18.553  14.955  0.0489 -0.2505  0.2064
 6035W        W21844   2.694  14.195   0.302 -0.0199  0.0599  0.0286
 6036W        W21845  17.036  15.858  11.507 -0.2463  0.3589  0.1018
 6037W        W21846  12.292  11.362   2.375  0.1145  0.2100  0.6249
 6038W        W21847  16.065  16.403   1.035  0.2043  0.2483  0.1698
 6039W        W21848   8.146   5.972   3.374 -0.0791  0.1089  0.0834
 6040W        W21849   8.236   6.838   0.564 -0.1140  0.4929  0.1930
 6041W        W21850   6.174   2.938   0.621  0.0240  0.0834 -0.2602
 6042W        W21851  13.743   9.830   0.449 -0.0488 -0.0517  0.0378
 6043W        W21852   3.418   5.988  12.835  0.0751 -0.0971 -0.1527
 6044W        W21853  14.608   7.540   4.305  0.0488 -0.1890  0.1475
 6045W        W21854  16.850  15.107   3.823 -0.1771  0.0274  0.1150
 6046W        W21855   8.151  16.558  14.291 -0.0748 -0.1198 -0.0859
 6047W        W21856  17.039   6.747  11.608 -0.1532 -0.1711 -0.1872
 6048W        W21857   7.026  13.070   2.922  0.1726  0.0241 -0.2324
 6049W        W21858  13.649  17.801   0.845 -0.1957 -0.0758 -0.0351
 6050W        W21859   0.887   6.578   2.951  0.3720  0.1879 -0.0315
 6051W        W21860  16.460  13.722  10.642  0.1393  0.0584  0.2531
 6052W        W21861   5.391  12.466   2.967 -0.1386 -0.1894 -0.1475
 6053W        W21862   8.042   7.537   2.849 -0.0436  0.1324 -0.0309
 6054W        W21863  14.503   7.085  12.993 -0.0268 -0.2281  0.0496
 6055W        W21864   9.722  13.245   0.553  0.0411 -0.0006  0.1189
 6056W        W21865  17.490  10.004  12.771 -0.0843 -0.1927 -0.3899
 6057W        W21866   3.213   1.710   5.051  0.3394  0.0274  0.0858
 6058W        W21867   4.945  13.162   0.893  0.4833 -0.1465  0.2384
 6059W        W21868   7.937   1.174  14.034  0.2259 -0.0708 -0.0129
 6060W        W21869   4.535   0.971  11.587 -0.1176  0.2967 -0.2822
 6061W        W21870   2.153  13.168  14.634 -0.1971  0.1219  0.1084
 6062W        W21871  17.546   2.526   5.184  0.0501 -0.0378 -0.0195
 6063W        W21872  10.015   0.991  11.688 -0.2765  0.1511 -0.1475
 6064W        W21873  10.344   3.568   4.884 -0.0343 -0.1873  0.2555
 6065W        W21874   3.206   4.582  11.314 -0.1552  0.2084 -0.1101
 6066W        W21875   2.922   4.382   1.828 -0.2145  0.2912 -0.1333
 6067W        W21876   8.038  14.565  12.621  0.1355 -0.0468 -0.0082
 6068W        W21877   2.525  17.007   0.104 -0.2472  0.1052 -0.0885
 6069W        W21878   5.817   2.458   5.144  0.2905  0.1516  0.1195
 6070W        W21879   7.804   8.684  13.133 -0.0020 -0.2057 -0.2745
 6071W        W21880   7.181   5.601  12.339 -0.0133 -0.0843  0.1444
 6072W        W21881  12.444   6.597   4.351 -0.1880  0.0544  0.0491
 6073W        W21882  12.627  17.098   0.918 -0.1841  0.2594  0.0879
 6074W        W21883  16.611   4.982  12.729  0.0537  0.5866 -0.1752
 6075W        W21884   7.235  18.654   1.498  0.1455 -0.1263 -0.4042
 6076W        W21885  14.095   6.080   5.330 -0.0167 -0.0676 -0.0245
 6077W        W21886   6.528  12.731  12.696  0.0930  0.2061 -0.1100
 6078W        W21887  14.801   1.718  10.826 -0.0140 -0.1428  0.1495
 6079W        W21888  15.137  13.485  11.686 -0.0570  0.1014  0.0374
 6080W        W21889   6.507  17.031   1.202 -0.0653  0.2610  0.0968
 6081W        W21890   3.467   6.712   3.685 -0.2052  0.0919 -0.2285
 6082W        W21891   9.955   4.674  10.577  0.0462  0.0079 -0.2180
 6083W        W21892  17.132   9.907  13.762  0.2434 -0.1251 -0.0395
 6084W        W21893   5.009  17.247  13.063  0.0122 -0.1873 -0.3400
 6085W        W21894  15.560  13.455  13.473  0.1740  0.2607 -0.3638
 6086W        W21895   1.524   9.930  12.652 -0.0838 -0.1812 -0.4302
 6087W        W21896   7.488  11.881  15.017  0.1793  0.0604  0.1891
 6088W        W21897  10.510   1.959   2.508 -0.0005  0.3434 -0.0598
 6089W        W21898   8.193   8.776  14.651 -0.0437 -0.2001  0.0362
 6090W        W21899   8.159  17.645   3.765 -0.1563  0.2933  0.1234
 6091W        W21900  16.077   0.079  13.274 -0.1831 -0.0802 -0.1501
 6092W        W21901  13.491  18.292  13.377  0.3182  0.0168  0.5926
 6093W        W21902  12.143   9.790  15.556  0.1858 -0.2943  0.2282
 6094W        W21903   9.579  16.834   4.643 -0.0917  0.0833 -0.5054
 6095W        W21904   7.112  15.205  10.619 -0.0601  0.4529  0.5300
 6096W        W21905   9.756   1.603  11.680  0.1210  0.1681 -0.0226
 6097W        W21906  16.369  12.528   1.623  0.0998  0.0537  0.0981
 6098W        W21907  16.069   8.044   1.509 -0.2742  0.1615 -0.1278
 6099W        W21908  11.036   8.735   2.871 -0.1185 -0.4433 -0.2691
 6100W        W21909  15.936  16.814  11.169  0.2243 -0.2530 -0.1978
 6101W        W21910   6.511  17.248   3.232  0.0659  0.2729  0.0026
 6102W        W21911   9.350  10.802  14.325 -0.0277  0.2776 -0.1822
 6103W        W21912  11.410   1.483   4.402 -0.6880  0.1600 -0.3078
 6104W        W21913   3.372   5.161  12.844 -0.3914  0.0410 -0.0547
 6105W        W21914  18.548   8.924   1.877 -0.0871  0.0688  0.0877
 6106W        W21915   9.384   9.120   0.703  0.1958  0.2726  0.2539
 6107W        W21916  10.286   0.082  14.514 -0.3055 -0.1336  0.0343
 6108W        W21917   6.832  14.819  13.283  0.0385  0.0954 -0.1289
 6109W        W21918  16.998  18.153  11.850 -0.0559 -0.2436  0.1683
 6110W        W21919  18.361  15.397  12.021 -0.0793  0.0641  0.2253
 6111W        W21920   4.859   4.561   3.148  0.0863 -0.0720 -0.0678
 6112W        W21921   1.861   7.151  11.409 -0.0832  0.0382  0.0443
 6113W        W21922  12.312   9.291   9.801  0.1854 -0.0086 -0.0923
 6114W        W21923  10.935   9.578  10.828  0.0943 -0.0874 -0.3510
 6115W        W21924   6.492   8.308  14.499  0.2208  0.0702  0.1964
 6116W        W21925   6.394   1.206  11.795 -0.0697 -0.4042  0.1502
 6117W        W21926   1.621  16.652   5.068 -0.1465 -0.0601 -0.2443
 6118W        W21927   8.571   2.395  11.711  0.0245 -0.2635  0.0854
 6119W        W21928   1.671  13.119   2.159 -0.1703  0.3392  0.2482
 6120W        W21929   0.609  14.908   5.531  0.0329  0.0239 -0.0296
 6121W        W21930  13.261  17.966   0.626  0.2018 -0.1193 -0.1166
 6122W        W21931   6.185   4.921  14.129 -0.2247  0.1404 -0.1454
 6123W        W21932   7.209  12.759   9.843 -0.0790  0.1721 -0.2790
 6124W        W21933  15.633  16.755   3.199 -0.1903 -0.0709 -0.1146
 6125W        W21934  12.315   4.310  13.498 -0.5604 -0.2670 -0.0487
 6126W        W21935   8.929   2.074  11.861 -0.0168 -0.0392 -0.0980
 6127W        W21936   9.542  15.481  11.806  0.1477  0.3551  0.3455
 6128W        W21937   6.675   8.754   5.778 -0.1461  0.0247 -0.2130
 6129W        W21938   5.863   7.567   0.387  0.0376  0.1581  0.0656
 6130W        W21939   2.220   3.086   0.622  0.2634 -0.3462 -0.3406
 6131W        W21940  11.734   6.925  12.708  0.4644  0.0119  0.0618
 6132W        W21941   6.552  13.717   1.251  0.0633 -0.2179 -0.1658
 6133W        W21942  10.375   8.552   2.461  0.0641  0.0650  0.0649
 6134W        W21943   1.726   7.267   4.396 -0.1552 -0.1497  0.0624
 6135W        W21944  17.082   6.881   5.325  0.2008 -0.6635 -0.0375
 6136W        W21945  15.910   1.020  11.162 -0.3037  0.0317 -0.0022
 6137W        W21946   2.174   7.383  14.201 -0.5530 -0.0131  0.3289
 6138W        W21947  18.344   8.307  13.425 -0.2414  0.2022  0.2052
 6139W        W21948   3.010   1.896   0.579 -0.1837  0.1888  0.3415
 6140W        W21949   2.401   9.809   5.321  0.2069 -0.1539  0.2020
 6141W        W21950   1.182   7.546   0.870 -0.1989  0.2386 -0.0317
 6142W        W21951  12.934  13.461   5.363  0.3077 -0.0826 -0.2479
 6143W        W21952  15.744   7.943  12.476  0.2686  0.0329 -0.0843
 6144W        W21953   2.013  16.556  12.053 -0.0131 -0.1860  0.3106
 6145W        W21954   1.523  13.247   3.432 -0.1225  0.0117 -0.3279
 6146W        W21955   3.572   7.784  13.832 -0.1883  0.2569  0.1443
 6147W        W21956   0.598  10.540   1.334  0.1423  0.3891  0.0666
 6148W        W21957   8.304  14.369   0.130 -0.0877 -0.1105  0.0205
 6149W        W21958  12.960   2.165   0.832  0.0899 -0.1104  0.3027
 6150W        W21959   4.053  14.628   2.530  0.1515  0.0826 -0.1225
 6151W        W21960  13.428  15.109   0.577  0.0026  0.1451 -0.0453
 6152W        W21961  18.553  11.681   3.363  0.3391 -0.1718 -0.1097
 6153W        W21962  13.691   9.017   3.050  0.1929  0.3204  0.3705
 6154W        W21963   2.452   6.512   5.699  0.0550  0.3867 -0.1256
 6155W        W21964   5.624  16.768  11.390  0.0106 -0.0086  0.1811
 6156W        W21965  14.298  13.800   0.475 -0.1587 -0.1393  0.1940
 6157W        W21966  18.307  13.728  13.761  0.0160 -0.0034 -0.2167
 6158W        W21967  15.116   4.361  14.031  0.0742 -0.0149 -0.0493
 6159W        W21968   6.214   5.239  13.274  0.0656 -0.2605 -0.1572
 6160W        W21969   9.337  11.202  12.574  0.0284 -0.0158 -0.0723
 6161W        W21970  11.557   4.322   2.352 -0.1814 -0.1445 -0.0447
 6162W        W21971   8.109  14.704   2.252  0.1509 -0.3070 -0.1290
 6163W        W21972  12.192  16.127   0.665 -0.0896 -0.0078  0.1013
 6164W        W21973   4.121   5.672   5.710  0.0699  0.1807 -0.0926
 6165W        W21974   9.740   3.925  15.512  0.0504 -0.0274  0.1119
 6166W        W21975  14.789   0.526  13.351 -0.2000 -0.0851 -0.0244
 6167W        W21976   3.205   3.649  13.032 -0.0491 -0.1188  0.0507
 6168W        W21977   5.384   0.092  14.845  0.3339 -0.0941  0.1396
 6169W        W21978   1.797  16.676  13.332  0.0678 -0.0559  0.0925
 6170W        W21979  16.839   0.181   1.296 -0.1193 -0.1260  0.1686
 6171W        W21980  11.202   2.744  13.370 -0.0950 -0.0365 -0.0708
 6172W        W21981   4.330  15.620   4.251  0.1410  0.1677 -0.1075
 6173W        W21982   6.829  10.766  11.040 -0.2331  0.1676  0.1500
 6174W        W21983  10.398  10.272   5.635 -0.0746  0.1111  0.1033
 6175W        W21984  14.195   7.060  12.538  0.1805 -0.0602  0.0582
 6176W        W21985   1.484   2.628  13.595  0.1254 -0.0642  0.0855
 6177W        W21986   4.221   0.128   3.490  0.0336 -0.3142 -0.0140
 6178W        W21987  11.406  10.182  15.238  0.1202  0.0380 -0.0344
 6179W        W21988  17.314   2.212  10.627  0.0273  0.1823 -0.1204
 6180W        W21989  10.677   5.782  11.495  0.2755  0.1645  0.3265
 6181W        W21990  12.387   4.983  12.854  0.0069  0.2577  0.1343
 6182W        W21991  15.397   9.706  15.126 -0.1762 -0.1656 -0.1736
 6183W        W21992   4.790   2.446  12.770  0.0217 -0.2066  0.2083
 6184W        W21993   4.264   6.599  12.984 -0.0722  0.0318 -0.4018
 6185W        W21994   3.819   0.213   0.524 -0.0928  0.0054 -0.0721
 6186W        W21995  16.357  14.084   3.397 -0.3541 -0.4016  0.2664
 6187W        W21996   5.324  15.890  11.931 -0.1290 -0.0145 -0.1321
 6188W        W21997   2.462   1.850   4.559 -0.0343 -0.3061  0.2854
 6189W        W21998   6.944   8.227  10.376 -0.2138  0.0384  0.1236
 6190W        W21999   6.900   4.784  14.690  0.1349  0.2101  0.0432
 6191W        W22000  14.807  13.379  13.933 -0.2749 -0.2204 -0.2500
 6192W        W22001   4.728   1.436  13.272 -0.2711 -0.4513 -0.2002
 6193W        W22002   7.972  12.597  14.682  0.2057 -0.1836  0.1263
 6194W        W22003  18.419  18.504  13.640 -0.1907 -0.2167  0.0923
 6195W        W22004  16.137   6.315  14.256  0.0667 -0.2698 -0.1844
 6196W        W22005   3.448   5.675   1.681 -0.0628 -0.1238 -0.0976
 6197W        W22006  11.731   9.806  11.574 -0.1955 -0.0168  0.1776
 6198W        W22007   6.954   8.280   4.728  0.0709 -0.0754 -0.1319
 6199W        W22008   6.520   1.495   0.874 -0.0517 -0.0113  0.2495
 6200W        W22009   3.633   7.923  13.207 -0.0967 -0.1685  0.0950
 6201W        W22010   9.889  10.053  10.775 -0.2015  0.1779  0.0578
 6202W        W22011  10.789  15.415  14.900  0.3094  0.0045  0.2214
 6203W        W22012   0.898  17.167   5.519  0.1796  0.0733  0.2607
 6204W        W22013   5.742  15.381  13.513 -0.2426 -0.1590 -0.0755
 6205W        W22014  12.451   5.440  12.517 -0.0229 -0.0779 -0.1840
 6206W        W22015   8.127   0.971  14.450 -0.1132 -0.1255  0.4581
 6207W        W22016  10.601  18.390   3.039  0.2260  0.0136 -0.1887
 6208W        W22017  12.012  12.899  12.664  0.1359 -0.0215 -0.0622
 6209W        W22018   1.126  15.259   3.644 -0.0614 -0.1494 -0.3600
 6210W        W22019   2.972   2.145   5.264 -0.1057 -0.1743 -0.3060
 6211W        W22020   0.198  16.177   3.921  0.1885  0.1742  0.1166
 6212W        W22021  17.536   3.388  11.850 -0.1958  0.1472 -0.0256
 6213W        W22022  15.322  16.072  12.203  0.0240  0.0184 -0.1963
 6214W        W22023  16.990   9.892  14.288  0.0598  0.0798 -0.1995
 6215W        W22024   2.658   1.376  13.533 -0.1927 -0.2341 -0.1367
 6216W        W22025   7.698  18.142  10.827 -0.3075  0.0618  0.1116
 6217W        W22026  14.892   2.761  12.946 -0.2425 -0.2743 -0.2728
 6218W        W22027  18.662   9.289   5.338 -0.0036 -0.0500 -0.2972
 6219W        W22028  11.411   0.645  14.021  0.0692  0.0628  0.1737
 6220W        W22029  10.201   3.485   0.846  0.0362  0.0333 -0.1599
 6221W        W22030   4.681  14.822   3.591 -0.3164  0.1404 -0.2204
 6222W        W22031   8.407  10.376  12.844  0.0628 -0.0668 -0.0824
 6223W        W22032  17.636   3.290  12.467 -0.1368 -0.0333 -0.0400
 6224W        W22033   0.937  14.284   1.906  0.1637 -0.2498 -0.2871
 6225W        W22034  17.902   7.869  15.468 -0.0677  0.1405 -0.0506
 6226W        W22035  11.564  14.551  14.338 -0.1164  0.0643 -0.0030
 6227W        W22036   5.979  15.664   4.389 -0.1331  0.0548  0.1531
 6228W        W22037  10.621  15.505  13.417  0.0178 -0.1306  0.3715
 6229W        W22038   9.139   1.747   1.299  0.2608  0.2087 -0.1678
 6230W        W22039  13.609  12.092  15.397 -0.0397 -0.0320  0.0546
 6231W        W22040   4.680   3.839   3.288 -0.1055 -0.1282  0.0334
 6232W        W22041  14.325  16.220  14.199 -0.4053  0.0409  0.1391
 6233W        W22042  10.748  11.948   2.796  0.2312 -0.4531 -0.0722
 6234W        W22043  18.010  14.431   1.626 -0.0084  0.0314  0.4022
 6235W        W22044   3.908   5.778   2.638  0.3687  0.0343  0.3305
 6236W        W22045  13.501   1.939   4.510 -0.0556 -0.3987  0.2405
 6237W        W22046  10.924   7.482  11.406  0.1550  0.0384  0.0652
 6238W        W22047  15.434   1.069   4.020  0.2548 -0.3089 -0.2130
 6239W        W22048   4.630  16.833   5.317  0.1838  0.1076  0.0714
 6240W        W22049  13.531   8.600   3.390  0.0811 -0.3664  0.0980
 6241W        W22050  11.728   2.873  13.260  0.2321  0.2720  0.0116
 6242W        W22051   5.022  14.693  11.402 -0.0166  0.1409 -0.1091
 6243W        W22052   3.392  12.165   5.384 -0.0126 -0.2698  0.0319
 6244W        W22053   8.546  13.890  15.643 -0.0441  0.1936  0.2020
 6245W        W22054   9.362  10.726  11.285  0.2032 -0.1104 -0.0112
 6246W        W22055  14.651  16.462   1.856  0.0518  0.2927 -0.1755
 6247W        W22056  18.024   7.391  14.538  0.0595 -0.2453  0.0991
 6248W        W22057   3.722   6.710  11.263  0.0533 -0.0607  0.3543
 6249W        W22058  16.004  10.566  15.444 -0.1657 -0.1136 -0.0845
 6250W        W22059  17.588   8.256   0.952  0.0532 -0.0136  0.0190
 6251W        W22060  17.479   7.601  15.329 -0.0427  0.3566 -0.1177
 6252W        W22061   0.182   8.712   4.420 -0.0368 -0.1554 -0.0639
 6253W        W22062  16.787  11.189   3.311 -0.1030  0.1678  0.0829
 6254W        W22063  13.749  14.454  10.431 -0.0194 -0.1849  0.1521
 6255W        W22064   3.744   3.002  14.106  0.2444 -0.0526  0.2521
 6256W        W22065  16.408  14.670  13.501 -0.0233 -0.3937 -0.2848
 6257W        W22066  10.048  17.375   4.895  0.0507 -0.1370  0.1365
 6258W        W22067   2.492  10.574   1.989  0.0758 -0.0387 -0.2033
 6259W        W22068   9.033  14.804   3.398  0.1567 -0.0739  0.2279
 6260W        W22069   6.288   7.443  14.483 -0.0478 -0.1182  0.1313
 6261W        W22070   7.566   2.286  15.026  0.2732 -0.0707 -0.1232
 6262W        W22071   0.969   0.345   3.933  0.4778  0.0144  0.0324
 6263W        W22072  10.455  13.141  13.661  0.1353 -0.1255 -0.0741
 6264W        W22073   9.209  12.615   2.795  0.1829  0.0016  0.1651
 6265W        W22074  18.103   7.342  13.870 -0.0855 -0.2183  0.2598
 6266W        W22075   1.831  16.732   0.533  0.2620 -0.0918  0.0552
 6267W        W22076   8.306  11.359  13.221 -0.0360  0.0558 -0.1840
 6268W        W22077   4.353   6.487   2.440  0.0759 -0.1682  0.0249
 6269W        W22078  17.587   1.410  11.441 -0.3925 -0.1755 -0.3249
 6270W        W22079   3.388   9.197   3.907 -0.2663 -0.0660 -0.2800
 6271W        W22080   4.136  16.977   3.237  0.0911  0.1298 -0.0591
 6272W        W22081   9.441   9.212   4.168 -0.0783  0.1565  0.0033
 6273W        W22082   6.622  17.737  11.729  0.1215 -0.0764 -0.4578
 6274W        W22083  12.430   4.267   3.281 -0.6556  0.2832  0.2756
 6275W        W22084   7.728   0.418   2.535 -0.4957  0.1576  0.0370
 6276W        W22085   4.908   8.700   0.716 -0.1090 -0.1154 -0.2554
 6277W        W22086  11.033  12.644  10.385  0.1541 -0.1290 -0.0221
 6278W        W22087  15.670   3.285  13.009  0.0024  0.1595  0.1290
 6279W        W22088  16.677  15.403  15.129  0.0087  0.2348  0.1549
 6280W        W22089   6.629   3.044  13.460  0.0568 -0.0513  0.1452
 6281W        W22090  13.848   6.598   4.899 -0.1901 -0.1326  0.1204
 6282W        W22091   0.336  10.896  11.388 -0.0819 -0.2185  0.0799
 6283W        W22092  11.799   2.611   0.941  0.2111  0.3313 -0.0872
 6284W        W22093  15.251   8.364   2.379 -0.0764 -0.1170 -0.0463
 6285W        W22094  15.890   1.227   4.733  0.1137 -0.1372  0.1390
 6286W        W22095  14.207   7.255   5.456 -0.0318  0.0621  0.2539
 6287W        W22096  14.503   3.004   2.776 -0.1196 -0.0110  0.1902
 6288W        W22097   2.000  10.536   2.073  0.0190  0.0846 -0.1169
 6289W        W22098  18.162   6.549  11.724  0.0193  0.1075  0.0017
 6290W        W22099  11.323   2.565  12.413 -0.3912  0.2764 -0.1265
 6291W        W22100   3.056  10.889  14.171  0.0765 -0.0229  0.3438
 6292W        W22101   5.868  12.751  10.064  0.0229  0.0728  0.0309
 6293W        W22102  14.033   3.723  11.578  0.1895  0.1630 -0.1763
 6294W        W22103  16.881   9.878   0.381 -0.0122  0.2401 -0.1592
 6295W        W22104   7.990  16.601  15.158 -0.2012 -0.0726  0.1115
 6296W        W22105   5.530  13.289  10.899  0.0792  0.2024 -0.0329
 6297W        W22106   7.307  14.406  12.767 -0.1156  0.3785 -0.0029
 6298W        W22107   9.359   6.904  12.611 -0.1361  0.0801 -0.1979
 6299W        W22108  17.807  16.668  14.618 -0.1627 -0.1838 -0.0852
 6300W        W22109  11.307   2.200   5.170  0.0051  0.2825  0.0355
 6301W        W22110  12.741   0.485   1.309 -0.0674 -0.1131 -0.1651
 6302W        W22111   5.545  11.341   3.746 -0.2197 -0.0372  0.3595
 6303W        W22112   8.610   3.455   2.664  0.0152  0.1305 -0.0418
 6304W        W22113   5.227  13.746  13.600  0.1876 -0.1195  0.2160
 6305W        W22114  15.292  14.507  12.170  0.0057 -0.2897 -0.0109
 6306W        W22115   6.918  16.613   2.708  0.4736 -0.2068  0.0123
 6307W        W22116   1.491  15.716   2.861  0.2060  0.0806  0.4092
 6308W        W22117   1.771  11.537   1.971 -0.1962 -0.2119 -0.0855
 6309W        W22118  13.280  17.679  10.892 -0.0547 -0.4626  0.2032
 6310W        W22119  16.361   0.250   1.085  0.1076  0.1957  0.1532
 6311W        W22120  17.062   6.022   3.204  0.1094  0.2837 -0.1165
 6312W        W22121   6.098  15.290  14.928  0.0708  0.1481  0.0500
 6313W        W22122  13.850   6.882   5.637  0.0167  0.4535 -0.1572
 6314W        W22123  10.293   5.386   4.433  0.1633  0.0710  0.2095
 6315W        W22124   4.614   8.589   0.074 -0.2341  0.0826 -0.0446
 6316W        W22125   2.218   7.520  15.265  0.0015 -0.1582 -0.1263
 6317W        W22126   9.835  12.796   0.752  0.1466  0.3973 -0.2306
 6318W        W22127  15.984   2.285  13.922 -0.1419  0.2894 -0.1300
 6319W        W22128   9.450  16.994   3.720 -0.1777  0.2606  0.1854
 6320W        W22129   8.427  13.076  11.967  0.3142 -0.3059  0.1346
 6321W        W22130  10.122  13.561   4.582  0.1897 -0.2233  0.1702
 6322W        W22131   1.012  12.310  15.380  0.0582  0.1081 -0.0882
 6323W        W22132  14.012   1.044  15.175 -0.0273  0.1911  0.0036
 6324W        W22133  11.606  10.002   2.198 -0.1386  0.0258  0.3811
 6325W        W22134  12.492  17.505  14.750  0.1447  0.2156 -0.1143
 6326W        W22135  15.742   5.054   1.487  0.0734  0.2464 -0.2608
 6327W        W22136  12.858   4.529   4.829 -0.1909 -0.1201  0.2731
 6328W        W22137  12.614   1.852  15.609  0.3627  0.0996  0.0207
 6329W        W22138  12.465   6.103   4.582  0.0282  0.0574  0.2148
 6330W        W22139  18.355  16.100   4.019  0.1858  0.4253  0.0042
 6331W        W22140  15.917   2.529  12.366  0.0000  0.3828  0.2611
 6332W        W22141  12.962  15.757   1.878  0.0640  0.2626  0.1744
 6333W        W22142  13.706   3.966   0.744  0.2660 -0.1116 -0.1074
 6334W        W22143  12.820   7.843   2.866 -0.0235  0.1628 -0.1153
 6335W        W22144   1.609   6.780   4.433  0.1012 -0.1527 -0.1677
 6336W        W22145   9.819   0.722   1.252 -0.3468  0.1210  0.4119
 6337W        W22146  11.256  14.649  15.188 -0.2053  0.1055  0.0085
 6338W        W22147   9.743  11.489  15.607  0.2336  0.1600  0.2579
 6339W        W22148   7.830  16.813   4.337 -0.1465  0.1225 -0.2584
 6340W        W22149   3.854  10.752  13.293 -0.0190 -0.0783  0.1921
 6341W        W22150   0.728  17.103   4.119  0.0617 -0.0365  0.1008
 6342W        W22151   0.926   6.565   5.018  0.2175 -0.0861  0.1049
 6343W        W22152   2.109  16.202  11.099  0.2253  0.0952 -0.0202
 6344W        W22153   8.755   9.096   2.652 -0.0095 -0.1839 -0.2119
 6345W        W22154  18.538   9.640  13.579  0.0710  0.0353  0.0714
 6346W        W22155   6.276   0.035   3.854  0.2012 -0.0786  0.0688
 6347W        W22156   7.273   9.516  12.929  0.2629  0.1118 -0.0299
 6348W        W22157  12.959   2.391   4.021  0.0488  0.0390  0.0874
 6349W        W22158  12.866  17.755  13.446 -0.1781 -0.0400 -0.1821
 6350W        W22159   2.860   7.122  14.273 -0.1966  0.3182  0.1799
 6351W        W22160   1.484   9.210  10.366 -0.0303 -0.2798  0.3362
 6352W        W22161   4.324   1.519  10.841  0.2191  0.4808 -0.1737
 6353W        W22162  11.304  14.124   0.657  0.0917 -0.1308  0.0442
 6354W        W22163  17.408  11.085   1.262  0.1250  0.2252  0.3863
 6355W        W22164  11.079   9.972   2.026  0.0058 -0.2117 -0.1957
 6356W        W22165   2.831  18.555  14.522 -0.3607 -0.1683 -0.1152
 6357W        W22166  16.953  10.269   3.515 -0.2630 -0.0676 -0.0459
 6358W        W22167  11.382  17.836   1.147 -0.2203 -0.4028  0.2349
 6359W        W22168  18.328   5.318  11.181  0.0845 -0.4303 -0.3859
 6360W        W22169   6.801   2.787   4.455  0.0206  0.0326 -0.0681
 6361W        W22170   0.680  12.343   2.555 -0.0159  0.1697  0.0778
 6362W        W22171   0.144   1.491   1.457 -0.0349  0.1630  0.1733
 6363W        W22172   1.948  12.166  13.137 -0.0407  0.0637  0.0911
 6364W        W22173  10.992   8.498  11.555 -0.0627  0.3501 -0.2543
 6365W        W22174  10.883   5.642   2.643 -0.0078  0.2854 -0.3340
 6366W        W22175   7.787   6.482   2.675 -0.3520 -0.1306 -0.1977
 6367W        W22176  17.842  13.647  14.125 -0.1652  0.1502 -0.3319
 6368W        W22177   8.209  15.538   1.311  0.0158 -0.0349  0.2973
 6369W        W22178  12.291   3.155   1.906  0.0485  0.3312  0.0416
 6370W        W22179  11.928   5.429  15.065 -0.1308 -0.1536 -0.1478
 6371W        W22180  10.217  18.419   4.818  0.4873 -0.1442 -0.1551
 6372W        W22181  12.154  18.259  13.745  0.1365 -0.0712  0.2165
 6373W        W22182  10.549  12.373   3.553 -0.0262 -0.1120 -0.2378
 6374W        W22183   5.288   4.953  13.591 -0.1210 -0.2552  0.3015
 6375W        W22184   9.606  17.394   0.965  0.2544 -0.0456 -0.2537
 6376W        W22185   7.947  15.729   2.335  0.3260  0.1484 -0.1712
 6377W        W22186   1.969   1.616   1.606 -0.4397  0.0902 -0.1002
 6378W        W22187   2.396   1.992  11.602  0.5827  0.1354  0.1134
 6379W        W22188   4.449   2.393  13.260 -0.2599  0.0235 -0.0858
 6380W        W22189  10.706  12.359  13.330 -0.1293  0.0065 -0.3381
 6381W        W22190   5.317  13.130  15.617 -0.1585 -0.4857  0.1892
 6382W        W22191   9.730   2.016   3.979  0.3980 -0.1591 -0.0435
 6383W        W22192  17.624  14.982   3.084 -0.0804 -0.1012  0.3660
 6384W        W22193   5.480   6.188  12.465  0.0770  0.0816 -0.1847
 6385W        W22194   1.033  15.599  15.087  0.2426  0.0924  0.0736
 6386W        W22195   2.759   5.082  13.332  0.0692  0.2109  0.0929
 6387W        W22196   7.238  18.328  15.221 -0.2867  0.0471 -0.0996
 6388W        W22197   2.793  12.630   5.971  0.1572  0.1903 -0.1258
 6389W        W22198   4.017  13.314   3.845 -0.2809  0.0459 -0.2345
 6390W        W22199  17.510  12.903  11.733  0.1368  0.0516 -0.0265
 6391W        W22200   3.007  13.932   6.112 -0.2470  0.2064  0.1640
 6392W        W22201   8.512  10.775   1.827  0.0297  0.0037 -0.0763
 6393W        W22202  11.905  17.118   0.359  0.1338 -0.2065 -0.0873
 6394W        W22203  17.664   5.602  12.104 -0.0956  0.3712 -0.0917
 6395W        W22204  11.250   1.563   0.952 -0.0823 -0.3012 -0.1367
 6396W        W22205  16.788  14.315   2.524 -0.0977  0.0012  0.1291
 6397W        W22206  10.581  17.567   0.369  0.0554 -0.1064  0.2404
 6398W        W22207  10.314   3.623  13.721  0.1406  0.0612  0.0823
 6399W        W22208   8.125   0.240   2.750  0.2491  0.1545  0.0109
 6400W        W22209  17.944  17.193  12.281  0.1372 -0.0127  0.0034
 6401W        W22210  16.577  18.051  11.590  0.1250 -0.0528  0.4471
 6402W        W22211   8.181  14.785  14.335  0.0525 -0.1275  0.1142
 6403W        W22212   5.952  12.993  15.528  0.0015  0.1998 -0.1611
 6404W        W22213   2.618  16.710  11.436 -0.0096  0.3510 -0.0057
 6405W        W22214  13.633  11.029  13.596 -0.1786  0.2181  0.2611
 6406W        W22215  10.420  11.742  11.639 -0.0540 -0.0471 -0.3146
 6407W        W22216   6.163  18.277   4.104 -0.0377 -0.0866  0.1612
 6408W        W22217  10.824   9.459  11.309  0.0606  0.1817 -0.0232
 6409W        W22218   4.913   9.322   5.318  0.0021  0.3535 -0.0293
 6410W        W22219   8.896   6.742  11.607 -0.0253 -0.0734 -0.2517
 6411W        W22220  17.815  13.548   1.354 -0.1035  0.1087  0.1357
 6412W        W22221   5.138  11.818   0.159  0.1595 -0.0597  0.0192
 6413W        W22222  11.722   9.559  10.631 -0.1697  0.2152 -0.0739
 6414W        W22223   1.450   2.007   1.916 -0.1142  0.0968  0.1431
 6415W        W22224   0.108   8.563  11.778  0.2148 -0.0326  0.0205
 6416W        W22225   0.364   7.299  12.454  0.0608  0.3229 -0.1999
 6417W        W22226   7.042  15.442  14.136  0.0051  0.2584 -0.3567
 6418W        W22227   4.294  16.676   1.244 -0.1069  0.0257 -0.2060
 6419W        W22228   2.455   8.367   5.301  0.2043 -0.0598  0.1847
 6420W        W22229   1.193  16.262  12.213 -0.1848  0.1524 -0.2178
 6421W        W22230   2.559   3.689  14.716 -0.1299 -0.0128  0.2196
 6422W        W22231  12.739  17.966  12.982 -0.0725 -0.0358  0.0464
 6423W        W22232   5.405  17.319  13.446  0.1716  0.0223  0.0145
 6424W        W22233   5.895   4.041   0.288 -0.0279  0.0354  0.2845
 6425W        W22234   7.702  17.628  12.997  0.1141  0.1004  0.0009
 6426W        W22235   5.271   1.492   1.101 -0.1116  0.1780 -0.2120
 6427W        W22236  15.615  13.441   2.508  0.1959  0.1468 -0.4150
 6428W        W22237   3.360   3.917   9.932  0.0886 -0.2559  0.4395
 6429W        W22238   4.161   4.593  12.109 -0.1200  0.0360 -0.1753
 6430W        W22239   5.368   8.166   2.181 -0.1433 -0.1213  0.3931
 6431W        W22240  14.383   6.246  13.990  0.0401  0.0238  0.2444
 6432W        W22241   1.329   5.969   2.103 -0.0580 -0.2650  0.0131
 6433W        W22242   4.133  17.657   1.721 -0.0493 -0.0233 -0.2469
 6434W        W22243   8.060   3.774  14.725  0.0347  0.2111  0.3863
 6435W        W22244  16.555   0.042  14.246  0.0836  0.0558 -0.1728
 6436W        W22245  16.714  12.498  12.512  0.0237  0.2368  0.1066
 6437W        W22246  13.474  15.047  13.648  0.0545 -0.1117  0.2553
 6438W        W22247   5.146   3.222  15.265  0.1809 -0.1185 -0.1482
 6439W        W22248  17.817   1.866  14.173 -0.2061 -0.0974  0.0211
 6440W        W22249   1.635   6.811   0.555 -0.2583 -0.0776  0.0033
 6441W        W22250  11.892  11.275   2.746 -0.0495  0.1066  0.3212
 6442W        W22251  13.129   9.111  11.052 -0.1254 -0.1888 -0.0280
 6443W        W22252  15.289  12.734   4.074 -0.2324  0.0105 -0.2501
 6444W        W22253   3.053  10.247   4.578 -0.0089  0.1726 -0.2989
 6445W        W22254  11.118  14.644  10.377 -0.0870 -0.0153  0.2239
 6446W        W22255   8.722  13.557   0.301  0.2357 -0.1837 -0.0449
 6447W        W22256  15.161  15.552   2.740  0.3193  0.2203  0.2752
 6448W        W22257  10.808  11.404  13.805  0.0922 -0.1290  0.0205
 6449W        W22258   2.354  18.311  13.223 -0.0658  0.2149 -0.2855
 6450W        W22259   0.846   4.157   0.259 -0.0135  0.2354 -0.0169
 6451W        W22260   5.641   2.677  14.192 -0.1701 -0.3214 -0.0437
 6452W        W22261  16.675  12.648   4.586  0.0526 -0.0867 -0.0593
 6453W        W22262   8.543  18.321  11.446  0.1638 -0.3144  0.0667
 6454W        W22263   2.258  18.557  14.574  0.1372  0.2969  0.0401
 6455W        W22264   4.759   2.722   2.312  0.4487 -0.1652  0.0487
 6456W        W22265  16.458   3.297   4.268  0.0754 -0.0118 -0.2292
 6457W        W22266  12.657  10.845   1.687  0.2221  0.1115 -0.2047
 6458W        W22267   2.007  17.121   0.800 -0.2295 -0.1640 -0.2107
 6459W        W22268   0.320  14.922  13.707  0.1573  0.0923 -0.1287
 6460W        W22269   2.347  14.826   9.994  0.0211 -0.0446 -0.4032
 6461W        W22270   2.832   7.817   1.882 -0.3573 -0.0903  0.0489
 6462W        W22271  11.032   3.279  14.781 -0.1841 -0.0688  0.3766
 6463W        W22272   0.231   0.575  15.525 -0.0989  0.3262  0.0101
 6464W        W22273  13.863   8.282   2.073 -0.0316 -0.2656 -0.2003
 6465W        W22274   3.501  13.092  13.200 -0.1754 -0.0281 -0.1620
 6466W        W22275  13.164  15.925  10.543  0.0838  0.2342  0.0167
 6467W        W22276   8.274   6.319   0.221  0.3734  0.4003  0.0794
 6468W        W22277   1.888  11.972   0.212  0.1230 -0.1142  0.0480
 6469W        W22278   1.226  18.649  14.155 -0.0026  0.1029  0.0033
 6470W        W22279  11.371  10.817  10.398  0.1500 -0.4425  0.2972
 6471W        W22280  14.898   2.762   4.380  0.0653 -0.1891 -0.2857
 6472W        W22281  12.215   9.482  10.725 -0.0084 -0.0955 -0.1864
 6473W        W22282   1.427   7.851  11.596  0.0612 -0.1169 -0.2137
 6474W        W22283   7.174   7.001  14.615  0.3636 -0.1103  0.0308
 6475W        W22284   4.731   6.165   0.128  0.0596 -0.0399  0.1551
 6476W        W22285   8.171   5.523   0.799 -0.1954  0.0396 -0.2033
 6477W        W22286   1.015  13.822  13.298 -0.1092  0.2308  0.0515
 6478W        W22287   7.765  11.780   1.931  0.1179  0.0175  0.0814
 6479W        W22288   4.117  13.212  14.024 -0.0411 -0.3053  0.0480
 6480W        W22289   9.759   5.932  14.107  0.2297 -0.1453  0.1520
 6481W        W22290  11.468  17.321   1.005  0.0585 -0.2672 -0.0040
 6482W        W22291   5.689   8.756   1.640 -0.2111 -0.4639  0.1170
 6483W        W22292   4.003   8.391   4.399 -0.1688 -0.1817 -0.1118
 6484W        W22293  12.229   2.217  12.254  0.0978 -0.1646 -0.1048
 6485W        W22294  16.251  11.487   3.874  0.2257  0.0639  0.0720
 6486W        W22295   6.813  14.599  11.672 -0.2475  0.0801  0.0952
 6487W        W22296   9.126  13.584   1.805  0.0817 -0.1707  0.1349
 6488W        W22297  11.515  11.588   0.336 -0.1100 -0.0417 -0.2074
 6489W        W22298  14.168  16.908  14.384  0.1736 -0.1207 -0.1676
 6490W        W22299   9.888  14.159  12.359  0.0492  0.1750 -0.1832
 6491W        W22300   7.093  13.525   0.768  0.2509  0.0725 -0.1180
 6492W        W22301   3.490   6.684   4.675  0.2066 -0.2905  0.0542
 6493W        W22302  12.046   2.989   1.072  0.0368 -0.3256  0.1981
 6494W        W22303  10.760  13.613  11.832 -0.4019 -0.1046 -0.1942
 6495W        W22304   0.200  18.601  12.320  0.0432 -0.2526 -0.0265
 6496W        W22305   8.240  15.026  12.752  0.0258 -0.0637  0.0678
 6497W        W22306  12.500   4.539   0.375 -0.1329  0.0140 -0.3424
 6498W        W22307   4.856  11.029  14.425  0.0158 -0.3113  0.1394
 6499W        W22308  12.619   6.718   1.571 -0.0712 -0.1224  0.1925
 6500W        W22309  17.916   6.954   1.556 -0.1200  0.4850  0.0312
 6501W        W22310   8.713   2.061  15.374 -0.0436 -0.2555  0.0077
 6502W        W22311  16.056   1.190   4.260  0.0755  0.0644 -0.1173
 6503W        W22312  13.468  14.719  12.248 -0.1208  0.0460 -0.1944
 6504W        W22313   7.545  16.727   3.332  0.2594 -0.1397 -0.0832
 6505W        W22314   5.068  11.363   0.829 -0.0248  0.1878  0.2668
 6506W        W22315   8.208  14.204   4.350 -0.2583  0.2947  0.2264
 6507W        W22316  11.062   4.220  10.248 -0.0407  0.0039 -0.1002
 6508W        W22317   2.956   7.551   0.444 -0.2805  0.2347 -0.1826
 6509W        W22318   3.099  17.303   4.735 -0.2187  0.0114 -0.1950
 6510W        W22319   6.322  15.095  13.553 -0.2579  0.3016  0.1307
 6511W        W22320  14.048  18.229  14.784 -0.1414 -0.1295 -0.0625
 6512W        W22321   4.954  17.354  11.668 -0.3556  0.0329 -0.0327
 6513W        W22322   8.355   5.008  10.639 -0.4151  0.2457  0.2550
 6514W        W22323  14.763  10.089  11.736  0.1466  0.1133 -0.3603
 6515W        W22324  15.417  12.079   0.103  0.1941  0.0301 -0.0616
 6516W        W22325  11.226  16.289  15.168 -0.1062  0.2056  0.1961
 6517W        W22326   2.489   0.667  13.694  0.0960  0.0376  0.0654
 6518W        W22327   9.304  15.283  12.454 -0.3356  0.1836  0.2017
 6519W        W22328   9.224   4.103   2.802 -0.0511  0.1263  0.1116
 6520W        W22329  13.609   4.775   1.450  0.0625  0.2055 -0.0741
 6521W        W22330   3.646  17.362   4.060  0.2642 -0.0520 -0.3650
 6522W        W22331  18.130   6.881  10.852 -0.1962 -0.1357  0.0567
 6523W        W22332   7.017   3.935  13.734 -0.2223 -0.3489  0.1950
 6524W        W22333  10.210  15.397   0.775  0.4382 -0.0772  0.1743
 6525W        W22334  18.547   1.494  15.104  0.2134 -0.1288 -0.0807
 6526W        W22335   0.247  14.218   2.103  0.3492  0.0284  0.0121
 6527W        W22336  10.437   0.606  14.754 -0.1971  0.3685 -0.0279
 6528W        W22337  18.555   3.825   0.463 -0.0039  0.0503 -0.0910
 6529W        W22338  15.540  17.323   1.193  0.3015  0.0650  0.1566
 6530W        W22339  13.369   3.676   0.085  0.2177  0.1326  0.1483
 6531W        W22340   0.696   7.394   4.361 -0.0407 -0.3403 -0.0938
 6532W        W22341   8.898  17.841  14.070  0.2760  0.1309 -0.0091
 6533W        W22342  15.999  18.554  12.490  0.0001  0.1007  0.1043
 6534W        W22343   0.280   7.195   5.042 -0.1387 -0.2321 -0.2759
 6535W        W22344  18.487  10.427   3.218  0.1496 -0.1209 -0.3504
 6536W        W22345   8.183  15.108  13.325  0.0170  0.2518 -0.2565
 6537W        W22346   5.627  14.538   0.950  0.0832  0.1326  0.0817
 6538W        W22347  12.762  14.503  13.562 -0.0216  0.0483  0.2297
 6539W        W22348  13.164  14.208   0.150 -0.3676 -0.1227  0.0141
 6540W        W22349  15.991   6.521  12.829  0.0322  0.0712 -0.0247
 6541W        W22350   7.749  10.422  15.602 -0.0862  0.1022  0.3263
 6542W        W22351   9.965  16.932   1.980 -0.2599  0.0391  0.0843
 6543W        W22352  18.013  15.388   2.363  0.0752  0.1466  0.1468
 6544W        W22353   0.942  11.830  11.300 -0.1830 -0.1960 -0.2622
 6545W        W22354   1.615   9.553  14.464  0.1523  0.4062 -0.0274
 6546W        W22355   0.995   0.955   3.888  0.0507  0.0533 -0.4469
 6547W        W22356   8.150   1.621   2.755  0.0956  0.2013 -0.1706
 6548W        W22357  12.663  16.881   0.165  0.1792 -0.2357  0.0692
 6549W        W22358   2.760  14.625   0.077 -0.0510 -0.2665  0.1315
 6550W        W22359   2.949   8.513  11.409 -0.0326  0.0705 -0.1426
 6551W        W22360   8.936   1.058  11.407  0.1778 -0.2540  0.0431
 6552W        W22361   1.199   6.903  13.195 -0.0709 -0.0070 -0.0106
 6553W        W22362   7.359  14.345  14.106 -0.1770 -0.3566  0.0296
 6554W        W22363  16.680  14.134  14.874 -0.0588  0.0737  0.0900
 6555W        W22364   3.562   7.194   4.829  0.0546  0.3604  0.1561
 6556W        W22365  10.667   9.928   2.332  0.0968 -0.0723  0.0934
 6557W        W22366   2.652  16.570  12.314  0.6506  0.1042 -0.1960
 6558W        W22367   7.454   3.859   5.017  0.1926 -0.2241 -0.1809
 6559W        W22368  10.210  18.654  11.933  0.0104  0.1562  0.2910
 6560W        W22369   7.582   5.609   5.656  0.0060  0.2253  0.1489
 6561W        W22370  18.604   2.792  13.203  0.2528 -0.0259 -0.0492
 6562W        W22371   9.995   8.534   5.109 -0.2936  0.0304  0.2005
 6563W        W22372  11.494  17.996   3.156  0.0981  0.2633 -0.0645
 6564W        W22373   0.146   3.410  15.150  0.1364 -0.3590  0.3217
 6565W        W22374   6.031  16.647   4.360 -0.0168 -0.0805  0.4584
 6566W        W22375   1.080  17.089   9.509  0.0191 -0.1976 -0.1016
 6567W        W22376   2.870  12.014  13.860  0.0550 -0.0787 -0.0558
 6568W        W22377  17.695   2.621   0.668  0.2086  0.1013 -0.0702
 6569W        W22378   5.967  18.328   3.130 -0.0667 -0.0022 -0.0967
 6570W        W22379   9.417  17.757   0.101 -0.1634 -0.1656  0.1986
 6571W        W22380  16.883  11.269  13.639  0.0614 -0.1591 -0.0645
 6572W        W22381  11.744   6.430   5.032 -0.2855 -0.3126 -0.2698
 6573W        W22382   1.653  17.103  13.117  0.1622  0.1278  0.2912
 6574W        W22383  13.673   3.483   0.875  0.0371 -0.0596  0.0075
 6575W        W22384   2.949  16.179   1.106  0.0317  0.0907 -0.0285
 6576W        W22385  16.205   6.870   0.468 -0.3489 -0.4076  0.1209
 6577W        W22386  12.245   7.714  12.693  0.0257  0.2635  0.0413
 6578W        W22387   0.237  18.587  12.888  0.0857 -0.0423  0.0174
 6579W        W22388   3.462   1.185   3.096  0.1313  0.0855 -0.0045
 6580W        W22389   2.495   9.809   2.440 -0.2906  0.1145 -0.2119
 6581W        W22390   4.817  17.949  14.640  0.0006 -0.0239  0.2045
 6582W        W22391  17.566  10.367   0.544  0.2130  0.2878  0.2608
 6583W        W22392  12.939  15.022  13.448  0.1876 -0.1696 -0.0198
 6584W        W22393   0.365   6.020  15.045 -0.4250 -0.1528  0.2628
 6585W        W22394   0.682  14.651  14.813 -0.0095  0.3643 -0.1451
 6586W        W22395  10.217  11.144  11.051  0.3546 -0.0242 -0.0924
 6587W        W22396  18.130  16.924   2.354  0.2056 -0.1416  0.3090
 6588W        W22397   7.881   6.469   0.551  0.0104  0.2831  0.0947
 6589W        W22398   7.807   1.454   5.385  0.1788  0.0757  0.4265
 6590W        W22399  11.804   3.644  14.332  0.2989 -0.1189 -0.0439
 6591W        W22400   2.436  10.172  14.427  0.0085 -0.0430 -0.1265
 6592W        W22401  16.201   3.744  11.066  0.3283  0.2652 -0.2008
 6593W        W22402   7.874  12.256   1.710 -0.3843 -0.1273 -0.1713
 6594W        W22403  16.277  16.976  14.757  0.0432 -0.0849 -0.4627
 6595W        W22404   7.097   7.508  12.024  0.3745  0.1836  0.3602
 6596W        W22405  13.491   5.387  15.333  0.1966  0.0431 -0.1695
 6597W        W22406   6.185   3.885  12.167  0.0413 -0.0309 -0.1385
 6598W        W22407   8.927   4.185  12.877  0.0029 -0.0972 -0.0170
 6599W        W22408   0.962   0.605  11.178 -0.1668  0.2036  0.2335
 6600W        W22409  12.859  14.709   1.942  0.1614  0.0942 -0.0200
 6601W        W22410  10.572   5.317  12.225 -0.1734  0.0277  0.1485
 6602W        W22411  10.175  10.362  11.946  0.0743 -0.2390 -0.2072
 6603W        W22412  12.008  14.619  14.558  0.1150  0.1179 -0.2784
 6604W        W22413  15.912   1.259   3.646  0.1481 -0.0463  0.2119
 6605W        W22414   6.313  16.423  14.846  0.2426 -0.1189  0.1511
 6606W        W22415  13.699  17.521   2.570 -0.0043 -0.0376  0.2095
 6607W        W22416   2.275   1.965   2.729 -0.2498 -0.3481 -0.1143
 6608W        W22417   0.364   3.329   0.874  0.2198  0.1583  0.0362
 6609W        W22418   1.762   1.170  13.448 -0.1533 -0.2385  0.0690
 6610W        W22419   3.126  11.850  14.602  0.1545 -0.0079 -0.0117
 6611W        W22420  13.829   4.311   2.142 -0.1182  0.0203 -0.2375
 6612W        W22421  18.395   2.341  10.920  0.0076  0.2548  0.0859
 6613W        W22422   1.958  11.277  15.106 -0.0292  0.0230 -0.0249
 6614W        W22423  17.843   2.109  15.154  0.1033 -0.1967 -0.0896
 6615W        W22424   6.268   2.769   3.909  0.3409  0.1794 -0.3374
 6616W        W22425   4.531   6.910   4.652 -0.2114 -0.0724  0.0992
 6617W        W22426   6.099  18.103   5.008 -0.0453 -0.2001  0.2758
 6618W        W22427   7.805  12.566   1.328  0.0857 -0.0837  0.0996
 6619W        W22428   6.230  10.802   4.252 -0.0459  0.0012 -0.2266
 6620W        W22429  12.153   4.941   0.668  0.0675 -0.1579 -0.1967
 6621W        W22430   8.509   2.608   0.227  0.1148 -0.0326  0.0335
 6622W        W22431   1.225   4.862   3.913 -0.1056  0.1055  0.2580
 6623W        W22432  12.877   4.638  13.670 -0.0622  0.0568  0.3099
 6624W        W22433   9.268  15.458  14.340 -0.1372  0.1188  0.0386
 6625W        W22434  10.843   9.060   4.876 -0.1332  0.0824  0.0176
 6626W        W22435  12.958  16.250   4.549  0.1139 -0.3957 -0.2003
 6627W        W22436   9.950  12.667  11.472 -0.1245 -0.0148 -0.2454
 6628W        W22437   3.772  10.118   5.435  0.2525 -0.0732 -0.3608
 6629W        W22438  12.808   5.372   3.802 -0.2014  0.2009  0.4349
 6630W        W22439   3.304   3.308   0.784  0.0436  0.0857  0.2684
 6631W        W22440   9.590  16.998  12.405  0.0339 -0.1745 -0.1009
 6632W        W22441  17.704  10.326   4.204 -0.3541 -0.1626 -0.0629
 6633W        W22442   6.838   3.223  12.932 -0.1195 -0.0384 -0.0852
 6634W        W22443  12.513  10.649   2.575  0.2606  0.0824 -0.3290
 6635W        W22444  14.478  16.228  11.316 -0.2676 -0.3283  0.0515
 6636W        W22445   3.616  17.152  13.837  0.0430 -0.6526  0.0321
 6637W        W22446   6.304  16.493   2.722 -0.0485 -0.0378  0.2849
 6638W        W22447  16.660  10.899   5.625 -0.5004 -0.2700 -0.4489
 6639W        W22448  10.801   5.336   4.710 -0.0762  0.1255 -0.1249
 6640W        W22449   0.060   0.712   1.674 -0.0420 -0.1241 -0.1836
 6641W        W22450  17.854  12.707   9.800 -0.1289 -0.2843 -0.0337
 6642W        W22451   3.512   1.102  14.970  0.2530  0.3223 -0.0766
 6643W        W22452  16.537   5.636   1.714  0.1610  0.2739  0.0183
 6644W        W22453   5.804   3.954  12.553  0.2288 -0.0238 -0.2884
 6645W        W22454   8.066   7.976   3.448  0.0215 -0.0437  0.1722
 6646W        W22455   6.577   9.585  11.724  0.3364 -0.1516  0.4448
 6647W        W22456  15.126  12.254  10.817 -0.1581  0.1227 -0.1366
 6648W        W22457  13.933  15.725   2.909  0.2019  0.1953  0.0869
 6649W        W22458  10.461   9.468   4.904 -0.2449  0.1734  0.0214
 6650W        W22459  16.739  11.722  14.863 -0.1369 -0.1260 -0.1702
 6651W        W22460   8.754  15.298  14.525 -0.0809 -0.0658  0.2354
 6652W        W22461   1.199  11.659   4.093 -0.3076  0.1750  0.3838
 6653W        W22462  14.517   4.662   5.616 -0.2909  0.0950 -0.2150
 6654W        W22463   7.661  18.266   4.532 -0.1664  0.1659  0.2519
 6655W        W22464  10.080   3.528  15.724 -0.1070 -0.1044  0.0713
 6656W        W22465   8.331   8.505  13.191 -0.2663  0.1726  0.0920
 6657W        W22466  12.291   1.567  13.005 -0.3862 -0.3288 -0.0386
 6658W        W22467   3.795   4.432  13.509  0.4031 -0.1747  0.0890
 6659W        W22468  18.391  11.382   1.876 -0.0483  0.2413  0.0794
 6660W        W22469   3.059  14.188   3.899 -0.3022 -0.3946  0.0567
 6661W        W22470   9.940   8.296   3.329 -0.3652  0.1155  0.1094
 6662W        W22471   4.270   1.804   0.620  0.1905 -0.0117 -0.1584
 6663W        W22472  10.899   7.776  10.911  0.0713 -0.0519  0.1436
 6664W        W22473   1.642   3.430  14.155 -0.0383  0.0707  0.1365
 6665W        W22474   7.420  15.132   1.832  0.0482 -0.0535  0.0470
 6666W        W22475   9.482  16.505   1.010 -0.0332 -0.0415 -0.0844
 6667W        W22476   5.419   4.051   2.496  0.0964  0.1883  0.0835
 6668W        W22477  15.561   1.944  15.326 -0.0898 -0.0776 -0.1338
 6669W        W22478  15.481   7.456  11.163 -0.3309  0.3678  0.1991
 6670W        W22479   0.333   5.441  14.277  0.0571 -0.2639 -0.0076
 6671W        W22480   4.792   9.699   1.710  0.3655  0.1260  0.2114
 6672W        W22481  15.785  16.562   2.243 -0.1226 -0.1576 -0.0537
 6673W        W22482   1.712  15.218   0.548 -0.0763 -0.0533  0.1161
 6674W        W22483  13.161   2.443   1.300 -0.2583  0.1823  0.4425
 6675W        W22484  15.280   4.231   1.922  0.0676  0.1882  0.0801
 6676W        W22485  10.852   3.614  13.885 -0.1762 -0.2188  0.1785
 6677W        W22486   9.388  15.974  11.714 -0.0966 -0.2100  0.1744
 6678W        W22487  13.074  14.561  14.150  0.0834 -0.2136  0.1131
 6679W        W22488  17.871   7.481   1.540 -0.1244  0.0553  0.3218
 6680W        W22489   6.491   8.944   6.304 -0.2647 -0.0506  0.4024
 6681W        W22490   6.980   4.350  13.921 -0.1004 -0.1523 -0.3091
 6682W        W22491   0.438  16.523  14.333 -0.0720  0.0006  0.1228
 6683W        W22492   1.585  14.628   4.380 -0.3788  0.2244  0.1291
 6684W        W22493  12.606  17.657  15.323  0.0451  0.0278 -0.0173
 6685W        W22494   5.462   3.359   3.917 -0.0912  0.0213  0.2588
 6686W        W22495   3.781   0.193  14.286  0.1351  0.0894 -0.0027
 6687W        W22496   3.783   3.452  12.389 -0.1698 -0.2840  0.4478
 6688W        W22497  12.386   8.961   2.543 -0.1316 -0.4150  0.1278
 6689W        W22498  15.312   1.924  12.160  0.0406 -0.2306 -0.0653
 6690W        W22499   1.282   2.637   0.158  0.1015  0.0411  0.1221
 6691W        W22500   4.273   0.028  14.885  0.0991 -0.2158  0.0146
 6692W        W22501   6.887   6.087   5.331 -0.4817 -0.1792 -0.2018
 6693W        W22502  17.579   9.021  14.140 -0.1765  0.0586  0.0099
 6694W        W22503   0.546  16.405  13.813 -0.1654  0.2036  0.1619
 6695W        W22504  13.810   2.323   2.443  0.1086 -0.2231 -0.1605
 6696W        W22505  15.581  16.565   1.027  0.0396 -0.1621  0.0282
 6697W        W22506   0.009   2.192  11.368 -0.3099 -0.1340 -0.2909
 6698W        W22507  16.064   4.096  10.711 -0.2371 -0.0606  0.0962
 6699W        W22508  18.284  16.488  14.228 -0.0064 -0.1582  0.1412
 6700W        W22509   7.174   9.661  11.820 -0.0592  0.1076  0.3280
 6701W        W22510  16.690  13.009  12.246 -0.0696  0.0513 -0.1757
 6702W        W22511   1.501   1.471   2.556 -0.0572 -0.1451 -0.3775
 6703W        W22512   6.534   7.128  14.115  0.0906 -0.0096  0.2951
 6704W        W22513  17.024  10.483  11.635 -0.3866 -0.0224  0.1084
 6705W        W22514   3.949  12.139  13.311 -0.3665  0.2328 -0.2191
 6706W        W22515  13.059   6.396  11.075  0.1746 -0.1183 -0.0293
 6707W        W22516  17.554  16.749   1.152  0.2239 -0.0424 -0.0233
 6708W        W22517   0.521   8.078   1.009 -0.0141  0.2628 -0.0436
 6709W        W22518  14.438   1.660   4.795 -0.1292 -0.0595 -0.0724
 6710W        W22519   4.150   8.347  10.482  0.1515 -0.3678 -0.0862
 6711W        W22520   0.807   5.718  14.199 -0.0330  0.0800 -0.1938
 6712W        W22521  13.140  12.051  12.937  0.0941  0.3686 -0.0785
 6713W        W22522  12.054  13.495  12.811  0.1405  0.0846 -0.0682
 6714W        W22523  16.223  12.317  12.225  0.1824  0.0578 -0.2582
 6715W        W22524   0.235   9.622  13.199 -0.0302  0.2378  0.2022
 6716W        W22525  10.338  18.209  11.751  0.1771  0.0063  0.2771
 6717W        W22526   8.913  16.192  11.436  0.1415  0.3505  0.0708
 6718W        W22527  12.853   3.055  11.864  0.0714 -0.1618 -0.4841
 6719W        W22528   6.061   1.265   2.730 -0.1652  0.0810  0.0836
 6720W        W22529   3.427  10.844   0.960  0.0756 -0.0356 -0.2649
 6721W        W22530   7.071   7.425   1.324 -0.2029  0.1152 -0.3164
 6722W        W22531   4.869  16.156   3.939  0.1684 -0.0080 -0.4248
 6723W        W22532  15.857   6.744   4.982  0.2213  0.0026 -0.1484
 6724W        W22533   9.015  10.796  12.595 -0.2649 -0.1603 -0.1778
 6725W        W22534   6.990   8.379   0.247 -0.1247 -0.3686  0.0998
 6726W        W22535  17.845  12.776  12.047  0.4001  0.0417 -0.0125
 6727W        W22536  13.792   5.555   4.656  0.0409 -0.4400 -0.1154
 6728W        W22537  10.759   7.675  13.167  0.1667  0.1633 -0.0630
 6729W        W22538  10.866  13.042  15.036 -0.2545  0.0142  0.0793
 6730W        W22539   7.183  13.617  13.421 -0.2580 -0.0543 -0.0497
 6731W        W22540   6.818  15.073  12.016  0.4947  0.1465 -0.2641
 6732W        W22541  11.835   8.068  11.885  0.2167 -0.0472 -0.1373
 6733W        W22542  13.386  11.422   0.238  0.0303 -0.4041 -0.0111
 6734W        W22543   5.914  18.167   4.560 -0.3744  0.0975  0.0680
 6735W        W22544  10.050  15.034   9.670 -0.0009  0.4121  0.1958
 6736W        W22545  13.345   7.839   1.123 -0.1842 -0.0517  0.2338
 6737W        W22546  16.161   7.614  12.214  0.2181 -0.1132 -0.1513
 6738W        W22547  10.456   6.316  10.970 -0.1410  0.0488  0.1033
 6739W        W22548  11.069   0.675   3.527  0.0319 -0.1961  0.0715
 6740W        W22549   2.722  15.131  12.241  0.1404  0.1884  0.0597
 6741W        W22550   7.098  15.303   4.630  0.0411  0.1262 -0.3234
 6742W        W22551   9.456   9.339   5.151  0.0380  0.0711 -0.1882
 6743W        W22552   6.467  12.042  11.963  0.1270  0.0150 -0.1932
 6744W        W22553  15.594   2.609  10.731  0.1943  0.1012  0.2562
 6745W        W22554  11.281   1.310  10.894 -0.0844  0.0908  0.1481
 6746W        W22555  17.382   1.703   4.113 -0.3035 -0.2405 -0.2118
 6747W        W22556  13.487   8.253  14.600  0.2630  0.0073  0.2777
 6748W        W22557   8.219   2.352  13.346 -0.0676 -0.2887  0.1701
 6749W        W22558   4.846   9.729   6.120 -0.1856 -0.0637 -0.3898
 6750W        W22559   2.422  14.384  11.403 -0.0198 -0.1913 -0.1285
 6751W        W22560  15.956   6.730   4.259 -0.4544  0.1263  0.1902
 6752W        W22561   0.802  11.477  14.313 -0.1897  0.0291 -0.0737
 6753W        W22562  15.513   9.816   6.344 -0.3642  0.0354  0.0377
 6754W        W22563   4.217   1.294   1.746 -0.0702 -0.1738  0.0586
 6755W        W22564  14.412   5.842  13.226 -0.2305 -0.0765  0.1782
 6756W        W22565  13.871   9.944   3.669 -0.1057  0.1463  0.2363
 6757W        W22566   2.675   6.712   5.142 -0.0146  0.0765 -0.0672
 6758W        W22567  11.800   0.536  10.667 -0.0155  0.0130  0.0877
 6759W        W22568  12.590   8.775  10.910 -0.0159  0.1203  0.2296
 6760W        W22569   5.199   0.137   3.388 -0.2183  0.2162  0.2182
 6761W        W22570   2.778  13.352  15.422 -0.1789  0.0109 -0.1155
 6762W        W22571  17.854  13.563   3.003 -0.3459  0.1948  0.0869
 6763W        W22572  13.413   4.536   1.833  0.0844 -0.0920 -0.2478
 6764W        W22573  16.120  10.142  14.696  0.1447  0.1939  0.1603
 6765W        W22574  15.423   0.587   3.901 -0.1803 -0.2630  0.0831
 6766W        W22575   2.022   1.179  14.318  0.2397 -0.2565  0.0780
 6767W        W22576  13.022   6.210  10.530 -0.2077 -0.1821 -0.1872
 6768W        W22577  13.350   3.689   2.509 -0.0183  0.3214 -0.1256
 6769W        W22578  10.756   9.588  13.177  0.0704 -0.1396  0.1171
 6770W        W22579   7.215  18.273   3.589  0.1831  0.1820  0.1034
 6771W        W22580   8.346  14.577  14.740 -0.3160  0.0391 -0.1216
 6772W        W22581   6.697  18.197  13.916  0.2999  0.0738 -0.1630
 6773W        W22582   9.082  13.226   0.001 -0.0666 -0.2137  0.2115
 6774W        W22583   4.887  16.822  11.030 -0.0744 -0.0599  0.3486
 6775W        W22584  17.630   4.692   3.704 -0.0484  0.1487  0.0342
 6776W        W22585  10.794  14.163  11.884  0.1348  0.1922  0.0546
 6777W        W22586  15.655   2.367   2.791  0.1293  0.1508  0.1764
 6778W        W22587   9.320   6.120   2.409 -0.0885  0.1672 -0.0724
 6779W        W22588  13.754  13.062  11.397  0.3365 -0.2305  0.0437
 6780W        W22589   5.540  11.565   2.258  0.1967  0.1089 -0.1788
 6781W        W22590  15.183  14.985  13.663 -0.2310  0.0498  0.1995
 6782W        W22591   9.462   0.559   3.453 -0.0149  0.1890  0.1194
 6783W        W22592  12.536  18.422  12.854  0.2515  0.0815 -0.1567
 6784W        W22593  12.635  18.660  12.320  0.0981 -0.0936  0.0078
 6785W        W22594  13.038   6.817   2.402  0.0491 -0.0674 -0.0765
 6786W        W22595   2.333  12.486   6.072  0.0235  0.0289 -0.2233
 6787W        W22596   9.678   4.281   2.998  0.1000  0.0163  0.2386
 6788W        W22597   0.117  13.307   1.841  0.1326 -0.3901 -0.2127
 6789W        W22598   3.835   6.950  13.503  0.1428 -0.1512 -0.0085
 6790W        W22599   0.682   5.501   0.379  0.4592 -0.0444  0.1019
 6791W        W22600   2.420   7.650   0.479  0.0464 -0.0418 -0.0535
 6792W        W22601   2.403  17.767   4.578  0.0725 -0.1486 -0.3168
 6793W        W22602   5.873  11.171  12.116  0.0554  0.0283  0.4220
 6794W        W22603   2.219   6.781  11.226  0.1091 -0.1245 -0.1455
 6795W        W22604   1.258  11.433   4.666 -0.1804 -0.2305  0.4292
 6796W        W22605   2.086   0.936  13.784 -0.1671  0.1675  0.0151
 6797W        W22606  17.123   9.702  12.927 -0.0607  0.0969 -0.3282
 6798W        W22607  11.339   7.376   4.667  0.3618 -0.0515  0.4470
 6799W        W22608   7.932  16.582  13.713  0.1689  0.0759 -0.0730
 6800W        W22609   3.337  17.884   4.073 -0.0397 -0.1103 -0.0218
 6801W        W22610   4.502   0.524  14.826  0.1649  0.1652  0.0690
 6802W        W22611  17.196   3.723   1.637  0.1802 -0.0875  0.2634
 6803W        W22612   7.604  11.869  13.425 -0.1407  0.1499 -0.0877
 6804W        W22613   5.046   6.110   3.083 -0.1368  0.2354  0.2197
 6805W        W22614  17.495  17.523  11.306 -0.0176 -0.0339 -0.1126
 6806W        W22615   5.730   3.438   5.535  0.1268  0.0486  0.0055
 6807W        W22616  17.818   1.353  10.461 -0.1099  0.2787 -0.2006
 6808W        W22617  12.708  11.874  13.035 -0.1479 -0.1592  0.4885
 6809W        W22618   7.536  15.274  14.001  0.2168  0.1611  0.0447
 6810W        W22619  11.364  12.485  15.727 -0.3786 -0.2199  0.3331
 6811W        W22620  16.208   0.380   4.993 -0.1423  0.1233  0.0974
 6812W        W22621   6.781  16.842  14.903  0.1164  0.0396 -0.4192
 6813W        W22622  17.602   4.876   0.688  0.0663  0.1248  0.0711
 6814W        W22623  13.374   5.035   2.482  0.0445  0.1641  0.0196
 6815W        W22624   8.115  18.541  13.949  0.3826  0.2336 -0.2228
 6816W        W22625  17.484   3.327   1.607  0.0369  0.0977 -0.1328
 6817W        W22626  11.623   5.064  14.985  0.1110 -0.2780 -0.0469
 6818W        W22627   7.405   1.579   1.182  0.2009  0.0476  0.0008
 6819W        W22628  15.436  17.884  13.245 -0.2960  0.0529 -0.1220
 6820W        W22629   6.087   4.957   5.246  0.0577  0.2188  0.2228
 6821W        W22630   7.465   7.154   1.546  0.0827  0.0862  0.1125
 6822W        W22631   3.159   5.590  12.908  0.2646  0.1103 -0.1699
 6823W        W22632   7.080   8.957  11.026 -0.0554  0.0387 -0.0058
 6824W        W22633   6.005   1.960   2.085  0.0434 -0.1348  0.0970
 6825W        W22634   1.321  11.507  11.161 -0.0764 -0.1365  0.0905
 6826W        W22635  17.839  14.612   5.207  0.2078 -0.0473 -0.2268
 6827W        W22636  11.328  12.435   4.802 -0.0976  0.2522  0.1044
 6828W        W22637   5.867   0.740  14.891 -0.2378  0.0582 -0.0952
 6829W        W22638  16.736  14.808  15.449 -0.0753 -0.1070 -0.1856
 6830W        W22639   4.267   4.074   0.901 -0.0208  0.3028  0.1174
 6831W        W22640   9.765  17.390   3.685 -0.1267  0.1853 -0.0100
 6832W        W22641  13.156  14.170  13.413 -0.0733 -0.0776 -0.0593
 6833W        W22642  15.060   3.544  14.664 -0.3489 -0.0036  0.0587
 6834W        W22643   8.036  10.295   1.012 -0.0434  0.0981 -0.2004
 6835W        W22644  17.270   6.774  13.429  0.2509 -0.0832 -0.3107
 6836W        W22645  15.241  12.098   3.255 -0.2748 -0.0681 -0.1715
 6837W        W22646   0.591   1.328  14.360 -0.0720  0.2969 -0.0415
 6838W        W22647   5.984   5.296   1.295 -0.1613 -0.1443  0.1830
 6839W        W22648   6.442  12.457   1.282  0.0681  0.2195 -0.1534
 6840W        W22649   8.744  16.154   3.303  0.0882  0.1284 -0.0104
 6841W        W22650   2.718  12.225   3.028  0.2214 -0.3893  0.2000
 6842W        W22651  13.828  12.442  14.410 -0.0007 -0.1046 -0.0091
 6843W        W22652  11.133   1.323   0.569 -0.0241 -0.3912 -0.0672
 6844W        W22653  10.998  11.128   2.810  0.0711 -0.0159 -0.2213
 6845W        W22654   2.498  18.107  12.306 -0.0639 -0.0145  0.2261
 6846W        W22655  10.242   8.691   3.163 -0.2052 -0.1689 -0.1474
 6847W        W22656   6.568   5.449  12.324  0.4994  0.1813 -0.1982
 6848W        W22657  15.501  13.888   3.634 -0.2918  0.1037  0.0798
 6849W        W22658  14.382   6.645  15.690  0.1170  0.1241  0.4136
 6850W        W22659   0.250  13.518  11.293 -0.2218 -0.1994  0.0203
 6851W        W22660  15.838   2.145   4.531 -0.1376 -0.0615  0.1000
 6852W        W22661   5.522   4.640  11.334 -0.0770 -0.3276  0.1134
 6853W        W22662  16.938  12.589  10.657  0.1736  0.2626  0.1679
 6854W        W22663  17.024  14.945  14.210  0.2200 -0.1234  0.0327
 6855W        W22664  15.263  16.936   4.212 -0.2007 -0.0914 -0.0304
 6856W        W22665  17.475   7.209   0.258  0.0259  0.3924  0.2121
 6857W        W22666  12.647  17.177  13.257  0.1372  0.1951  0.2076
 6858W        W22667   5.005  17.135   0.250 -0.4263  0.0522 -0.0423
 6859W        W22668   1.938  17.232   3.432  0.0824 -0.5014  0.1876
 6860W        W22669   0.222   6.489   2.435  0.2307  0.3417  0.2189
 6861W        W22670  11.046  12.768   4.264  0.0850  0.0669 -0.1280
 6862W        W22671   8.782   4.774   1.850 -0.2964 -0.5925  0.0352
 6863W        W22672  16.368   0.116   0.079  0.1782 -0.0720 -0.0712
 6864W        W22673   3.429  15.652   1.823  0.0453 -0.0088  0.1516
 6865W        W22674  12.536  17.309   5.399 -0.2609 -0.2682 -0.0360
 6866W        W22675  11.884   0.139   5.341  0.0272  0.0085 -0.1023
 6867W        W22676   9.647   8.284   5.991 -0.1985  0.1796 -0.0713
 6868W        W22677   6.544   7.632   2.710  0.2048  0.0162 -0.1329
 6869W        W22678   7.505  13.282   4.164  0.5605 -0.2250  0.1040
 6870W        W22679   9.295   8.927   5.489  0.1380  0.0434 -0.1901
 6871W        W22680   3.803   9.127  14.266  0.1085  0.0933  0.1406
 6872W        W22681  10.691   9.273   4.077  0.0534  0.0788  0.2102
 6873W        W22682  11.007  15.573  14.442  0.0736  0.1471 -0.1221
 6874W        W22683  11.388  13.083  11.916  0.2419 -0.0187  0.0334
 6875W        W22684  14.616  18.556   1.306 -0.0244 -0.2237  0.1468
 6876W        W22685  17.789  16.794   4.405  0.0977  0.1133 -0.0934
 6877W        W22686  12.665   3.215  11.423  0.0709 -0.0308 -0.1429
 6878W        W22687  13.852  11.107  11.353  0.0392  0.2659 -0.1293
 6879W        W22688   5.779   3.239  10.917  0.0136  0.0917 -0.1167
 6880W        W22689   3.495   6.612  11.681 -0.1463  0.0255 -0.2183
 6881W        W22690   0.550  12.608  10.978 -0.3353  0.1952 -0.1343
 6882W        W22691   7.477   7.706   4.204 -0.0909 -0.0297 -0.1504
 6883W        W22692  17.789   8.346   3.472 -0.3524 -0.0948 -0.0602
 6884W        W22693  14.155   6.189  12.306 -0.0006  0.3571  0.2100
 6885W        W22694   3.710  17.978   2.543 -0.2174  0.3038 -0.0863
 6886W        W22695   9.292  15.722   2.208  0.1946 -0.2219 -0.0806
 6887W        W22696   4.943   2.136   3.450 -0.4039  0.0029  0.0745
 6888W        W22697  14.861   8.778   1.508 -0.2159 -0.1076 -0.0951
 6889W        W22698  10.273   3.854  15.290  0.3530 -0.0039  0.0732
 6890W        W22699   1.794   5.905  14.669  0.0580  0.1615 -0.1643
 6891W        W22700   9.394  10.223  10.754  0.2619 -0.0423  0.0634
 6892W        W22701  14.605   8.370   2.429 -0.1354  0.1801  0.1864
 6893W        W22702  11.291  17.688  11.584 -0.0379 -0.3368  0.0254
 6894W        W22703  16.282  15.131  15.287  0.1940 -0.2205 -0.2977
 6895W        W22704  12.312  13.532   1.849 -0.1782  0.1849 -0.3252
 6896W        W22705  14.254  11.827  13.942  0.1921  0.0774 -0.0252
 6897W        W22706  11.212   2.656   5.348  0.0471  0.3873  0.2067
 6898W        W22707  14.536  12.224   0.068 -0.1120  0.0184  0.0970
 6899W        W22708  16.131   5.310   2.864 -0.0454  0.1743  0.0386
 6900W        W22709  13.653  15.431  11.568 -0.1131  0.1238 -0.0052
 6901W        W22710   6.958  11.952   1.408 -0.1186  0.0087 -0.2796
 6902W        W22711   7.680  15.642  11.448  0.1047  0.0206 -0.2323
 6903W        W22712  16.402   1.075  11.536 -0.1565  0.0293 -0.1411
 6904W        W22713  15.887  13.793   5.020  0.1134  0.2031 -0.0106
 6905W        W22714  11.911   2.631   2.550 -0.1775 -0.0097  0.1662
 6906W        W22715  12.761  18.533   1.376  0.0628 -0.2319  0.0331
 6907W        W22716   4.818   9.910   2.205  0.1196 -0.1158  0.0546
 6908W        W22717   0.201   7.085   3.961  0.0315  0.2341  0.4333
 6909W        W22718  16.647   6.918  12.465 -0.1022 -0.1755 -0.0096
 6910W        W22719   1.404   5.196   2.238 -0.1313 -0.1180 -0.0632
 6911W        W22720  16.553  12.070  11.802  0.0530 -0.0676  0.1110
 6912W        W22721  17.599   7.475   4.563 -0.1515  0.0784  0.1953
 6913W        W22722   1.816  11.009  11.982 -0.0978  0.0938 -0.2288
 6914W        W22723  15.796   8.346   1.085 -0.2520  0.2117 -0.0699
 6915W        W22724   0.562   9.478  15.437  0.0586  0.1393  0.3092
 6916W        W22725   0.644  17.452  11.776  0.3020  0.0440 -0.1763
 6917W        W22726   3.526   9.610   1.741  0.1458  0.0638 -0.0207
 6918W        W22727   5.421   5.696   4.378 -0.1177  0.1675 -0.0387
 6919W        W22728   8.274  10.919   0.592  0.1340  0.0284 -0.0398
 6920W        W22729   2.561  11.451  13.786  0.2292  0.2376  0.2709
 6921W        W22730   4.186  13.617  12.043 -0.1860 -0.1459 -0.0102
 6922W        W22731  11.969  18.087   0.422  0.2408 -0.0559  0.3140
 6923W        W22732  11.526  10.158  11.199  0.1725  0.1383 -0.2868
 6924W        W22733  17.463   5.351  15.566  0.0788  0.1580  0.2366
 6925W        W22734  16.622   3.369   9.987  0.6014 -0.3487  0.1114
 6926W        W22735   2.797  12.845  11.138  0.0100 -0.0170  0.4529
 6927W        W22736   2.674   0.001   6.130  0.0743 -0.0107  0.0118
 6928W        W22737   2.960   2.092  10.988 -0.2182  0.2453  0.4312
 6929W        W22738   1.604   2.467   3.995 -0.3179  0.1257 -0.2726
 6930W        W22739  13.863   3.706   2.177 -0.3025 -0.1685  0.1519
 6931W        W22740   5.264  12.291  12.718  0.0308 -0.1218  0.0346
 6932W        W22741   8.616  10.309  10.732  0.1297 -0.2847 -0.2806
 6933W        W22742  17.439  12.144   2.934 -0.2720  0.1040 -0.2158
 6934W        W22743   6.565   8.380  11.630  0.1616  0.1340  0.1285
 6935W        W22744  14.986   6.284   4.209 -0.1485 -0.0117 -0.0728
 6936W        W22745  15.732   6.336  15.629 -0.1750 -0.1605  0.1199
 6937W        W22746   0.506  13.160  15.298  0.3615  0.0518 -0.1332
 6938W        W22747   8.710   3.943  13.274  0.1715 -0.0168  0.0434
 6939W        W22748   9.262   1.443  11.106  0.1498  0.1974  0.0136
 6940W        W22749   6.783  14.310   2.414 -0.0993  0.3064 -0.2684
 6941W        W22750  16.525  12.426  15.438 -0.0168 -0.1021  0.0437
 6942W        W22751   3.342   0.979  12.711  0.0790 -0.1479  0.0808
 6943W        W22752   2.977  17.679   1.792 -0.6296 -0.1835 -0.1929
 6944W        W22753  14.891  11.422  13.248  0.0258 -0.1806  0.1703
 6945W        W22754   1.447   3.138  12.845  0.0138 -0.3526 -0.0906
 6946W        W22755   0.799  18.530  13.081  0.2117 -0.1758  0.0760
 6947W        W22756   6.416   1.683  15.342  0.3286 -0.0948  0.0097
 6948W        W22757  14.383  10.834  10.884 -0.0295 -0.1197  0.1501
 6949W        W22758   2.636   8.038  13.919  0.0123 -0.2228 -0.3160
 6950W        W22759   1.239  15.382  10.981  0.0585 -0.0776 -0.0644
 6951W        W22760   4.978   2.473  15.042 -0.3727 -0.1331  0.2683
 6952W        W22761   3.082  16.195   4.578  0.0625 -0.1327  0.1785
 6953W        W22762   4.208   2.891   2.173  0.1106  0.3625 -0.0472
 6954W        W22763  13.974   2.220  14.670 -0.0085 -0.2388  0.2708
 6955W        W22764  15.127  14.381  15.015  0.0850  0.3266 -0.1472
 6956W        W22765   8.793  18.176  12.218  0.3534 -0.0923  0.0126
 6957W        W22766   0.022  17.017   0.960 -0.0371 -0.1487 -0.1330
 6958W        W22767  16.741   2.956  14.859 -0.2273 -0.1658  0.1046
 6959W        W22768   9.487   8.450   5.181  0.0515  0.1632 -0.1609
 6960W        W22769  16.626   4.785  12.186  0.0200 -0.0669  0.0859
 6961W        W22770   2.351   3.079   3.204  0.1194  0.0200 -0.0603
 6962W        W22771   4.802   0.503  12.672  0.0068 -0.2047 -0.4188
 6963W        W22772   8.583   8.650  12.270 -0.0780  0.0660  0.0243
 6964W        W22773   7.377   5.297   1.067  0.0016  0.2694 -0.1001
 6965W        W22774   7.797  15.687  14.206  0.4379 -0.0442 -0.0364
 6966W        W22775  14.467  17.001   2.708 -0.0252 -0.1078  0.2678
 6967W        W22776  18.633  17.712  14.251 -0.1181  0.3936 -0.2367
 6968W        W22777   9.624  10.121   5.110  0.1352 -0.1182 -0.1742
 6969W        W22778  15.737   8.678   3.809  0.2297  0.2653  0.0403
 6970W        W22779  17.099   5.021  15.598 -0.1923 -0.0088  0.0293
 6971W        W22780  18.349   0.206  11.686  0.3447 -0.0123 -0.0865
 6972W        W22781   8.564  15.704   0.844 -0.1042 -0.2221 -0.1455
 6973W        W22782  11.644  12.819   4.979 -0.1189  0.0501 -0.1177
 6974W        W22783  11.114   5.191  10.401 -0.1851 -0.1635  0.1123
 6975W        W22784   2.202  10.044  13.623  0.0431  0.3427 -0.1271
 6976W        W22785   1.001  17.142  13.935 -0.2291 -0.0103 -0.2715
 6977W        W22786  16.075  10.702   4.184 -0.1823 -0.0811 -0.3789
 6978W        W22787  14.049  18.394   4.262  0.0921  0.1161  0.0983
 6979W        W22788   8.179  16.451   1.400  0.0545 -0.1975 -0.0662
 6980W        W22789   2.172  16.992  13.110  0.2496  0.0852 -0.0075
 6981W        W22790   9.540  13.399  13.186  0.0263  0.0649  0.0059
 6982W        W22791   8.867  12.695   3.938  0.0502  0.1845  0.1659
 6983W        W22792  13.457  12.140  13.589 -0.1120  0.1286 -0.0703
 6984W        W22793  11.621   2.382  13.322  0.2154 -0.1178 -0.1870
 6985W        W22794   7.239   3.024   0.646 -0.0864  0.1569  0.2143
 6986W        W22795  17.084   6.393  12.591 -0.3918  0.1094  0.0558
 6987W        W22796   1.767  13.298   6.024 -0.1388 -0.0077 -0.3591
 6988W        W22797   7.004  15.338  12.448  0.1532  0.0307 -0.1235
 6989W        W22798  15.320   1.824  10.770  0.1946  0.3255 -0.0612
 6990W        W22799   3.963   0.187  11.116 -0.1281 -0.2275 -0.1155
 6991W        W22800  16.749   3.868  14.212  0.0837 -0.1721 -0.0020
 6992W        W22801   7.184   6.521   5.159 -0.0917  0.4182  0.0030
 6993W        W22802   0.905  16.385   4.376 -0.0179 -0.1977 -0.2487
 6994W        W22803  10.242   4.483   0.303  0.0491  0.0230 -0.0730
 6995W        W22804  18.532   3.720  12.708  0.0700  0.1341  0.1987
 6996W        W22805  14.793  11.013  11.166  0.0029  0.2471  0.1322
 6997W        W22806   0.254  14.379  14.086  0.2613  0.2831  0.1963
 6998W        W22807  16.643   9.983  13.940 -0.1962 -0.0194  0.0129
 6999W        W22808  13.190  10.963  13.932 -0.1970  0.0228  0.1191
 7000W        W22809   7.604  17.941   0.946  0.2571  0.0032  0.2865
 7001W        W22810  13.165  11.528  12.900  0.0086  0.1063  0.0556
 7002W        W22811  14.044   9.022   9.787 -0.0732 -0.0780  0.0348
 7003W        W22812   8.959   8.575   4.289 -0.0137 -0.0707 -0.1940
 7004W        W22813   8.432  10.893  13.437  0.3726 -0.1000  0.0305
 7005W        W22814   1.859  14.906  13.905 -0.1292  0.0792  0.1523
 7006W        W22815   1.431   9.432   3.296  0.1280  0.0782  0.1193
 7007W        W22816  11.191   9.895  14.844 -0.0701 -0.1563  0.0517
 7008W        W22817  15.523   1.969   2.553 -0.0936 -0.3525 -0.1106
 7009W        W22818   3.513  12.934  12.285 -0.1119 -0.0997  0.3405
 7010W        W22819  11.419  11.317   2.486 -0.0827 -0.0118  0.1092
 7011W        W22820   4.086   4.061   2.728  0.3760  0.0809  0.0822
 7012W        W22821  15.109   4.125   0.094 -0.0067 -0.2776 -0.1090
 7013W        W22822   7.626  15.476  12.044  0.1717 -0.0002  0.1692
 7014W        W22823   4.359   6.608  14.768 -0.0803  0.0772 -0.1303
 7015W        W22824   3.989   3.178  13.258 -0.0151  0.2580 -0.1603
 7016W        W22825  14.437  12.214   1.082 -0.3678  0.4060 -0.0091
 7017W        W22826   1.860   1.756   0.575 -0.3451  0.1357  0.1543
 7018W        W22827   6.943   4.490  11.659  0.0098  0.1444 -0.0304
 7019W        W22828  12.320  11.039  12.874  0.0295  0.0916  0.3116
 7020W        W22829  14.497   0.266  12.683  0.2959  0.0312 -0.1746
 7021W        W22830  16.829   1.083   0.382  0.1131 -0.0770  0.0094
 7022W        W22831   8.096   4.415  15.499  0.0728 -0.1886 -0.0364
 7023W        W22832   5.665   4.342   1.364 -0.0089  0.0280  0.0262
 7024W        W22833   1.778  18.011   0.001  0.1700  0.1548  0.0274
 7025W        W22834  16.070   4.691   4.625  0.3827 -0.0661  0.0361
 7026W        W22835   8.757  11.508  15.292 -0.3921 -0.3676 -0.2552
 7027W        W22836   9.097   2.409  12.503  0.1852  0.4745  0.3037
 7028W        W22837   6.448   2.651  13.763 -0.2871 -0.0540 -0.0873
 7029W        W22838  16.310   3.215   0.509  0.1280 -0.0335  0.2668
 7030W        W22839  12.295  11.467  11.108  0.3756 -0.0653  0.2477
 7031W        W22840  13.229   1.564  14.626  0.0920  0.4336 -0.1270
 7032W        W22841   6.497  16.894  15.579  0.3778  0.0652  0.2300
 7033W        W22842  11.629   1.727   2.348 -0.3110  0.3791 -0.0754
 7034W        W22843  14.028   9.791   4.812 -0.3169 -0.2517 -0.1421
 7035W        W22844   1.111  11.454   3.152  0.0835 -0.1393  0.1414
 7036W        W22845   0.878   0.484  13.420  0.1441  0.2710 -0.0234
 7037W        W22846   3.227  15.352   1.515  0.0325  0.3963  0.2029
 7038W        W22847  15.972   7.780   5.334 -0.0500 -0.0983 -0.0233
 7039W        W22848  14.410  12.788   3.746 -0.4157  0.1858 -0.3015
 7040W        W22849   5.350   2.484   0.010  0.0202 -0.0274  0.0311
 7041W        W22850  14.897   6.001   3.307  0.2058 -0.1761 -0.0583
 7042W        W22851  10.376  10.044   4.753 -0.0441  0.0054  0.0076
 7043W        W22852   3.448  12.558   3.408  0.4350  0.0038 -0.0994
 7044W        W22853  13.965  18.262  10.469  0.1236  0.1659  0.4314
 7045W        W22854  11.240   6.619  14.918  0.1437 -0.1363  0.0787
 7046W        W22855  13.545   8.170   2.598 -0.2215  0.1254  0.3693
 7047W        W22856  10.630  10.240   5.124  0.3302  0.2586  0.3200
 7048W        W22857  17.551  11.828  10.906 -0.1323 -0.2439 -0.2923
 7049W        W22858  16.122  12.663   2.992 -0.0018  0.0569  0.1868
 7050W        W22859   6.767  14.589   1.104 -0.2005  0.1347  0.1035
 7051W        W22860  15.006  16.558   3.995 -0.0840  0.1267  0.3453
 7052W        W22861   5.366  17.750  10.942 -0.2152 -0.0122  0.0206
 7053W        W22862   9.171   0.480  14.563  0.0181  0.5257  0.0636
 7054W        W22863   0.655  17.721  12.235  0.0060  0.0153  0.1294
 7055W        W22864   7.234  14.810  11.852  0.0924 -0.0133  0.1270
 7056W        W22865  11.602  14.088  12.099  0.2536  0.1783 -0.0168
 7057W        W22866  17.784   7.587   0.457  0.3066  0.3034  0.0296
 7058W        W22867   4.315  13.089   4.272 -0.0319 -0.3624  0.0008
 7059W        W22868  12.995  10.105  15.203  0.1188  0.0805 -0.1682
 7060W        W22869  12.750  14.153   0.409  0.0464  0.0227 -0.0907
 7061W        W22870   5.281  10.513  10.937  0.4340  0.1913 -0.1639
 7062W        W22871   1.787  13.001  12.407 -0.1928 -0.0913  0.1833
 7063W        W22872   9.172   1.843   4.275 -0.0760 -0.3141 -0.0188
 7064W        W22873  11.508   9.372  15.504 -0.3935 -0.0146 -0.3130
 7065W        W22874  17.577   0.294   2.069  0.1990  0.0846  0.0511
 7066W        W22875   5.071   8.106  10.998 -0.2007 -0.0203 -0.0707
 7067W        W22876  17.008  13.227  13.923 -0.1621 -0.0976  0.0121
 7068W        W22877  10.775  10.503  15.462  0.2897  0.1543  0.1062
 7069W        W22878  13.526  16.845  11.853 -0.0620 -0.0306  0.0747
 7070W        W22879  14.297   4.666  14.106 -0.1052  0.2552 -0.2790
 7071W        W22880   7.151   0.290  14.646 -0.0744  0.0784  0.0674
 7072W        W22881  12.028  16.492  10.839  0.0397 -0.0326 -0.0376
 7073W        W22882  12.186   5.831  10.935 -0.1288 -0.0665 -0.1316
 7074W        W22883  15.855  12.472   3.731  0.0968  0.1200  0.0791
 7075W        W22884  16.537   7.926   2.539 -0.0809 -0.0348  0.0304
 7076W        W22885   1.979   8.020   4.729  0.1452 -0.1128 -0.0328
 7077W        W22886   8.805   0.575  13.143 -0.3086 -0.2135  0.2828
 7078W        W22887   2.007  16.269  14.250  0.3550  0.0187 -0.2643
 7079W        W22888  14.598   4.604   0.164  0.0648 -0.0544 -0.1894
 7080W        W22889  17.406   5.543  14.575  0.0902  0.0302 -0.1175
 7081W        W22890   4.533  15.791  15.419  0.1329  0.2204  0.3661
 7082W        W22891   7.162  18.075   2.645  0.2276  0.2680 -0.0271
 7083W        W22892   8.973   9.817  12.544  0.3649 -0.0812 -0.0416
 7084W        W22893   6.218   7.059  13.675  0.1754  0.0429 -0.1241
 7085W        W22894   1.621  16.408  10.739 -0.0128 -0.1501 -0.2849
 7086W        W22895   6.631   7.176   3.405  0.0946 -0.0186 -0.0528
 7087W        W22896   1.620   6.358   4.108  0.2514 -0.0101 -0.0799
 7088W        W22897  17.105  10.446   5.015  0.1063 -0.4317 -0.2473
 7089W        W22898   0.781   6.416  12.971  0.0041 -0.2731  0.1607
 7090W        W22899   6.644   8.279  15.014  0.0275 -0.1418 -0.1405
 7091W        W22900  16.711  18.113  13.016  0.0433  0.0006 -0.3796
 7092W        W22901  16.876  17.595   4.782  0.1139 -0.2514 -0.0826
 7093W        W22902   6.614   3.923   4.510 -0.1890 -0.1726 -0.0037
 7094W        W22903  16.722   7.847  10.734  0.0836  0.1776 -0.0655
 7095W        W22904   0.757   2.488  12.594 -0.0936  0.0078  0.1740
 7096W        W22905   1.355  11.908   1.023  0.1987 -0.2790  0.0589
 7097W        W22906  15.434   0.507  10.594  0.0729 -0.1108 -0.1152
 7098W        W22907  10.031  15.980   5.871 -0.2599 -0.0498 -0.2920
 7099W        W22908   8.400  17.315  12.328  0.5314 -0.1280 -0.1583
 7100W        W22909  14.271   3.351  13.502 -0.2014 -0.1314 -0.4136
 7101W        W22910   0.185  16.821  12.725 -0.0726  0.0862 -0.1990
 7102W        W22911   6.560  10.379  11.169 -0.0615  0.1550  0.1051
 7103W        W22912   7.263   7.725  13.130  0.1064 -0.3696  0.0691
 7104W        W22913  13.869  18.317  12.224  0.2192 -0.3045  0.0192
 7105W        W22914  14.788   0.803  11.102 -0.0177  0.1295  0.1765
 7106W        W22915   2.910   6.186  14.087  0.0313 -0.0901 -0.4073
 7107W        W22916  13.490  17.203  10.866 -0.0517 -0.1694  0.0530
 7108W        W22917   8.478   9.128  15.301  0.0849  0.0332 -0.1139
 7109W        W22918  13.507   0.727   4.666  0.2096  0.0626 -0.0226
 7110W        W22919  13.005   8.826   5.381 -0.0834  0.1628 -0.2235
 7111W        W22920   6.831  18.075   4.324 -0.0909  0.0525  0.3266
 7112W        W22921  15.506   3.519  11.343  0.0160 -0.2574 -0.1238
 7113W        W22922   8.859   5.183   4.468  0.1420  0.2598 -0.3105
 7114W        W22923   9.488   1.884  13.130  0.0139  0.3479  0.0033
 7115W        W22924   6.928   6.969   5.218  0.0577 -0.1440 -0.4107
 7116W        W22925  16.112   4.858   3.218 -0.0188  0.0549  0.1719
 7117W        W22926  14.520  10.357   5.316 -0.1650  0.3077  0.1832
 7118W        W22927  17.919   7.621  14.973  0.0805 -0.3729  0.0574
 7119W        W22928   9.884  13.484  11.610 -0.0744 -0.0321  0.2405
 7120W        W22929   2.156   2.957   2.239  0.0127  0.0784  0.1679
 7121W        W22930   3.697   3.139  14.689  0.2381 -0.2103 -0.0083
 7122W        W22931   1.004   4.269  15.116 -0.0494 -0.2088  0.0733
 7123W        W22932  10.230   1.342  10.473 -0.1131  0.3555  0.1227
 7124W        W22933  11.088   9.487   0.608 -0.2944  0.0386  0.2069
 7125W        W22934   4.815  10.544   4.664  0.0348  0.0568  0.0674
 7126W        W22935   9.479  12.752  11.757 -0.2210 -0.2802  0.0296
 7127W        W22936   1.328   5.678   4.711 -0.0209 -0.2666  0.1384
 7128W        W22937   3.888  11.687  13.023  0.3982 -0.1239 -0.3082
 7129W        W22938   7.100   2.759   2.661 -0.2122  0.1641 -0.1915
 7130W        W22939  17.141  12.649   4.437 -0.3938 -0.1364  0.0419
 7131W        W22940  11.601  18.152  15.306  0.1521 -0.0780 -0.0473
 7132W        W22941   1.913  14.403   2.377  0.1323  0.2222  0.1420
 7133W        W22942  17.610   3.225  15.581 -0.0588  0.2718 -0.0433
 7134W        W22943   3.412   4.445   1.636 -0.2098  0.2076  0.0317
 7135W        W22944   7.014  11.770   0.743 -0.0660 -0.1268  0.2713
 7136W        W22945   1.186   6.400  13.781  0.1675 -0.2437 -0.0549
 7137W        W22946   4.350   7.442  11.938 -0.0470 -0.0838 -0.0525
 7138W        W22947   4.808   5.434  11.881 -0.2721  0.0044 -0.1290
 7139W        W22948   2.898   8.014   4.911 -0.1014  0.1927  0.3051
 7140W        W22949   2.343   7.934  14.939 -0.2442 -0.0807  0.2168
 7141W        W22950   5.784   5.532  11.725  0.1905  0.1252  0.0106
 7142W        W22951   4.556  17.842   0.221  0.2750  0.0403  0.0693
 7143W        W22952   0.941   9.265  15.226 -0.1849 -0.2036  0.6217
 7144W        W22953   2.814   1.158   2.542 -0.0363  0.0502  0.0998
 7145W        W22954   2.783  18.099   1.921  0.0256 -0.1835  0.0968
 7146W        W22955   1.318  14.736   0.868  0.0670  0.1630  0.1800
 7147W        W22956   8.499   1.278  14.126  0.0741  0.0325 -0.1010
 7148W        W22957   9.549   3.015   3.530 -0.2005 -0.1551  0.4181
 7149W        W22958  18.658   1.867  14.828 -0.6913 -0.4187 -0.2159
 7150W        W22959  18.006   7.197   0.211 -0.4372  0.2671 -0.0743
 7151W        W22960  11.228  13.234  14.320 -0.0103 -0.1400  0.1852
 7152W        W22961   3.246   5.595   0.708 -0.2700 -0.0651 -0.3242
 7153W        W22962  14.398  17.570  11.911  0.1117  0.5720 -0.0582
 7154W        W22963  12.487  13.573  12.431 -0.0821  0.0984  0.1636
 7155W        W22964   6.110  11.524   4.029  0.1793  0.3174  0.4891
 7156W        W22965  18.035  11.019  11.309  0.1819 -0.1955  0.1959
 7157W        W22966   9.799  10.434   9.723  0.0719  0.2051  0.0202
 7158W        W22967   1.272  11.727   2.029 -0.1100 -0.0426  0.1713
 7159W        W22968   6.861  16.520  12.510 -0.1802  0.0525  0.2742
 7160W        W22969  10.348  13.904  12.016 -0.2441  0.2707  0.0804
 7161W        W22970   8.432  10.649   1.051 -0.0293 -0.0870 -0.1727
 7162W        W22971   0.116   6.465  15.291 -0.0779  0.0644  0.1316
 7163W        W22972   1.993   5.690  13.861  0.0961 -0.1365 -0.1601
 7164W        W22973  14.524   3.170   4.246 -0.1210  0.0649  0.0653
 7165W        W22974   6.943   9.822   5.200 -0.0660  0.1946 -0.0566
 7166W        W22975  15.907   4.573   4.055  0.3035 -0.1498  0.0397
 7167W        W22976  11.396   9.460   5.059  0.1026  0.2318  0.1996
 7168W        W22977   4.317   7.441   2.730 -0.0275 -0.0821 -0.0939
 7169W        W22978  11.751   7.947   2.941 -0.2514  0.3337 -0.1396
 7170W        W22979   7.263   1.450   4.052 -0.0296 -0.0651  0.2017
 7171W        W22980   2.632   0.664   2.600  0.1834 -0.1196 -0.0168
 7172W        W22981  13.122   1.543  11.466  0.0748 -0.0453  0.1089
 7173W        W22982  11.269  10.008   3.249 -0.0463 -0.2738  0.2916
 7174W        W22983   0.766  14.047   4.392 -0.1582 -0.2245 -0.1700
 7175W        W22984  16.625   5.834   4.402 -0.0454 -0.1912  0.2142
 7176W        W22985   0.161  12.204  14.743  0.1138 -0.2686  0.4052
 7177W        W22986   0.170  14.238   1.587  0.0353 -0.1408  0.2290
 7178W        W22987  10.541  12.015   3.226  0.1703 -0.2792  0.1136
 7179W        W22988   5.044   6.835   0.694  0.0597  0.0114  0.0186
 7180W        W22989   2.170   8.607  12.627 -0.0222  0.0677 -0.2370
 7181W        W22990  15.372   5.852  10.760 -0.0414 -0.1123  0.0643
 7182W        W22991   2.059  16.820  14.280 -0.2090  0.0307  0.1655
 7183W        W22992  10.586  12.936   2.442 -0.0373 -0.2033  0.3718
 7184W        W22993   1.490   9.360  11.303 -0.0130 -0.0169  0.2809
 7185W        W22994   1.086   6.732   2.562 -0.3552  0.2395  0.0703
 7186W        W22995   9.669   2.706  14.349  0.2207 -0.2073 -0.1000
 7187W        W22996   5.530   5.671  12.583  0.1359  0.1449  0.0953
 7188W        W22997   2.531  17.377   9.732  0.1416  0.1784 -0.1162
 7189W        W22998   9.836  16.565   4.339 -0.0265  0.0922  0.0176
 7190W        W22999   4.066   5.721  10.818  0.3224 -0.1172  0.1784
 7191W        W23000   8.539  17.391   0.457  0.3904  0.0547 -0.6737
 7192W        W23001  11.232   8.228  15.176 -0.1445 -0.2359 -0.0430
 7193W        W23002   1.228  16.450   5.342 -0.0295 -0.1591  0.3106
 7194W        W23003  15.677   7.741  12.012 -0.1441 -0.1884  0.1078
 7195W        W23004   6.634   6.857  11.724  0.0284 -0.1075 -0.0238
 7196W        W23005  12.406  15.133   4.822  0.2237  0.0127  0.0703
 7197W        W23006   0.203   1.574   0.590 -0.0785  0.1054  0.0682
 7198W        W23007  13.610   2.396   4.317 -0.0321 -0.0793 -0.0404
 7199W        W23008   2.585  13.603   2.317  0.1752  0.0380  0.2599
 7200W        W23009  11.413   1.036   3.394 -0.0464  0.0912 -0.0987
 7201W        W23010   7.089  10.041   4.718  0.2217  0.2798  0.0893
 7202W        W23011   4.801  13.056   4.000  0.0711  0.0299  0.2818
 7203W        W23012   2.499  12.821  10.721 -0.1038  0.0866 -0.2246
 7204W        W23013  15.304  12.640   0.324  0.0838 -0.2564  0.0038
 7205W        W23014   6.543  10.485   0.106  0.1191 -0.2720  0.0578
 7206W        W23015  18.434   3.514  14.136 -0.2729 -0.0541 -0.0237
 7207W        W23016   2.855  10.294  12.549  0.1114 -0.0755  0.4346
 7208W        W23017   7.904  15.195  14.420 -0.0192  0.4186  0.3075
 7209W        W23018  16.350   1.937   2.107 -0.5715 -0.0753 -0.2292
 7210W        W23019  13.383  12.604   4.687 -0.0599 -0.1018 -0.2146
 7211W        W23020   1.435  11.426  13.040  0.0671  0.2192 -0.0185
 7212W        W23021  15.967  15.319   5.282 -0.0504  0.1938  0.0162
 7213W        W23022   4.317   0.408  11.780 -0.1660  0.2905  0.3621
 7214W        W23023   5.705   0.650   0.433  0.5266 -0.1127 -0.0791
 7215W        W23024   9.825  15.206   0.234  0.3315 -0.0422  0.0984
 7216W        W23025  16.877  16.278  11.194  0.2824 -0.2029  0.1352
 7217W        W23026   5.374   3.868  15.473 -0.1770  0.1496 -0.3391
 7218W        W23027   9.388   2.871   0.154 -0.0143  0.0307 -0.0800
 7219W        W23028  18.624   2.572   5.491  0.0701 -0.1452  0.3254
 7220W        W23029   0.601   5.745   5.415  0.0558 -0.0540 -0.3071
 7221W        W23030   5.930   1.097  11.917  0.4773  0.1220  0.2750
 7222W        W23031   3.735  13.440  12.207  0.1387  0.0747  0.0924
 7223W        W23032   3.036  14.291  15.221 -0.1760 -0.0611 -0.0732
 7224W        W23033   5.245  12.665  11.308 -0.1187 -0.1551  0.2616
 7225W        W23034  16.895   4.360  14.145 -0.0110 -0.1393  0.1651
 7226W        W23035  16.728   3.172   5.330  0.0431 -0.2025  0.0712
 7227W        W23036   4.669   6.824  10.322 -0.1028 -0.3930  0.2819
 7228W        W23037  10.579  16.804   2.184  0.5560 -0.3276 -0.4690
 7229W        W23038   7.777   0.412  13.308  0.1485  0.1587  0.1438
 7230W        W23039  15.420   7.962   2.854  0.1254  0.0673  0.2709
 7231W        W23040  14.156  11.234   3.507  0.0409 -0.1356  0.0801
 7232W        W23041   6.245  12.672  13.584 -0.1362 -0.2783  0.0025
 7233W        W23042   9.896   5.773   3.083 -0.3726 -0.4740  0.3383
 7234W        W23043  10.117  16.781   2.979  0.2497  0.1383 -0.1619
 7235W        W23044  11.570  10.481   2.096  0.3158 -0.0199  0.1420
 7236W        W23045  14.047  18.571   9.993 -0.0289 -0.1319  0.1272
 7237W        W23046   3.552  10.898   3.484 -0.0318 -0.1582 -0.1894
 7238W        W23047  17.253   9.797   0.016  0.1540 -0.0510  0.0906
 7239W        W23048   9.277   4.612   1.547 -0.3995 -0.2785  0.3211
 7240W        W23049  14.949   7.152   4.416  0.0027  0.1176 -0.0090
 7241W        W23050  13.869   0.948  14.486  0.1210  0.1075 -0.2117
 7242W        W23051  12.302   8.835   1.288  0.0049  0.0368 -0.1230
 7243W        W23052   7.418  17.133   1.055  0.0180 -0.2544  0.0473
 7244W        W23053   0.896   7.769  13.843  0.0529 -0.2251  0.1785
 7245W        W23054  13.032  15.997  14.680 -0.3070  0.2328  0.2405
 7246W        W23055  11.571   1.642  12.317  0.1532  0.1360 -0.1756
 7247W        W23056   1.301  16.610   2.544  0.1514 -0.0400  0.0533
 7248W        W23057   2.427   2.343   1.263 -0.0167  0.1649  0.1052
 7249W        W23058   2.533   3.894  15.277 -0.1034 -0.0983  0.0351
 7250W        W23059   0.512  13.488  14.628  0.1578  0.2997  0.0256
 7251W        W23060  10.128   6.013  13.059 -0.0387  0.1361  0.1335
 7252W        W23061   9.416  15.653  13.321  0.4965  0.3509  0.2276
 7253W        W23062   9.727  13.387   2.563 -0.0827 -0.0642 -0.1809
 7254W        W23063   4.701  12.097   0.045  0.1194  0.0468 -0.0126
 7255W        W23064  15.347   1.669  13.708  0.0790  0.1580 -0.0139
 7256W        W23065   1.139   5.634   5.193 -0.0823 -0.3575 -0.0594
 7257W        W23066   8.931  11.091  11.599 -0.2360  0.2793  0.2874
 7258W        W23067  15.180   4.827  10.975  0.1835  0.1629  0.0070
 7259W        W23068  17.782  15.461  14.025 -0.4183  0.0602  0.3482
 7260W        W23069  12.096  11.703  13.555 -0.0196 -0.0560 -0.1613
 7261W        W23070   1.911  10.997   4.334 -0.2166  0.0956  0.0430
 7262W        W23071   8.582   5.817   1.110  0.2527 -0.0079 -0.0484
 7263W        W23072  15.448  16.113   3.910 -0.1605 -0.0603  0.0008
 7264W        W23073   6.390   6.665   4.960 -0.2020 -0.2951  0.0184
 7265W        W23074  10.012  10.811  13.694 -0.1026  0.0687  0.0203
 7266W        W23075  17.556  12.752  11.115  0.0502  0.2246  0.2583
 7267W        W23076  16.750   3.212   3.277 -0.0890 -0.2616  0.4616
 7268W        W23077   6.826  16.968  11.773  0.4801 -0.0290 -0.1367
 7269W        W23078   0.437  16.139   1.374  0.1471  0.2865  0.2169
 7270W        W23079  13.025  14.972  10.858 -0.0320  0.1044 -0.0448
 7271W        W23080  18.609   6.339  12.433  0.2613 -0.3547 -0.3912
 7272W        W23081  15.961  17.155   3.222  0.0894  0.0971  0.0866
 7273W        W23082   8.920  12.659   4.875 -0.0279  0.0931  0.1139
 7274W        W23083  18.441  15.825   5.137  0.0525 -0.1015 -0.0971
 7275W        W23084   9.987  16.989   4.461  0.1602  0.1308 -0.0987
 7276W        W23085   0.084  11.451  13.513  0.1465  0.3039  0.1278
 7277W        W23086  15.422  14.713   4.134  0.3237 -0.0187 -0.0568
 7278W        W23087  11.635  12.964   3.929  0.0899  0.1571  0.1051
 7279W        W23088  12.259   4.164   5.474 -0.0181 -0.0287  0.1596
 7280W        W23089   1.022   7.829   5.355 -0.3715 -0.1474 -0.1048
 7281W        W23090   9.795   4.809  13.384  0.3213 -0.3163  0.2859
 7282W        W23091   3.402   2.723  11.949 -0.1320  0.0655 -0.2882
 7283W        W23092  10.388   5.246   1.045 -0.0255  0.1741 -0.0225
 7284W        W23093  16.234   7.994  11.243  0.0723 -0.0684 -0.1798
 7285W        W23094  17.214  13.589  15.546  0.0281  0.1988  0.1496
 7286W        W23095  16.498  14.722   2.572  0.0422  0.0423  0.2142
 7287W        W23096   5.873   4.731   4.423  0.3753  0.3726 -0.1167
 7288W        W23097  10.788   9.812  11.708  0.1260 -0.3442  0.1562
 7289W        W23098   2.020  16.806   2.218  0.0260  0.0945 -0.0599
 7290W        W23099  12.549   6.990  11.236 -0.1357  0.0637  0.2846
 7291W        W23100   6.205   2.515   3.462 -0.1422  0.3309  0.1852
 7292W        W23101   3.741  15.174  13.593 -0.1470  0.1427  0.1014
 7293W        W23102  16.632  10.253  13.461 -0.1982  0.3110  0.1754
 7294W        W23103  10.918  18.349   4.354  0.1257  0.2501 -0.1300
 7295W        W23104  10.045  12.872   4.211 -0.1013 -0.4752 -0.1249
 7296W        W23105  15.258   6.376   1.106  0.0939 -0.0391  0.1440
 7297W        W23106   7.070   6.021   4.660 -0.1529  0.1550  0.1841
 7298W        W23107  12.871  12.735   4.771  0.0332  0.1363  0.2462
 7299W        W23108   2.075   6.799  12.995 -0.0949 -0.0006 -0.3516
 7300W        W23109   4.767  11.486   3.759 -0.2351 -0.1892  0.0276
 7301W        W23110   3.010  12.553   0.674  0.1006 -0.1517 -0.1401
 7302W        W23111   5.848   6.820  15.407  0.0306 -0.0374 -0.0378
 7303W        W23112  15.080   3.448   4.238  0.1870 -0.1393  0.4303
 7304W        W23113  11.433   5.092   5.158 -0.4538 -0.1224  0.0529
 7305W        W23114   9.089   7.096   3.893 -0.0080 -0.0915 -0.0468
 7306W        W23115  16.114   9.332   1.778  0.0440 -0.4508  0.2615
 7307W        W23116   6.250   9.642   1.771 -0.0654 -0.1432 -0.0673
 7308W        W23117  11.604   4.494  11.753  0.1301 -0.0802 -0.0006
 7309W        W23118   6.846   3.634   1.432  0.0551 -0.0719 -0.0883
 7310W        W23119  11.359   0.342   3.762  0.1574 -0.4381 -0.0178
 7311W        W23120  12.021  12.641   1.700 -0.0502  0.0832 -0.1232
 7312W        W23121  16.113   1.057  13.236  0.0734 -0.5502 -0.0608
 7313W        W23122  10.664   1.184   0.189 -0.1149 -0.2423  0.0536
 7314W        W23123   1.149  13.348  13.027 -0.2215 -0.1734 -0.1049
 7315W        W23124   6.620   6.131   4.909 -0.1909 -0.0427 -0.2996
 7316W        W23125  10.529  17.877  13.624 -0.1730 -0.2003 -0.1989
 7317W        W23126   5.991   4.657  11.488  0.3221 -0.2372  0.5150
 7318W        W23127  18.602   9.118  14.871 -0.0761 -0.2639 -0.2374
 7319W        W23128   3.738  17.536   0.203 -0.2018 -0.2125  0.1313
 7320W        W23129  11.305  12.883   5.580  0.0916 -0.3016 -0.1043
 7321W        W23130   7.373   8.159   1.851 -0.0225  0.0446  0.2710
 7322W        W23131   0.211   6.034   1.939  0.2842  0.0842 -0.0801
 7323W        W23132   3.295  10.868   0.454  0.1312  0.0993  0.2016
 7324W        W23133   7.227   1.933  13.456  0.0677  0.0366  0.1458
 7325W        W23134  13.251  14.503   2.877  0.0427 -0.5626 -0.1965
 7326W        W23135  10.202  15.045  14.071  0.2672 -0.0547 -0.1165
 7327W        W23136  10.094  12.990   1.143 -0.1420 -0.1488 -0.0168
 7328W        W23137  12.877   9.458  12.559 -0.1116 -0.0651 -0.1319
 7329W        W23138  11.197   3.729   3.748  0.1319  0.2316 -0.2290
 7330W        W23139   9.931  17.980  15.625 -0.3495  0.0464  0.1624
 7331W        W23140   4.666   3.679   2.117  0.0032  0.1858 -0.0002
 7332W        W23141   8.130   8.027  14.328  0.2715  0.1753 -0.1129
 7333W        W23142   4.259  10.074  15.735 -0.0705 -0.2252 -0.1193
 7334W        W23143   2.612  13.636  12.281  0.1879 -0.1226 -0.2717
 7335W        W23144   7.148  10.117   5.647 -0.1340  0.0864  0.0203
 7336W        W23145   8.938   9.524   5.019  0.0284  0.2438 -0.2434
 7337W        W23146   1.406   8.031  15.750 -0.0929  0.1754  0.3110
 7338W        W23147  16.080  17.699   3.179  0.1013 -0.2528  0.0125
 7339W        W23148   5.617   2.728  11.417  0.0399  0.1413 -0.0560
 7340W        W23149   4.799  15.972  13.229 -0.2232  0.0025 -0.2692
 7341W        W23150   1.594  11.326   3.442 -0.1947 -0.0475  0.1192
 7342W        W23151  17.619  11.580   3.742 -0.1846 -0.1772 -0.0598
 7343W        W23152  18.058  14.790   6.284  0.0954 -0.0772 -0.0511
 7344W        W23153  10.226   9.000  10.485 -0.2965 -0.0181 -0.2471
 7345W        W23154   6.723   9.506   2.950 -0.1144 -0.1224  0.0849
 7346W        W23155  12.285   5.615   3.570  0.1664  0.1798 -0.2969
 7347W        W23156   1.373   8.733  15.013 -0.0981 -0.1593 -0.1651
 7348W        W23157  16.308   6.259  13.318 -0.2434  0.0418  0.2885
 7349W        W23158   8.440   4.907  12.377  0.1590  0.2949 -0.2654
 7350W        W23159   8.992   8.371   3.705  0.3292  0.0041 -0.0034
 7351W        W23160   5.158   5.477   0.367  0.1214 -0.0862  0.3269
 7352W        W23161  13.209  11.797  13.361 -0.2817  0.2483 -0.0667
 7353W        W23162  17.994  18.551   2.675  0.2679  0.0751  0.0252
 7354W        W23163   0.309  12.839   3.380 -0.0872  0.1150 -0.2301
 7355W        W23164   8.464   3.573   1.763 -0.0504 -0.0048  0.2268
 7356W        W23165  15.946   2.713  14.630 -0.2831 -0.0576 -0.0677
 7357W        W23166   1.626   4.907  14.758  0.1233  0.0616 -0.2479
 7358W        W23167  14.155  16.560  11.016 -0.2795 -0.2550 -0.0051
 7359W        W23168  10.440   2.492   2.590  0.3309  0.3807  0.0373
 7360W        W23169   9.733  15.270  14.103  0.1008 -0.3002 -0.1679
 7361W        W23170   8.484   5.031  14.107 -0.1898 -0.4735  0.1370
 7362W        W23171   6.277  18.173  14.777 -0.0349 -0.1348 -0.4388
 7363W        W23172  12.683   9.729  15.030 -0.0635  0.0102  0.1177
 7364W        W23173  12.043   2.313  11.549 -0.0144  0.0110  0.1357
 7365W        W23174   6.433   8.136   3.475  0.0020 -0.0445 -0.0727
 7366W        W23175  15.230   5.913  11.259  0.2683  0.0520 -0.1926
 7367W        W23176   6.286   9.723   3.038 -0.0483 -0.1034 -0.2853
 7368W        W23177  18.366   5.472  14.728 -0.0254  0.0153  0.0310
 7369W        W23178   6.992  17.322  14.869 -0.2877  0.0410 -0.1581
 7370W        W23179   3.078   5.461  15.686  0.3663  0.2499  0.1798
 7371W        W23180  14.498  18.508   3.516 -0.2814 -0.1517 -0.0043
 7372W        W23181  11.989   5.103  12.260  0.0024 -0.0386  0.0142
 7373W        W23182   4.709  12.462  12.557  0.0385 -0.0260 -0.0012
 7374W        W23183   6.575   2.890   2.339  0.0395  0.0973  0.2942
 7375W        W23184   6.722  17.893   3.462  0.1813 -0.0174 -0.0277
 7376W        W23185   3.468  12.106   3.286 -0.0227  0.0694  0.2295
 7377W        W23186  11.230   0.181   3.143 -0.4700 -0.1530 -0.1083
 7378W        W23187  16.723   6.129   2.421 -0.4639 -0.1004 -0.2252
 7379W        W23188  14.874  18.154   4.306 -0.4445 -0.0520  0.2254
 7380W        W23189  11.105  18.083  15.179 -0.2269 -0.3779  0.1185
 7381W        W23190  11.734   0.964   4.244 -0.4265  0.1386 -0.2646
 7382W        W23191   3.370  12.616   2.375  0.4011  0.0538  0.2398
 7383W        W23192   3.835   3.802  14.543  0.0459  0.0390  0.1943
 7384W        W23193   6.133  17.713   4.338 -0.2207  0.0976  0.1196
 7385W        W23194   9.840   6.872  11.827  0.1481 -0.1531  0.2789
 7386W        W23195  16.652  18.114  10.612 -0.0783  0.0108  0.1394
 7387W        W23196   6.075  12.854  12.008  0.4050 -0.1957 -0.0972
 7388W        W23197  14.838   5.896  12.961 -0.0855 -0.2084  0.0598
 7389W        W23198   7.469   2.745   3.124  0.1777 -0.0851  0.0422
 7390W        W23199  14.825   9.365  15.077 -0.0589 -0.0214  0.1584
 7391W        W23200  11.683   9.573   4.079  0.1474 -0.2936 -0.3711
 7392W        W23201   4.282   3.030  14.627 -0.0545  0.0451 -0.1887
 7393W        W23202   5.092   7.708  11.953 -0.3238 -0.2157  0.1252
 7394W        W23203  13.710  14.262  11.245 -0.4062  0.2684  0.0548
 7395W        W23204   0.949  14.628  12.150  0.0674 -0.2392 -0.0892
 7396W        W23205   6.258   8.942   1.122  0.2122 -0.0521 -0.0615
 7397W        W23206  13.104   2.042  14.430 -0.0735  0.1378 -0.1836
 7398W        W23207   8.983   5.450  15.334 -0.2769 -0.1489 -0.4212
 7399W        W23208  11.469   5.354  11.956 -0.3094  0.0465 -0.1318
 7400W        W23209   6.729   7.359   0.292  0.2770 -0.1601  0.1018
 7401W        W23210  12.494  11.554  11.671 -0.0241  0.1339 -0.0636
 7402W        W23211   2.201   7.114   3.189 -0.3068  0.0603  0.1596
 7403W        W23212  11.259   5.159   4.708 -0.1102  0.0490 -0.1897
 7404W        W23213  14.119   6.460   3.600  0.2576 -0.1917  0.3756
 7405W        W23214   5.303  16.921   5.050  0.1478 -0.0985  0.1287
 7406W        W23215   9.417   1.097   3.334  0.1802 -0.1327  0.1599
 7407W        W23216   7.550   4.464   2.450  0.2905 -0.1842  0.0807
 7408W        W23217  16.900   5.485   0.907  0.1044  0.0237 -0.2507
 7409W        W23218   7.220   3.020   5.623 -0.1213 -0.0701  0.1646
 7410W        W23219  14.922   6.809  13.091  0.0986  0.0092 -0.0641
 7411W        W23220   1.196   6.579  15.710 -0.0754 -0.1384 -0.0130
 7412W        W23221   1.904   1.445   5.168 -0.0604 -0.1256 -0.3374
 7413W        W23222   5.966   1.501   3.546 -0.2843  0.2142  0.3527
 7414W        W23223   6.181   1.996   1.491  0.0547  0.1885 -0.2234
 7415W        W23224   5.502  18.026   2.252 -0.1885  0.0099 -0.0646
 7416W        W23225  11.729   3.540   1.757  0.1923 -0.0978  0.1790
 7417W        W23226   3.751  10.943  11.979  0.2676 -0.0355  0.5488
 7418W        W23227   6.559  11.492  11.961  0.3041 -0.2820 -0.0987
 7419W        W23228   6.340  10.750   0.588 -0.0966  0.2473 -0.0148
 7420W        W23229   1.023   8.790   0.247 -0.0566  0.1448  0.0639
 7421W        W23230   7.894   9.577   4.745  0.1031  0.0718 -0.3674
 7422W        W23231  12.359   1.826  10.260 -0.0206 -0.0236 -0.0580
 7423W        W23232  12.340   5.444  15.368  0.2488 -0.1281 -0.0691
 7424W        W23233  16.493   5.060   3.759 -0.3414 -0.0061 -0.1201
 7425W        W23234  16.189  11.717   0.404 -0.2342  0.0743  0.0052
 7426W        W23235  14.647   9.902   1.892 -0.1772 -0.0896  0.1305
 7427W        W23236  17.793  15.768   0.980 -0.0672 -0.1543  0.0771
 7428W        W23237  13.015  17.688   0.995 -0.0214  0.1559 -0.0397
 7429W        W23238   6.358   4.175   0.245  0.1648 -0.0834 -0.3937
 7430W        W23239   5.116   2.908   2.008 -0.1308  0.0515  0.1872
 7431W        W23240   6.185  14.177   0.376 -0.0442  0.2597  0.1089
 7432W        W23241  12.689   4.655  15.378 -0.0329 -0.0363 -0.2302
 7433W        W23242   6.851  18.376   0.581  0.1005  0.4932  0.0097
 7434W        W23243  18.299  15.074  10.380 -0.0034 -0.1950  0.0647
 7435W        W23244  12.629   0.092  13.231 -0.0290 -0.0160  0.1310
 7436W        W23245  11.089   9.349  13.437 -0.2149 -0.2778  0.3313
 7437W        W23246  15.353  13.841   9.855 -0.2228  0.0013 -0.2404
 7438W        W23247   1.938  11.367  11.514 -0.1657 -0.1120 -0.1719
 7439W        W23248  13.471   3.664  14.262  0.0258  0.0782  0.0704
 7440W        W23249   2.635   9.970  13.314  0.2357 -0.1440  0.3022
 7441W        W23250   0.228   3.000   4.965  0.0284  0.2276  0.0860
 7442W        W23251  15.420   3.729   2.183  0.1021 -0.1112 -0.0806
 7443W        W23252   1.582   3.913   1.394 -0.0526  0.0065  0.0352
 7444W        W23253   4.766   4.860  13.606  0.0448 -0.0359  0.1020
 7445W        W23254   8.688  16.322  14.398  0.4273 -0.2837  0.1019
 7446W        W23255   1.872   5.437  15.747 -0.1048 -0.0992  0.2748
 7447W        W23256  15.319   4.129   4.899  0.1766  0.0881 -0.1354
 7448W        W23257   1.667   3.475   4.724 -0.1503  0.0209  0.1907
 7449W        W23258   0.982  15.066  14.824 -0.0653 -0.2260  0.4741
 7450W        W23259   4.036  10.931   5.860  0.3282 -0.0921  0.0144
 7451W        W23260  14.093   8.116   4.209  0.0609  0.1644  0.0656
 7452W        W23261  10.639   1.456   0.655 -0.0607 -0.1178  0.0377
 7453W        W23262  10.606  17.394  11.119 -0.0953  0.0994 -0.3314
 7454W        W23263   6.762  10.720   2.822  0.2802  0.0167 -0.2713
 7455W        W23264   2.007   2.310  11.869  0.1030  0.1327 -0.0767
 7456W        W23265  12.377  11.716  12.532 -0.0110  0.2463  0.2184
 7457W        W23266   7.033   7.292   4.275 -0.0840 -0.1837  0.2117
 7458W        W23267   1.494  12.960  13.288 -0.2687 -0.0941 -0.0083
 7459W        W23268  12.413   3.437   4.899 -0.1136 -0.1451 -0.1145
 7460W        W23269   8.741  12.065  13.633  0.1031 -0.0979  0.2096
 7461W        W23270   4.242  16.126  14.645  0.1523 -0.0105 -0.1251
 7462W        W23271  16.553  15.035   1.627 -0.1252 -0.1446  0.0479
 7463W        W23272   7.426  11.439   3.764  0.0048 -0.1558 -0.0216
 7464W        W23273  13.913   3.036   4.418  0.0531  0.0980 -0.1809
 7465W        W23274   1.312   9.201  12.813 -0.0526  0.2196 -0.3587
 7466W        W23275  12.676  16.077   2.776  0.0543 -0.1731  0.0490
 7467W        W23276   3.987   8.947   4.486 -0.2160  0.1997  0.0382
 7468W        W23277   4.485   2.307   3.468 -0.0118  0.0293 -0.2876
 7469W        W23278  18.047   2.878  12.442 -0.0422  0.0154 -0.2307
 7470W        W23279   5.533  14.578  12.099 -0.0297  0.2993  0.0536
 7471W        W23280  18.429   9.014   0.018  0.1096 -0.2138 -0.1394
 7472W        W23281   4.191   4.455  13.252  0.1612  0.0500 -0.2261
 7473W        W23282   8.982   2.439  11.425  0.0121  0.0396  0.2262
 7474W        W23283   3.107  12.625  11.531  0.1613 -0.2078  0.0347
 7475W        W23284   9.373  13.965  13.801  0.2575  0.1588 -0.1444
 7476W        W23285   0.297   4.129   0.470 -0.0276 -0.1782  0.0511
 7477W        W23286  12.503  10.895   2.167  0.1043 -0.0714  0.0760
 7478W        W23287   2.574   0.773   5.411  0.0568  0.1399  0.0520
 7479W        W23288   4.311  10.968   2.074 -0.3705 -0.0953  0.1512
 7480W        W23289   6.581   4.360   0.888 -0.0090 -0.1524 -0.2567
 7481W        W23290   7.662   0.005  12.135 -0.0417 -0.0194  0.1410
 7482W        W23291  15.735  11.883   1.607 -0.3525  0.1717  0.0520
 7483W        W23292   2.890   7.998   5.759 -0.1549  0.2467 -0.3052
 7484W        W23293   6.665   5.364  13.122 -0.2064 -0.3490 -0.1236
 7485W        W23294   4.286   7.210  11.475 -0.0623  0.0333  0.0643
 7486W        W23295   1.518  17.692   1.862 -0.3228  0.2511  0.0497
 7487W        W23296   9.466  18.256  12.579 -0.0646  0.3262 -0.0560
 7488W        W23297  16.790  16.669   5.231  0.1745  0.2409  0.2166
 7489W        W23298  16.095  16.968   4.925 -0.3590  0.3415  0.3893
 7490W        W23299   2.698  17.630   3.139 -0.0984  0.2320 -0.1292
 7491W        W23300  13.405  12.727   2.763 -0.1515 -0.1753 -0.2427
 7492W        W23301   4.448  17.420   3.621  0.1297  0.2387  0.1587
 7493W        W23302   9.720   5.666  11.932 -0.0592  0.2109  0.3652
 7494W        W23303   8.603  16.942  13.044  0.0940  0.0551 -0.1032
 7495W        W23304   7.853  14.123   1.092 -0.3931 -0.0004 -0.2069
 7496W        W23305   9.209   5.922  15.411  0.4238 -0.0380 -0.1864
 7497W        W23306  15.986  14.986   3.354 -0.2506 -0.1744  0.2001
 7498W        W23307   3.598  15.873   1.331 -0.4315  0.1141 -0.1652
 7499W        W23308  15.609   6.746  14.630 -0.1517  0.2224  0.0811
 7500W        W23309   4.500   2.616   2.787  0.2185 -0.0830 -0.5129
 7501W        W23310  17.337   2.512  11.075  0.0532  0.2829 -0.0207
 7502W        W23311   8.661  12.905   0.974 -0.2841  0.1857  0.1682
 7503W        W23312   2.657   2.588   5.139  0.2295  0.0367 -0.1714
 7504W        W23313  18.613  16.551   4.179  0.1012  0.1305  0.0028
 7505W        W23314  12.742  12.333   3.024 -0.0259  0.4142  0.1713
 7506W        W23315  16.501   1.919  14.806 -0.0417  0.1282  0.3359
 7507W        W23316   3.744   5.197   4.802  0.0332 -0.0588 -0.2834
 7508W        W23317   9.611   3.955  12.462  0.0555  0.0182 -0.0079
 7509W        W23318  11.660   5.815   1.373  0.1328  0.0960 -0.1459
 7510W        W23319   2.713  13.809  11.021 -0.0317  0.0803 -0.2677
 7511W        W23320   7.314  10.549   0.289 -0.4053 -0.0030 -0.0828
 7512W        W23321  10.733   3.166  12.998 -0.0588  0.0582  0.1825
 7513W        W23322  14.386   7.787   3.948  0.2377  0.0008 -0.0041
 7514W        W23323   9.993   7.148   2.934 -0.0099  0.1320 -0.1987
 7515W        W23324  16.516  13.570   3.591  0.0794  0.0690 -0.1299
 7516W        W23325  10.498   2.297  13.972 -0.0992  0.2535 -0.0537
 7517W        W23326  14.277  13.567   1.880  0.1549  0.2702  0.0519
 7518W        W23327   5.365   7.751   1.844 -0.0764 -0.2899 -0.1117
 7519W        W23328   3.989  14.156  13.376  0.2710 -0.1507 -0.0564
 7520W        W23329   7.502  17.273   3.390  0.1422 -0.1872 -0.1744
 7521W        W23330   1.491   5.812  13.777  0.1492 -0.5109  0.0373
 7522W        W23331  13.942   7.812   2.288 -0.2421 -0.0901 -0.0052
 7523W        W23332  14.721  13.617   5.441 -0.0368 -0.1085 -0.5631
 7524W        W23333   4.104   1.177  10.510  0.1099  0.0427 -0.0929
 7525W        W23334   3.609   0.066  12.911  0.2904 -0.0015 -0.1622
 7526W        W23335  10.871   2.279   3.619 -0.0959 -0.1691  0.2479
 7527W        W23336   6.874   3.900  14.178 -0.3791  0.1286  0.2311
 7528W        W23337   5.176  15.969   5.378  0.1203 -0.1209 -0.1862
 7529W        W23338   4.330   3.447  10.618  0.1265  0.2171  0.0147
 7530W        W23339   9.029  18.009  15.027  0.0610 -0.1085 -0.0207
 7531W        W23340   9.277  11.233  13.492  0.1180  0.0493 -0.0453
 7532W        W23341   6.581  16.740  12.133 -0.3150  0.1485 -0.2700
 7533W        W23342   2.516  18.604   4.967 -0.3407  0.0404 -0.1052
 7534W        W23343  11.713   4.923   4.724  0.1955  0.3350  0.3409
 7535W        W23344  15.829   7.555   2.262 -0.0161  0.0395 -0.0023
 7536W        W23345   1.347   4.768  10.835 -0.0068  0.0103  0.1901
 7537W        W23346   3.537  13.391   2.942 -0.2791  0.2758 -0.0669
 7538W        W23347  15.477  16.920   0.288 -0.0061  0.3785  0.2613
 7539W        W23348   3.983  16.675  10.812  0.1882  0.1004  0.2030
 7540W        W23349   3.326   6.964  13.785 -0.0958 -0.2414  0.0282
 7541W        W23350  10.014   0.720   4.460  0.0158 -0.1759 -0.4780
 7542W        W23351   7.616   4.461  12.839 -0.0570 -0.2527 -0.1723
 7543W        W23352   0.543   9.486   0.999  0.0556 -0.2331 -0.2186
 7544W        W23353  18.533  18.014  15.250  0.1624  0.1001 -0.0895
 7545W        W23354  16.219  13.633   4.015 -0.1180  0.0148 -0.1426
 7546W        W23355   2.937   6.087  15.488  0.2801  0.1573  0.2068
 7547W        W23356   7.007  11.649   2.755 -0.0746 -0.1938  0.0120
 7548W        W23357  12.488   2.449  13.630 -0.2676  0.0645  0.1650
 7549W        W23358   4.102  12.826  15.468 -0.2879 -0.1988 -0.2265
 7550W        W23359   6.240   5.908  14.688  0.1683 -0.3849  0.1489
 7551W        W23360   1.392  13.802  11.209  0.0971 -0.0070 -0.4132
 7552W        W23361   2.475   2.836   1.794 -0.0688  0.0343 -0.2468
 7553W        W23362   8.178   5.913   4.204 -0.1294  0.2175 -0.2738
 7554W        W23363  15.192  14.531   1.721 -0.1278  0.0126 -0.0368
 7555W        W23364   9.730  14.188   3.857  0.0148  0.0690 -0.0423
 7556W        W23365   1.537  17.080   2.328  0.0546  0.0146  0.1827
 7557W        W23366  12.486  13.945  11.843 -0.1003  0.1341 -0.0827
 7558W        W23367  16.557  10.498  15.507  0.0053  0.1939  0.0421
 7559W        W23368   8.567   0.926   5.604  0.1953 -0.2817  0.0186
 7560W        W23369  13.967   5.203  15.317 -0.0615  0.0686  0.0715
 7561W        W23370  10.603  15.798   2.677 -0.2571  0.1137  0.3527
 7562W        W23371   1.345  16.431   0.438  0.3201 -0.1888  0.1094
 7563W        W23372   3.973   5.235   0.596 -0.1177  0.1227  0.2725
 7564W        W23373   1.917   6.023  15.746 -0.0109 -0.1800  0.1209
 7565W        W23374   7.871   5.519  14.436 -0.0014 -0.0487  0.0747
 7566W        W23375  13.969  10.306   1.636 -0.0299 -0.0854  0.2098
 7567W        W23376   7.361   5.816  12.787 -0.0894 -0.1604 -0.2951
 7568W        W23377  15.008   5.825   3.764 -0.0405  0.1177  0.1054
 7569W        W23378   3.369  14.061  14.305 -0.0261 -0.0968 -0.2612
 7570W        W23379   6.141  17.141   4.518 -0.1815 -0.0512 -0.3621
 7571W        W23380   2.924  13.546   1.975 -0.0115 -0.0188 -0.1480
 7572W        W23381   2.114   0.670   2.700  0.1941 -0.0721 -0.0716
 7573W        W23382   0.773  16.063  14.354  0.2034  0.2131 -0.3049
 7574W        W23383   3.218   5.104   2.363  0.0682 -0.0642  0.1088
 7575W        W23384   2.099   2.812  14.853  0.1719  0.5082  0.0007
 7576W        W23385  12.156  10.098  12.022 -0.4295 -0.3525  0.0660
 7577W        W23386  13.379   3.203  12.072  0.2525  0.0458 -0.2938
 7578W        W23387  13.416  17.552  14.751  0.2190  0.1310 -0.1819
 7579W        W23388   1.661  18.383  10.733 -0.2659 -0.0477  0.4190
 7580W        W23389   2.466  11.395   6.161 -0.1878  0.0854 -0.3189
 7581W        W23390  12.601  17.622  12.611 -0.1640  0.1738 -0.2101
 7582W        W23391  18.273  17.951  12.413  0.3533 -0.0417 -0.1210
 7583W        W23392  12.334   9.775  13.490 -0.0581 -0.1126  0.0954
 7584W        W23393  17.149  17.120  13.017 -0.1854 -0.1684  0.0062
 7585W        W23394   1.335  10.003   2.336  0.1015  0.1210  0.0525
 7586W        W23395  14.219  16.954  14.856  0.0073  0.2761 -0.0458
 7587W        W23396   1.686  16.238   4.791  0.1447 -0.1293 -0.2929
 7588W        W23397  10.098   8.382   2.820 -0.1783 -0.3000  0.0153
 7589W        W23398   0.951   6.087   5.206  0.3060 -0.1597  0.0922
 7590W        W23399   8.033   4.909  15.596  0.1115 -0.0506  0.0122
 7591W        W23400  16.810  13.305  15.388  0.1968 -0.0961  0.1976
 7592W        W23401   2.138   8.853  13.089  0.1201  0.1521  0.1696
 7593W        W23402   0.874   7.223   0.684  0.1356  0.1583 -0.1385
 7594W        W23403  16.942  17.322   0.863 -0.1486  0.3885 -0.4147
 7595W        W23404  10.184   4.278   1.212  0.1517  0.0606  0.0838
 7596W        W23405   8.028   7.808  14.820 -0.1343 -0.3670 -0.3815
 7597W        W23406  13.358   7.874   3.796  0.0553  0.0153  0.0365
 7598W        W23407   0.510   1.802   5.250  0.0465 -0.2460  0.0909
 7599W        W23408  11.178   5.123  15.184  0.1049 -0.1014 -0.0381
 7600W        W23409  12.424   3.140   0.543 -0.0552 -0.2537 -0.3745
 7601W        W23410   3.825   2.650  11.684 -0.0041  0.0001  0.1289
 7602W        W23411  12.740  16.589  14.048  0.0724 -0.1031  0.0779
 7603W        W23412  11.939   8.818   4.874 -0.2296  0.4388  0.2507
 7604W        W23413  14.360   3.709   3.643  0.1054 -0.1733 -0.1065
 7605W        W23414   5.034  18.610   2.676 -0.3188 -0.0419  0.1644
 7606W        W23415  15.795   0.527  12.007 -0.1027  0.1747  0.0058
 7607W        W23416  10.961   5.655  10.265  0.2694 -0.1072 -0.3758
 7608W        W23417  18.049   5.709   2.373 -0.0724  0.0727  0.2354
 7609W        W23418  15.498   0.037  12.535 -0.0009  0.0261 -0.0828
 7610W        W23419  15.583   0.749  10.109  0.0893 -0.1840 -0.1831
 7611W        W23420  18.534  14.923   2.934 -0.1329  0.1368  0.4006
 7612W        W23421  10.921   5.077   1.304  0.0970 -0.0701  0.0093
 7613W        W23422  16.252   7.055  13.568  0.0971  0.2092  0.2434
 7614W        W23423   5.398   9.418  14.464  0.1437  0.0913  0.0174
 7615W        W23424   1.729  17.165   5.050 -0.0289 -0.0299 -0.1212
 7616W        W23425  15.059  18.007  13.632  0.0104  0.2218  0.0703
 7617W        W23426   9.043  10.969  13.851  0.1363  0.0042  0.0649
 7618W        W23427   9.523  11.848  12.028 -0.0913  0.0259  0.2031
 7619W        W23428   5.745  16.607   1.738 -0.2414 -0.0295 -0.0806
 7620W        W23429   1.432   1.652  12.692 -0.3567 -0.1618 -0.1405
 7621W        W23430  17.243  15.373  14.025 -0.3436  0.0165  0.2783
 7622W        W23431  10.800  17.232  14.976  0.3746 -0.0664  0.2254
 7623W        W23432   0.614  15.238  10.426 -0.3223 -0.1831  0.0055
 7624W        W23433  10.737   3.261   1.895  0.0678 -0.0855  0.0422
 7625W        W23434  17.482   3.360  13.884 -0.0356  0.3642 -0.3446
 7626W        W23435   9.382   6.490  12.303 -0.1416 -0.1382  0.0393
 7627W        W23436   9.503  11.901  15.621 -0.0327  0.1324 -0.1353
 7628W        W23437  13.820   1.431   5.479 -0.3070  0.2348 -0.0793
 7629W        W23438  10.945  10.465   1.698 -0.3594 -0.3835 -0.3033
 7630W        W23439   9.263  12.078  11.497 -0.0343 -0.0758  0.0294
 7631W        W23440  12.727   8.003  14.468  0.3247  0.1335 -0.0770
 7632W        W23441   7.202   0.347   4.147 -0.0847 -0.0001 -0.0765
 7633W        W23442  13.658   5.081   5.219 -0.2095 -0.0977 -0.0121
 7634W        W23443   4.387  11.854   3.408 -0.0360 -0.1025  0.2006
 7635W        W23444   2.823   7.705   5.376  0.1615 -0.1799  0.1113
 7636W        W23445   1.429   3.837  11.079 -0.3391 -0.0283 -0.0325
 7637W        W23446   4.720   4.872  11.864  0.0219 -0.3100 -0.0703
 7638W        W23447  14.532  16.242   0.985 -0.1257 -0.1207 -0.0107
 7639W        W23448  16.847   9.571   5.251 -0.1690  0.1633  0.1584
 7640W        W23449   5.445  13.565  12.145  0.4686 -0.1545 -0.0142
 7641W        W23450  16.146   0.364  14.246  0.3612 -0.2371  0.0596
 7642W        W23451  14.067  13.072  10.639 -0.5402  0.0918  0.2639
 7643W        W23452  12.121  13.854   2.666 -0.0856  0.0067 -0.1267
 7644W        W23453   3.728  12.163   2.789  0.0946 -0.0076 -0.4298
 7645W        W23454   0.407  10.636   2.521  0.3242 -0.0221  0.0706
 7646W        W23455  17.086   3.955   5.751  0.1256  0.0194  0.0444
 7647W        W23456  10.714  13.310  10.853 -0.0582 -0.0986  0.3282
 7648W        W23457  10.424  11.372  10.282 -0.0128 -0.2327 -0.0416
 7649W        W23458   8.119  17.659  12.642 -0.1490 -0.1360 -0.2910
 7650W        W23459   3.463  11.787   2.473 -0.0285  0.1790 -0.1790
 7651W        W23460  17.428   3.174   0.757  0.0953 -0.1422  0.1177
 7652W        W23461   4.912   8.954   3.043  0.0533  0.1851 -0.2261
 7653W        W23462  15.393  17.215  14.749  0.1750  0.0922  0.2493
 7654W        W23463  17.305   4.386  13.732 -0.0324 -0.0765 -0.2723
 7655W        W23464   8.806  13.708   4.436 -0.1063 -0.1893 -0.0321
 7656W        W23465   6.235   9.438   3.500 -0.0902 -0.0220 -0.0687
 7657W        W23466  15.544   5.034   3.983 -0.2045 -0.1088  0.0906
 7658W        W23467  16.056  17.249   0.767 -0.3476 -0.2246  0.1048
 7659W        W23468  11.154  17.796  14.013 -0.3802  0.0281 -0.2002
 7660W        W23469   8.809   4.716  14.283  0.3421 -0.1985 -0.0041
 7661W        W23470  17.072   4.800   3.385 -0.4750 -0.0794  0.0658
 7662W        W23471   1.180   9.579   3.730 -0.5429  0.0993  0.3209
 7663W        W23472   7.714   0.703   4.240 -0.1523  0.0574  0.3143
 7664W        W23473   4.176   8.489  12.855 -0.2194  0.0294 -0.0319
 7665W        W23474   5.259  11.558   2.819 -0.2758 -0.3792  0.0186
 7666W        W23475  18.322  12.908  15.707  0.1901 -0.0522 -0.2732
 7667W        W23476  18.090   5.612   1.881 -0.0053  0.1248 -0.3016
 7668W        W23477   9.787  18.209  11.337 -0.2754 -0.1991 -0.1954
 7669W        W23478   1.128  10.617  14.866  0.0927 -0.0222 -0.1863
 7670W        W23479  12.740  16.158   0.725  0.5166  0.0132  0.0602
 7671W        W23480  11.831  17.168  15.178  0.4404 -0.0312 -0.2752
 7672W        W23481   3.485   1.936  12.730  0.4884 -0.0674  0.0540
 7673W        W23482   1.966  17.169   6.115 -0.3785  0.2024 -0.1026
 7674W        W23483   0.557   2.141  13.881 -0.2774 -0.0533  0.0660
 7675W        W23484   0.839  15.327   5.780  0.4015  0.0655  0.3607
 7676W        W23485   2.012  14.305   0.708 -0.0435  0.2574 -0.3245
 7677W        W23486   0.459  17.757   1.141 -0.1358  0.0672 -0.1511
 7678W        W23487   5.254  13.096  12.157 -0.3016 -0.0532  0.2276
 7679W        W23488   4.470  15.795  13.924 -0.0191  0.2024 -0.0683
 7680W        W23489  10.388   4.104  11.057 -0.0210 -0.0674 -0.2060
 7681W        W23490  10.762  13.124   4.079 -0.2505  0.0526  0.1527
 7682W        W23491   2.264   0.838   4.403  0.0719  0.0957  0.1677
 7683W        W23492   9.189  15.178   3.081 -0.3843  0.1505  0.0586
 7684W        W23493  10.645  16.316   2.454  0.2421 -0.0041  0.2395
 7685W        W23494  14.130  17.675  13.845 -0.1789  0.0360 -0.0130
 7686W        W23495  14.888   0.964   4.308  0.2129  0.0886 -0.2838
 7687W        W23496   5.845  16.674   2.655 -0.2236 -0.1254  0.0242
 7688W        W23497   7.936  15.093  15.189  0.0463 -0.1170 -0.0747
 7689W        W23498   0.538   0.355   5.991  0.2406  0.3990  0.4232
 7690W        W23499  11.059  12.329   0.895 -0.1334  0.0065  0.1032
 7691W        W23500  14.947  15.015  11.242 -0.1579 -0.3415 -0.3031
 7692W        W23501   9.250  18.343  12.107 -0.2280  0.2941  0.0928
 7693W        W23502  10.061  12.167   4.798  0.0524 -0.0089  0.0538
 7694W        W23503   6.462   8.413  13.971  0.3272  0.0357  0.0184
 7695W        W23504  14.493   8.653   3.349 -0.0317  0.2435  0.3796
 7696W        W23505  18.587   5.630  12.027  0.0307  0.0197  0.0991
 7697W        W23506   5.703  17.753   1.139  0.2394 -0.2805  0.1760
 7698W        W23507  13.073  15.338   3.148 -0.2895 -0.2487  0.0180
 7699W        W23508   2.374  16.818   4.306 -0.2244  0.0108 -0.1639
 7700W        W23509  17.275   0.463   4.671  0.2286 -0.0726  0.3859
 7701W        W23510   5.657   7.975   2.590  0.0842  0.0825  0.0649
 7702W        W23511   2.805  16.074  13.120 -0.1202 -0.0024 -0.1770
 7703W        W23512   2.379   5.289  11.951 -0.5248  0.0777  0.1908
 7704W        W23513   0.109  11.132   1.388 -0.1732 -0.2648  0.1433
 7705W        W23514   3.300  14.877   3.984  0.0293  0.1265 -0.1690
 7706W        W23515  10.451   3.582  12.897  0.1681 -0.0824  0.0982
 7707W        W23516  18.661  17.673  15.601 -0.3121  0.0419 -0.1527
 7708W        W23517  16.865  12.284   4.860  0.0765  0.1027 -0.1916
 7709W        W23518  14.245   7.869  12.567  0.4204  0.0928 -0.2266
 7710W        W23519  15.369   5.291  14.143 -0.0629 -0.2198  0.1651
 7711W        W23520   6.009   1.559   1.720 -0.0248 -0.0291 -0.1272
 7712W        W23521   3.702   2.437   0.162 -0.0760 -0.0837  0.0048
 7713W        W23522   3.357  17.797  11.369 -0.0211  0.0323 -0.2736
 7714W        W23523  15.666  17.182  11.011 -0.1102  0.0103  0.2026
 7715W        W23524   5.313   2.626  13.829 -0.1704 -0.0664  0.1083
 7716W        W23525   4.294  17.866   3.509  0.0579  0.0064  0.0341
 7717W        W23526   0.410  10.309   0.408 -0.2578  0.0428 -0.0377
 7718W        W23527   2.008  13.424  15.184  0.0901  0.1037 -0.1325
 7719W        W23528   0.573   8.513  14.851 -0.0766 -0.0104  0.2334
 7720W        W23529  13.727   7.966  12.412 -0.0279  0.0222  0.0556
 7721W        W23530   4.495   3.656  13.972  0.0983 -0.0416  0.2980
 7722W        W23531  11.650   4.072  10.927 -0.2781 -0.0730 -0.0511
 7723W        W23532   5.391   0.446  12.691  0.0900 -0.0388 -0.1825
 7724W        W23533  15.214   8.901   3.082 -0.1226  0.2697 -0.0231
 7725W        W23534   5.331   5.392   2.571 -0.0517  0.1506 -0.2891
 7726W        W23535   1.444   2.219  15.561  0.3144  0.0314 -0.0048
 7727W        W23536   8.457  14.172   3.101 -0.1596 -0.0844 -0.0222
 7728W        W23537  14.597   6.375   5.236 -0.0996  0.0371  0.1050
 7729W        W23538   0.251   1.801   3.028 -0.1413  0.1379  0.0533
 7730W        W23539  17.235   7.544   0.557 -0.0682 -0.3822  0.0489
 7731W        W23540  14.252  11.768   5.220 -0.0951 -0.1451 -0.0635
 7732W        W23541  17.289  11.959  13.900  0.3224 -0.0216  0.1569
 7733W        W23542   4.175   7.775   0.403  0.0836 -0.3232 -0.2093
 7734W        W23543  14.442   0.591   5.049 -0.0201 -0.3695  0.0525
 7735W        W23544   2.423  16.177  10.655 -0.1124  0.3443  0.1597
 7736W        W23545   4.883  16.588  15.732  0.0181  0.1334 -0.2217
 7737W        W23546   7.516  14.552   5.133 -0.1978  0.3690 -0.1352
 7738W        W23547   6.536   4.770   5.550  0.2423 -0.1642 -0.0605
 7739W        W23548   6.427  17.794   0.479  0.0431  0.2199  0.1866
 7740W        W23549  10.363   5.043   4.746 -0.1196  0.0380 -0.0773
 7741W        W23550  14.091  10.975   2.546 -0.0663  0.2578  0.2391
 7742W        W23551  11.026   5.173  12.054 -0.2481 -0.0782  0.3755
 7743W        W23552  13.348   4.843   2.984 -0.1666 -0.0860 -0.0788
 7744W        W23553   3.008  12.871  12.475  0.1082  0.2193 -0.1503
 7745W        W23554   8.440  18.571   2.114 -0.0293  0.2733 -0.2160
 7746W        W23555  13.753   8.585   5.280 -0.0174  0.1716  0.0062
 7747W        W23556  15.010   9.921  15.385 -0.2216 -0.5285  0.0231
 7748W        W23557   8.146  12.191   2.205  0.1348  0.0319 -0.0720
 7749W        W23558   6.769   5.718  11.089  0.1965 -0.0069 -0.1747
 7750W        W23559  16.992  14.808   1.730  0.0615 -0.0209  0.2156
 7751W        W23560  16.548  13.454  12.567  0.0766  0.1045  0.3198
 7752W        W23561   1.254   0.152  13.158  0.1553  0.3268 -0.3267
 7753W        W23562  15.555   7.299  12.829 -0.1109  0.1074 -0.1919
 7754W        W23563   1.265  10.441  13.537 -0.3547  0.1179  0.3237
 7755W        W23564   6.985   1.435  13.937 -0.0600  0.0086  0.0257
 7756W        W23565   7.902   5.046  14.656  0.3455 -0.2453 -0.1137
 7757W        W23566  17.519   2.898  13.669 -0.2780 -0.0576 -0.3781
 7758W        W23567  15.517  11.701  12.093  0.0973 -0.3942  0.2171
 7759W        W23568   7.445  17.705   2.821  0.0857  0.4484 -0.0868
 7760W        W23569   0.919   7.420  10.939  0.2930 -0.1498  0.2930
 7761W        W23570  10.259   1.863   2.063  0.0606  0.2511  0.2273
 7762W        W23571   2.196   0.998  12.404 -0.1211 -0.1745  0.4637
 7763W        W23572   1.442   7.285  13.738 -0.0526 -0.0929 -0.2188
 7764W        W23573   0.700  14.406   1.406 -0.1682 -0.3582  0.0295
 7765W        W23574  10.780  12.417  15.743 -0.2502 -0.1501  0.0948
 7766W        W23575   8.852  14.330   1.182  0.0875  0.2606  0.2292
 7767W        W23576   6.890   1.910  13.982  0.0901 -0.2585  0.0583
 7768W        W23577   1.056  17.095  10.982  0.0649  0.1311  0.1615
 7769W        W23578  17.968   0.885   1.229 -0.1733  0.1021 -0.0611
 7770W        W23579   6.401   4.591  15.397  0.1756  0.1316  0.0149
 7771W        W23580  13.515   0.253  13.595  0.2248  0.2341 -0.0093
 7772W        W23581   2.841  16.280   3.530  0.3320 -0.0409  0.0049
 7773W        W23582   9.928   8.259   0.906 -0.1717  0.1850  0.2919
 7774W        W23583   4.719  16.204  12.391 -0.1151  0.0088 -0.1756
 7775W        W23584   3.111  13.352  12.211  0.1063  0.1950  0.4254
 7776W        W23585   0.453  11.267   2.700 -0.0484 -0.1021 -0.0093
 7777W        W23586  18.190   7.053   3.143  0.0735 -0.0073 -0.1399
 7778W        W23587   1.133  11.415  14.845 -0.2399  0.1969  0.1223
 7779W        W23588   2.051   5.032  12.410  0.1964  0.2739  0.3195
 7780W        W23589   3.726  16.029   2.534 -0.2292  0.0366 -0.1211
 7781W        W23590  16.844   1.642   4.118  0.1554 -0.2800 -0.4100
 7782W        W23591   5.853  11.376   1.933 -0.1946  0.0349  0.2065
 7783W        W23592  15.179   4.109   2.868  0.0879 -0.3295 -0.1803
 7784W        W23593   0.179  12.633   0.720 -0.1556  0.2715  0.0637
 7785W        W23594   9.131  11.961   4.751 -0.2784 -0.4231 -0.4269
 7786W        W23595   5.178  15.469   5.483 -0.2111  0.0170  0.2057
 7787W        W23596  14.706   3.968   2.683 -0.1023 -0.0380  0.3056
 7788W        W23597  15.728  17.912  14.881  0.0125  0.0538  0.0600
 7789W        W23598   5.759   6.488  12.968  0.1006  0.0180  0.3871
 7790W        W23599   2.539   9.421  11.625 -0.0945 -0.1386  0.1062
 7791W        W23600   7.008  16.310   2.343 -0.0782  0.0326  0.2816
 7792W        W23601  10.990   5.794   2.077 -0.2405 -0.0018  0.2716
 7793W        W23602  15.231  13.835  13.267  0.1094  0.1797 -0.0509
 7794W        W23603   2.444   1.417  15.642 -0.0591 -0.2610  0.2046
 7795W        W23604   1.056  12.509  13.897  0.0542 -0.1856 -0.3629
 7796W        W23605  16.681   1.430  11.040  0.1047  0.2363  0.0659
 7797W        W23606   8.754   3.985   5.376 -0.3195 -0.4406 -0.0548
 7798W        W23607  15.889   8.540   4.704  0.1994  0.1953  0.1574
 7799W        W23608   8.545   6.446  14.139 -0.1220 -0.1798  0.0036
 7800W        W23609  14.386  17.086   1.331  0.1165 -0.2530  0.1054
 7801W        W23610  18.162  17.696  14.357  0.0666 -0.1390  0.0208
 7802W        W23611   8.886   0.619   0.903 -0.2389  0.0626 -0.0334
 7803W        W23612  10.010   1.332   4.598 -0.0316 -0.2118 -0.1755
 7804W        W23613  15.552   0.195   0.096 -0.0828  0.0994 -0.0346
 7805W        W23614   2.264  17.955  15.695  0.1817 -0.1775 -0.0252
 7806W        W23615  10.257   4.384  13.139 -0.2950 -0.2169  0.0137
 7807W        W23616   4.772  13.926   2.368  0.0955  0.4042  0.3058
 7808W        W23617  15.308  13.168   0.425 -0.0283  0.0813  0.0769
 7809W        W23618  12.329  16.034  13.027 -0.1270 -0.1544 -0.2609
 7810W        W23619  16.755   0.688  10.934  0.1555 -0.0333 -0.0586
 7811W        W23620  10.947   0.296   0.785 -0.0999  0.2523 -0.0940
 7812W        W23621   9.238  12.130   4.266  0.0687  0.0887  0.0257
 7813W        W23622  11.697   2.544   5.105 -0.1167  0.0038 -0.0150
 7814W        W23623  11.277   0.755   4.056  0.1099  0.2410 -0.0524
 7815W        W23624  16.110   9.116   0.380  0.3050 -0.1339  0.1152
 7816W        W23625   6.812  17.568  13.592  0.0138  0.0775 -0.0468
 7817W        W23626  10.956   4.588   1.006  0.1733 -0.1065 -0.1013
 7818W        W23627   8.796   1.661   4.002 -0.0380  0.2516 -0.0111
 7819W        W23628  16.470   1.033  15.112  0.1331 -0.0128  0.0367
 7820W        W23629  14.666  17.965  11.723  0.0341 -0.2097  0.0712
 7821W        W23630   7.498   1.717   5.082 -0.3674 -0.1041 -0.0108
 7822W        W23631   4.854   3.642  11.326  0.0387 -0.1937 -0.2075
 7823W        W23632   6.154   3.839   2.136 -0.0878 -0.0818 -0.0471
 7824W        W23633  13.763   9.491   3.906 -0.0076  0.1279  0.1857
 7825W        W23634   4.103  14.966   3.000  0.0168 -0.0827  0.1998
 7826W        W23635   4.682  12.681   2.394 -0.1387 -0.0447 -0.0392
 7827W        W23636   5.266   9.855   3.044 -0.4030  0.2528 -0.1003
 7828W        W23637  15.362   9.462   2.377  0.1974 -0.1474  0.0516
 7829W        W23638   9.589  17.185   4.130 -0.1192  0.2962  0.0305
 7830W        W23639   0.439   8.173   1.486  0.0894 -0.0596  0.3515
 7831W        W23640   1.731  10.599   5.369 -0.0357 -0.0588  0.4526
 7832W        W23641  12.893  11.569   0.515  0.2171 -0.0156  0.2194
 7833W        W23642   1.129  14.299   0.238  0.1536  0.0986 -0.3676
 7834W        W23643   7.657   9.844  13.911  0.3779 -0.0459 -0.1885
 7835W        W23644  13.039   6.209  13.567  0.0266  0.1603  0.2584
 7836W        W23645  18.156  18.312  14.961  0.2222 -0.1299  0.2245
 7837W        W23646   6.608   3.977   5.016 -0.2053  0.4184  0.0786
 7838W        W23647  11.117  13.696   4.026 -0.3730 -0.1759  0.1625
 7839W        W23648  12.645  15.770   3.257 -0.0708  0.1827 -0.1475
 7840W        W23649   1.434   1.613   3.885 -0.3441 -0.0896 -0.2019
 7841W        W23650  10.609  10.396  11.565 -0.2016  0.0149 -0.1490
 7842W        W23651   5.456   7.342   5.852 -0.4081 -0.0718  0.1906
 7843W        W23652  14.574  15.799   0.352  0.0147 -0.1006  0.0772
 7844W        W23653   2.094   4.848   2.974 -0.0595 -0.2796 -0.0415
 7845W        W23654   0.110  17.333  11.878 -0.1158  0.0379  0.0732
 7846W        W23655   6.060  12.489  15.518  0.1540 -0.0330 -0.1127
 7847W        W23656   5.505  11.885  11.146 -0.3580 -0.0367  0.1910
 7848W        W23657  12.017  10.770  11.517 -0.1252 -0.2491  0.0090
 7849W        W23658  10.018   4.639   5.851  0.4246  0.0857  0.0608
 7850W        W23659  16.264   1.448   5.006  0.1062 -0.5117 -0.1422
 7851W        W23660  14.539   3.219   5.466 -0.1639  0.1212  0.1488
 7852W        W23661   4.589   3.404   1.645 -0.2520 -0.0430  0.0950
 7853W        W23662   1.855   4.253  13.827  0.3362 -0.1839 -0.0072
 7854W        W23663   2.926   8.700  13.266 -0.2984 -0.1260  0.0526
 7855W        W23664   1.801  15.862   4.391 -0.1485 -0.0805  0.0065
 7856W        W23665  17.079  15.747   2.030  0.0141 -0.1991 -0.0461
 7857W        W23666  14.144   1.736  14.819  0.0869 -0.1894 -0.0959
 7858W        W23667   7.572  11.531  11.344  0.1964 -0.0118 -0.1053
 7859W        W23668  16.836  12.402   2.741  0.0666  0.2630  0.2295
 7860W        W23669   0.204   3.731   1.593 -0.3984 -0.2683  0.3517
 7861W        W23670  12.250  14.967   3.919  0.0795 -0.2384 -0.1727
 7862W        W23671  14.343   7.517  11.772 -0.0572  0.0874 -0.1640
 7863W        W23672   4.768  14.783  13.161  0.0826  0.0966  0.0289
 7864W        W23673  12.948  18.654  11.456  0.2327  0.0032  0.1034
 7865W        W23674   8.415  16.181  10.270 -0.1442  0.0057 -0.0635
 7866W        W23675  17.874   1.381   1.375 -0.1382  0.0286 -0.2230
 7867W        W23676  11.822  14.705   4.121  0.3487  0.0031 -0.1415
 7868W        W23677  16.578   7.220   1.666  0.0925  0.2468  0.1793
 7869W        W23678  17.370   2.246  14.464 -0.1938  0.1309 -0.0857
 7870W        W23679   2.866  13.206  13.314 -0.0855  0.3788 -0.2734
 7871W        W23680  10.965   7.571  11.933  0.0266  0.3045 -0.2589
 7872W        W23681   2.642   5.708  14.653 -0.3390 -0.1149 -0.1312
 7873W        W23682   1.715   7.126  13.335 -0.0116 -0.3374  0.0180
 7874W        W23683  15.902  15.195   4.760  0.0526  0.2482  0.1370
 7875W        W23684   7.085  11.117  12.062 -0.4278 -0.2296  0.3815
 7876W        W23685   0.531   0.863   0.741 -0.1434 -0.1323  0.0990
 7877W        W23686   1.710  13.315   4.494 -0.2039 -0.0241  0.0316
 7878W        W23687   7.537   6.825  12.725 -0.0876  0.1190 -0.2567
 7879W        W23688   9.130   9.438  10.886  0.0953  0.1074  0.2113
 7880W        W23689  14.993   4.338  12.023  0.0118 -0.1131 -0.2409
 7881W        W23690  17.110  13.888   4.270  0.0798  0.1975 -0.1325
 7882W        W23691  16.577   6.761  14.395  0.0553  0.0534 -0.2643
 7883W        W23692   7.732   9.396   4.293  0.3934 -0.2869  0.1830
 7884W        W23693   7.632  15.091   5.145 -0.2140  0.0803  0.0496
 7885W        W23694   2.259  11.940   3.083  0.2471  0.4664 -0.0836
 7886W        W23695   5.247   8.834   2.708  0.0133  0.0171  0.0593
 7887W        W23696  17.414   7.651   1.428 -0.1015  0.3287 -0.1915
 7888W        W23697   4.112  11.428   0.611  0.0196  0.0462 -0.2267
 7889W        W23698   4.735  10.549  14.102 -0.3417 -0.1639  0.2556
 7890W        W23699  15.796   9.760  14.261  0.2967 -0.0227 -0.0218
 7891W        W23700   5.611   0.965  15.738  0.0489  0.1533 -0.0920
 7892W        W23701  11.849   3.061   1.628 -0.0369  0.1958  0.0696
 7893W        W23702  14.533   0.439   1.180  0.4550 -0.4153  0.2748
 7894W        W23703  13.943   3.591   3.364 -0.0861  0.0263 -0.0865
 7895W        W23704   4.524  12.616  14.468  0.0705 -0.3239  0.0075
 7896W        W23705  16.506   7.978   1.252  0.5209  0.4120 -0.0473
 7897W        W23706  15.342   1.773   0.468  0.1606 -0.2781  0.1115
 7898W        W23707   9.716  10.116   2.195  0.0925 -0.2214  0.0615
 7899W        W23708   9.074   5.599   4.197  0.2548 -0.1307 -0.2911
 7900W        W23709  12.186   6.765  13.894 -0.1379 -0.0522  0.1713
 7901W        W23710  15.841   9.398   2.427  0.0126 -0.0602  0.2446
 7902W        W23711   3.788   5.688  14.064  0.0285  0.1055 -0.1626
 7903W        W23712   8.332   5.627   5.161  0.2546  0.0062  0.1829
 7904W        W23713  18.530  10.659   3.740  0.0879 -0.0186  0.0309
 7905W        W23714  10.739   1.676  14.576 -0.2378  0.1127  0.1589
 7906W        W23715  12.669   8.518  12.244  0.0978 -0.1165 -0.1844
 7907W        W23716   8.363  12.360   5.665  0.0873  0.0055 -0.0108
 7908W        W23717  17.702   2.000   3.849  0.2873 -0.1481 -0.2934
 7909W        W23718  12.518  10.414  14.300  0.2663  0.0231  0.0952
 7910W        W23719  10.095   0.351   0.426 -0.0643 -0.1018  0.2386
 7911W        W23720  15.594  16.489   4.886 -0.3117 -0.2441  0.1647
 7912W        W23721  13.996   1.842  12.698 -0.2816  0.0982 -0.2801
 7913W        W23722   5.179   0.446  13.135  0.2410  0.3616  0.3343
 7914W        W23723  13.031   8.399   1.771 -0.0305  0.0856  0.2487
 7915W        W23724   7.309   9.319   2.394  0.0510  0.1018 -0.4687
 7916W        W23725   2.386  17.124   2.601 -0.0126  0.0363  0.0565
 7917W        W23726  10.647  15.918   5.136 -0.1618  0.3402  0.0569
 7918W        W23727   6.601  14.155   3.157 -0.0262  0.0331 -0.0327
 7919W        W23728  14.812  17.376   1.295  0.0294  0.0099 -0.4438
 7920W        W23729   3.279   8.389  14.932 -0.1777  0.0043  0.1128
 7921W        W23730   0.105  10.284  13.061  0.0116 -0.0025 -0.1148
 7922W        W23731  12.054  13.262   3.113  0.2805  0.1651 -0.1113
 7923W        W23732  13.954   2.616   4.751  0.3148 -0.0462 -0.4786
 7924W        W23733   3.447   9.123   0.455 -0.2147  0.2091 -0.1849
 7925W        W23734  12.842   8.782   1.403 -0.3354  0.4091  0.0293
 7926W        W23735   9.398   4.786   0.157  0.1426 -0.2501  0.1245
 7927W        W23736  15.362  18.190   0.996 -0.1720 -0.0985  0.1936
 7928W        W23737   8.351  15.948  10.764  0.1097 -0.1871 -0.0037
 7929W        W23738   4.459  18.154   5.557 -0.2234  0.2142  0.2638
 7930W        W23739   2.465   0.013   4.118  0.0516  0.1062  0.0085
 7931W        W23740   3.328  10.700   1.483 -0.1017  0.0628 -0.1766
 7932W        W23741   0.544  15.896  13.820  0.3582 -0.2472  0.1477
 7933W        W23742   1.436  12.775  14.044  0.3412 -0.3026  0.0911
 7934W        W23743   0.256  13.923   5.416  0.0037  0.2760  0.0195
 7935W        W23744   0.234   0.042   0.684  0.3338 -0.2681  0.1116
 7936W        W23745   7.636  12.976   3.400  0.1739 -0.3142 -0.0720
 7937W        W23746  18.484   1.623   0.906  0.0566 -0.2180 -0.0271
 7938W        W23747   0.139   9.209  11.253 -0.2331  0.5875  0.3839
 7939W        W23748   7.996   4.636   0.675 -0.2270 -0.0967  0.2161
 7940W        W23749   8.552  17.900   0.165  0.0397 -0.1295  0.1819
 7941W        W23750   4.958   4.256   0.396  0.0592 -0.2692  0.0534
 7942W        W23751   3.435   7.669  11.964 -0.0685  0.2755  0.0829
 7943W        W23752  16.579  14.522   4.340 -0.1953 -0.0659  0.0453
 7944W        W23753  17.816  16.147  14.526 -0.0205  0.1113 -0.3910
 7945W        W23754  16.176  17.260  10.735  0.0656 -0.1280 -0.1663
 7946W        W23755  14.843  10.922  13.133 -0.0600 -0.0412  0.2198
 7947W        W23756  13.880  13.815   1.725  0.0884 -0.5237  0.0896
 7948W        W23757  13.790  10.832   3.274  0.0733 -0.0275 -0.0780
 7949W        W23758   2.027   9.475  11.726  0.1244 -0.2421  0.1562
 7950W        W23759  14.815  12.548   5.429  0.0118  0.0849 -0.2414
 7951W        W23760  14.758  13.859   4.983  0.0903  0.0420  0.1109
 7952W        W23761   2.340   4.257   2.618 -0.1467 -0.1159  0.0544
 7953W        W23762   4.063  12.996  13.528  0.0157  0.1599  0.0069
 7954W        W23763   1.291   7.533  15.632 -0.2914 -0.2119 -0.0435
 7955W        W23764  14.410  13.793  15.536 -0.0820  0.0474 -0.1201
 7956W        W23765   6.491   7.924  11.365 -0.0021  0.2554 -0.4181
 7957W        W23766  11.043   3.221  15.370  0.0003 -0.1117 -0.0055
 7958W        W23767   1.715  11.551  14.431 -0.1375  0.0254 -0.0513
 7959W        W23768  18.416  15.915   4.533 -0.0570  0.2876  0.0344
 7960W        W23769   1.808   9.185   2.352 -0.0949  0.1303 -0.1900
 7961W        W23770  15.915   4.573   0.522 -0.3261 -0.2211 -0.2566
 7962W        W23771   8.885   2.113   3.849  0.1695  0.0266 -0.1628
 7963W        W23772  13.022  10.983   1.086  0.0008  0.1358 -0.0662
 7964W        W23773   5.048   4.964   2.859  0.1477  0.0439 -0.0043
 7965W        W23774   1.232   5.219  14.588 -0.0995 -0.2576  0.2849
 7966W        W23775   8.928   2.824   3.050  0.0638  0.0405  0.2591
 7967W        W23776  14.195   0.156  13.886  0.0888 -0.2485 -0.2307
 7968W        W23777   6.408  17.328   0.738  0.0754  0.0325  0.1285
 7969W        W23778   6.947   2.344  13.171 -0.0033  0.2329  0.5183
 7970W        W23779   6.361  10.922  13.279 -0.2442 -0.1007 -0.3503
 7971W        W23780   7.752   2.589  11.747 -0.1098 -0.1104  0.0290
 7972W        W23781   6.007  17.971   2.390 -0.4606 -0.1051 -0.2553
 7973W        W23782  15.290   9.581   1.531  0.1522 -0.0958 -0.2316
 7974W        W23783   5.320  12.780   0.836  0.4842 -0.0969 -0.0379
 7975W        W23784   4.905  11.704   1.179 -0.1243 -0.0202 -0.3734
 7976W        W23785  14.212   2.535  15.214 -0.2627  0.2780 -0.4496
 7977W        W23786   2.789   6.299   5.390 -0.0257 -0.0473 -0.0134
 7978W        W23787   1.218   0.261  11.429 -0.0268 -0.2292 -0.2559
 7979W        W23788   2.041  12.395   5.666  0.3679 -0.1114 -0.3908
 7980W        W23789  10.981   4.867   5.173  0.3927 -0.1944  0.0684
 7981W        W23790  18.241  14.538  11.618 -0.3711 -0.1915 -0.0483
 7982W        W23791  10.136   2.179   3.743 -0.1630  0.2805  0.1812
 7983W        W23792  12.113   9.459  13.025 -0.2504 -0.0517  0.2270
 7984W        W23793  15.687   5.632  11.142  0.0532  0.1030  0.2052
 7985W        W23794   7.100   3.245   4.228 -0.0369 -0.0549 -0.0423
 7986W        W23795   3.495  17.022   1.209  0.1117 -0.3702 -0.3207
 7987W        W23796   4.233  13.730  14.873 -0.0205 -0.2350  0.0247
 7988W        W23797  15.035  18.568   3.361 -0.0215 -0.2432  0.1615
 7989W        W23798  15.050  17.088   2.695 -0.3049 -0.1414 -0.6164
 7990W        W23799   8.571   5.201  15.561 -0.0184  0.2818  0.4416
 7991W        W23800   6.849   9.375  12.071 -0.3373  0.1645 -0.1291
 7992W        W23801   5.225   3.839  14.482 -0.1802 -0.0010  0.0872
 7993W        W23802  16.687  12.868   6.212  0.1041  0.2375 -0.1185
 7994W        W23803  10.631  17.483   3.069 -0.0679 -0.1368  0.0308
 7995W        W23804   6.955  17.989  15.475 -0.0211 -0.2571 -0.2690
 7996W        W23805  13.810  13.933   0.693 -0.0746 -0.0144 -0.3307
 7997W        W23806   7.293   7.578   1.809  0.0341  0.1422 -0.1700
 7998W        W23807   9.734   5.156  11.938  0.2224  0.1483 -0.2234
 7999W        W23808  15.220  11.629   0.395 -0.0880 -0.1214 -0.3589
 8000W        W23809   1.565   1.055   3.136 -0.0957 -0.0663 -0.3580
 8001W        W23810  10.819  12.928  11.565  0.1100  0.0667 -0.0020
 8002W        W23811   0.093   4.639  13.316  0.0157  0.2755  0.3515
 8003W        W23812  10.281   7.358   3.935 -0.2050 -0.0094 -0.1927
 8004W        W23813   4.690   2.587   1.675 -0.2201  0.0171  0.0407
 8005W        W23814   1.484  12.025   2.343 -0.1244  0.2668 -0.0440
 8006W        W23815   7.179  12.632   2.136  0.0201 -0.1521 -0.0179
 8007W        W23816   6.332   7.675  15.219 -0.2562 -0.0476 -0.1992
 8008W        W23817   4.943  15.068   1.588 -0.0176  0.1240  0.3839
 8009W        W23818  16.451  15.246   3.526  0.2217 -0.2838 -0.0640
 8010W        W23819  10.381   9.766   5.351  0.1258  0.0296  0.1405
 8011W        W23820  11.472   5.941  10.759 -0.1622  0.4502  0.0166
 8012W        W23821  12.161  13.570   4.929 -0.1185  0.0851 -0.2942
 8013W        W23822  12.149   0.316  13.172 -0.1379  0.0232 -0.1542
 8014W        W23823  10.683  13.351  11.342  0.0512  0.0457  0.3475
 8015W        W23824   7.367  15.035   2.452 -0.0326  0.1924 -0.0048
 8016W        W23825  12.790  11.159   3.905 -0.1036 -0.0766 -0.1274
 8017W        W23826   5.229  17.888   3.384 -0.1028 -0.3662 -0.2037
 8018W        W23827  13.919   0.185  12.291  0.1273 -0.0722 -0.3464
 8019W        W23828  16.083   8.615  14.609  0.0325  0.0752 -0.2638
 8020W        W23829   0.790   7.149  14.891  0.0021  0.1189 -0.2811
 8021W        W23830   7.553  10.343  14.639 -0.0206 -0.2183  0.0563
 8022W        W23831   2.786   2.471   0.495 -0.0690 -0.0864  0.0954
 8023W        W23832  17.412   1.834   0.474 -0.3824 -0.0636  0.1576
 8024W        W23833  16.495  16.368  13.543 -0.1889 -0.3755  0.0261
 8025W        W23834   7.038   3.700   2.580 -0.3165 -0.1328  0.1516
 8026W        W23835   2.811  18.443   0.739  0.0292 -0.2352  0.1203
 8027W        W23836  11.967   9.973   0.694  0.1484  0.2909  0.1948
 8028W        W23837   2.878   6.286   5.925  0.0462  0.1456  0.1264
 8029W        W23838  12.741   3.006   0.165  0.1751  0.0824  0.0550
 8030W        W23839  13.644   1.385   1.935  0.0506 -0.0067  0.0036
 8031W        W23840   6.851   2.760   5.855  0.1915 -0.1309  0.2496
 8032W        W23841  17.521  10.771   0.860 -0.2422 -0.0828  0.3538
 8033W        W23842   7.425  14.145   5.543 -0.1451 -0.2046 -0.2572
 8034W        W23843   1.731   0.351  10.519 -0.1329 -0.0620  0.2701
 8035W        W23844  11.272   9.567  14.437 -0.2373 -0.2705 -0.0266
 8036W        W23845  16.189   1.074  13.756  0.0843  0.0765  0.1048
 8037W        W23846   4.474   2.102   1.030  0.0531  0.0987 -0.0997
 8038W        W23847   2.133  14.854   4.318 -0.3715  0.1424 -0.2000
 8039W        W23848  18.182  11.294   5.443  0.1187 -0.0081 -0.1172
 8040W        W23849   2.054  17.078   4.655 -0.1099  0.1489  0.1085
 8041W        W23850  17.858   9.391   3.916 -0.0689  0.0572 -0.1175
 8042W        W23851   7.940   7.204  14.134  0.0804  0.0889 -0.0936
 8043W        W23852  18.650   7.170  14.594 -0.1424  0.5002  0.1756
 8044W        W23853  13.124   2.401   5.358 -0.0086  0.2149 -0.2962
 8045W        W23854  11.315  13.907   2.596 -0.2835 -0.1770  0.0789
 8046W        W23855  16.368  15.712   2.735  0.1343  0.4159  0.3628
 8047W        W23856  17.420  17.132   2.638  0.2166  0.0243  0.2776
 8048W        W23857  10.699  10.267   3.207 -0.2890 -0.2892 -0.0744
 8049W        W23858  18.611  13.506   0.477 -0.1198 -0.1851 -0.1205
 8050W        W23859   9.263  13.990   2.629  0.3271 -0.1135 -0.0729
 8051W        W23860  16.303   1.301   1.740 -0.1749  0.0671  0.2074
 8052W        W23861   3.281  16.165  14.783  0.1410  0.2936  0.2528
 8053W        W23862  11.274   5.326  13.911  0.1881 -0.0128 -0.0864
 8054W        W23863   2.335   2.313   1.846 -0.3220 -0.2806 -0.1184
 8055W        W23864   3.652   1.122  14.100 -0.1609 -0.0954  0.0874
 8056W        W23865   7.753  17.277  12.603  0.0755  0.1900  0.2002
 8057W        W23866   4.246   7.113   2.066  0.1596 -0.1149  0.0388
 8058W        W23867  18.441  13.967  15.205 -0.0782 -0.0846  0.0112
 8059W        W23868   1.464   9.057   1.073 -0.1942 -0.0257 -0.3177
 8060W        W23869   6.206   2.516   2.247 -0.0613 -0.1599  0.2162
 8061W        W23870   2.376   0.868   1.590 -0.1451  0.2685  0.0053
 8062W        W23871   6.639   6.040  15.575  0.0686 -0.2217  0.0863
 8063W        W23872   0.196   5.919  12.952  0.1958  0.0297 -0.0933
 8064W        W23873   1.812   7.294  14.970 -0.0601 -0.0916 -0.2396
 8065W        W23874  14.762  16.990   5.135  0.1347 -0.1493  0.1779
 8066W        W23875  15.389   2.087   0.081 -0.0633 -0.2166  0.2250
 8067W        W23876  14.612   7.819   3.067 -0.0947 -0.0126  0.4903
 8068W        W23877   5.049   7.359   3.742  0.3290  0.0325 -0.0295
 8069W        W23878   5.314  15.587  14.250 -0.3776  0.1688  0.1462
 8070W        W23879   0.688   2.783   4.988  0.0249 -0.0636 -0.0092
 8071W        W23880   1.530  14.320  12.727 -0.0735 -0.1348  0.0113
 8072W        W23881  16.106  18.193   5.726 -0.0876  0.1067  0.0341
 8073W        W23882  14.055  11.488  14.280 -0.0343  0.1177  0.3081
 8074W        W23883  10.173   4.971  13.163 -0.1346  0.1823  0.0736
 8075W        W23884  12.723   1.994   3.396 -0.0158 -0.0610 -0.0425
 8076W        W23885  15.085  16.366  11.189  0.2722  0.1494  0.1898
 8077W        W23886  12.832   1.743  14.800  0.2988  0.1119 -0.3997
 8078W        W23887  10.155   7.265  12.349  0.1195  0.1723 -0.1587
 8079W        W23888  14.671   3.994  12.894 -0.0937  0.3023  0.1441
 8080W        W23889   5.153   1.301   3.022 -0.1403 -0.1070 -0.1831
 8081W        W23890  17.059   5.847  14.423 -0.2929 -0.0669  0.0563
 8082W        W23891  15.184  15.121   1.868 -0.1888 -0.1529  0.4490
 8083W        W23892   2.991  15.841   3.697 -0.0314 -0.1313 -0.1137
 8084W        W23893   4.386   4.216   3.342  0.0657 -0.0129 -0.0307
 8085W        W23894   9.233   3.744  11.212  0.2283  0.0226 -0.2318
 8086W        W23895  13.796   8.194   3.337  0.1666 -0.1572 -0.2025
 8087W        W23896   5.771  10.715   1.287  0.0899 -0.1156 -0.1619
 8088W        W23897   2.005   2.525   5.258  0.3125  0.2803 -0.0876
 8089W        W23898   3.173  13.004  15.548 -0.3370 -0.2887  0.2069
 8090W        W23899  16.708  13.302  11.410 -0.1142 -0.0254  0.0912
 8091W        W23900   0.565  13.993   1.751 -0.0746  0.3143 -0.3000
 8092W        W23901   2.845   5.828   4.540  0.2087  0.1552  0.1758
 8093W        W23902   8.214   1.292   3.755  0.1355  0.0362  0.0219
 8094W        W23903   1.161   4.404   3.052  0.1208 -0.0382  0.4648
 8095W        W23904   5.092   4.580  12.118 -0.0484 -0.2590  0.0598
 8096W        W23905   9.740  18.132  10.794  0.0516 -0.1391  0.2402
 8097W        W23906  15.413   6.921   3.256 -0.1693 -0.1208 -0.2156
 8098W        W23907  16.454   9.879   3.693  0.0492  0.0132  0.0445
 8099W        W23908   6.416  11.823  14.022  0.0007 -0.3864  0.1567
 8100W        W23909  11.083  18.536  10.641  0.0405 -0.1827 -0.2906
 8101W        W23910  18.023  18.160   2.972  0.3696  0.1286  0.2299
 8102W        W23911   1.587  10.694  11.257 -0.3397 -0.0379 -0.2690
 8103W        W23912  10.660  16.266  12.273 -0.2555  0.0676  0.1067
 8104W        W23913   1.966  17.292  12.730 -0.1303  0.3223 -0.3259
 8105W        W23914  17.604  13.969   2.794 -0.0494  0.1575 -0.2174
 8106W        W23915  12.285  12.343   4.296 -0.0159  0.0286 -0.0623
 8107W        W23916   2.618   5.396   1.828 -0.1427 -0.2625 -0.0348
 8108W        W23917  12.473  13.662   4.553  0.3061  0.6060  0.1406
 8109W        W23918  14.776   4.461  15.471  0.1466 -0.1797 -0.2942
 8110W        W23919  11.397   2.778   0.660  0.1401  0.1453  0.5596
 8111W        W23920   2.459   8.414  14.226  0.0665 -0.0632  0.0167
 8112W        W23921   5.966  10.039   4.045 -0.3375  0.3935 -0.1391
 8113W        W23922  10.536   0.741   4.635 -0.0351 -0.0328 -0.1973
 8114W        W23923  11.776   7.699   0.236  0.0232 -0.2285 -0.1127
 8115W        W23924  11.513  13.418   1.479  0.0311 -0.0636 -0.1509
 8116W        W23925   8.752   1.585  12.065  0.4212 -0.0723 -0.1796
 8117W        W23926   2.752   2.413   3.204  0.3162 -0.2802 -0.1288
 8118W        W23927   7.588  10.324  11.572 -0.1896  0.0089 -0.3639
 8119W        W23928  16.780   4.259   0.925 -0.1256 -0.1680 -0.2092
 8120W        W23929   3.074   3.064  13.743 -0.0484 -0.1041  0.0038
 8121W        W23930   8.714   6.981   1.008  0.0796  0.0877 -0.0438
 8122W        W23931   6.110   0.965   1.454 -0.0231  0.2047 -0.1110
 8123W        W23932   0.224  16.076   4.841  0.3850 -0.0640  0.0831
 8124W        W23933   7.345   2.574  14.639 -0.4218  0.1485 -0.0955
 8125W        W23934  16.982  13.074  13.207 -0.3518  0.1843 -0.2777
 8126W        W23935  13.248  10.149   2.859 -0.0606 -0.0863 -0.2172
 8127W        W23936   3.925   5.656   3.952  0.0085  0.0724  0.2119
 8128W        W23937  10.211   2.849   5.039 -0.1581  0.0010 -0.0196
 8129W        W23938  10.508  16.055  10.832 -0.2067  0.2151  0.1171
 8130W        W23939   7.259   9.540   1.951  0.2521  0.0532 -0.2121
 8131W        W23940  10.953  13.428  13.267 -0.0612  0.0535  0.0673
 8132W        W23941   1.060  17.641  15.076 -0.0393 -0.1157 -0.1153
 8133W        W23942  15.430   7.601   1.879 -0.2740 -0.1664 -0.1254
 8134W        W23943  11.418  13.574  10.425 -0.2471 -0.0238  0.0802
 8135W        W23944  16.211   1.213  12.019 -0.1075  0.0406 -0.1045
 8136W        W23945   1.431   4.474  14.213  0.0466  0.2466  0.0531
 8137W        W23946  15.913   1.092   0.126 -0.0731 -0.0177  0.1329
 8138W        W23947   4.709  18.664   3.057 -0.3338 -0.1805 -0.2011
 8139W        W23948   3.421   9.846   3.313  0.1722  0.0212  0.3117
 8140W        W23949  11.800  14.194   4.037 -0.2033  0.0388  0.3346
 8141W        W23950  16.484   2.816  10.796 -0.0776  0.1682 -0.5345
 8142W        W23951  12.531  13.752  15.586 -0.0187  0.3857 -0.2015
 8143W        W23952   8.803  12.773  11.895 -0.0202 -0.2711 -0.1337
 8144W        W23953  13.004  14.092  13.865  0.0141 -0.0824 -0.0829
 8145W        W23954  10.450  12.915  12.172 -0.2701 -0.1982 -0.0651
 8146W        W23955   8.728  17.222   4.680  0.2531  0.0242 -0.0684
 8147W        W23956  16.766  18.369   1.759 -0.0344  0.2937  0.1466
 8148W        W23957   9.943  13.283  14.938 -0.1167 -0.1909  0.0194
 8149W        W23958   1.701   5.571   5.042 -0.1370 -0.0495  0.0878
 8150W        W23959   1.491  18.538   0.827  0.0032  0.2790 -0.3416
 8151W        W23960   5.360  10.876  15.385 -0.2156 -0.0960  0.1371
 8152W        W23961  11.495  16.710   2.432 -0.0846  0.0027 -0.0017
 8153W        W23962   7.946  14.744  13.546 -0.4931  0.0539  0.1633
 8154W        W23963  12.589  10.029   3.650 -0.1573  0.3355  0.0421
 8155W        W23964   6.940  14.629  14.495  0.1027 -0.0750 -0.2976
 8156W        W23965  16.592   4.724   3.418  0.1187 -0.1109 -0.0997
 8157W        W23966   0.248  10.086  11.638  0.1496 -0.0838 -0.0185
 8158W        W23967   1.875  11.214   1.206  0.0021  0.2237 -0.0428
 8159W        W23968   6.043  11.218   5.867 -0.0043  0.1630  0.0584
 8160W        W23969  17.799   0.863  10.693  0.0593 -0.2536 -0.1094
 8161W        W23970   9.397   0.052  12.441  0.2081 -0.2099  0.0207
 8162W        W23971  13.701   6.398   3.999  0.1497 -0.0511 -0.2451
 8163W        W23972   7.186  11.483   3.258  0.1902 -0.2455  0.2461
 8164W        W23973   0.530   8.126  14.062  0.0466 -0.0263  0.1425
 8165W        W23974   7.142   3.603   0.938  0.0808 -0.0085 -0.3707
 8166W        W23975  11.855   9.753  13.379  0.2388 -0.0074 -0.2630
 8167W        W23976  10.263   8.841  14.439  0.0965 -0.0846 -0.2784
 8168W        W23977   8.773   1.124   3.913 -0.2324 -0.0907  0.0847
 8169W        W23978   2.437   3.388   1.021  0.1883 -0.0168 -0.0266
 8170W        W23979  14.991  11.950   0.900  0.3199 -0.3029  0.4101
 8171W        W23980   4.682   9.732  14.810  0.1091 -0.4179  0.0788
 8172W        W23981   5.317  16.405   1.365 -0.3221  0.2637  0.0178
 8173W        W23982   7.242  18.072   4.588 -0.0722 -0.1713  0.2964
 8174W        W23983  17.846   4.579  11.434  0.2267  0.3113 -0.1806
 8175W        W23984  14.505   1.913  12.733  0.0221 -0.2925 -0.0151
 8176W        W23985   9.574  16.444  10.471  0.1120 -0.2765  0.0652
 8177W        W23986   3.390  13.496   2.203  0.2148 -0.0573 -0.1181
 8178W        W23987  18.242  13.076  12.197  0.1975 -0.1916 -0.1124
 8179W        W23988   9.920  15.591  12.186  0.0407 -0.1139 -0.2743
 8180W        W23989   0.330   5.211  14.754  0.1680 -0.2077 -0.0100
 8181W        W23990   1.306   1.823  13.340  0.3040  0.2280 -0.0117
 8182W        W23991   7.242  11.215  14.156 -0.0561 -0.1591 -0.0233
 8183W        W23992   1.187   3.480  12.265 -0.1651 -0.2862 -0.0295
 8184W        W23993   9.228  12.944  12.142 -0.2287 -0.0029  0.3837
 8185W        W23994   8.205  14.496   2.727  0.0550 -0.2668  0.0916
 8186W        W23995  15.762  10.365   4.327  0.0022 -0.1994  0.1500
 8187W        W23996   5.481   4.367   3.178 -0.0152  0.2845 -0.1158
 8188W        W23997  14.041   4.631   0.240 -0.0699 -0.2683 -0.2571
 8189W        W23998   7.524  12.610   0.241 -0.2281  0.1160  0.2299
 8190W        W23999   3.927  13.524   0.362 -0.1540  0.1270  0.3559
 8191W        W24000  13.090  15.493  14.513 -0.0713 -0.1234  0.0447
 8192W        W24001   2.642  12.718   3.466 -0.0460 -0.1618 -0.0821
 8193W        W24002  11.838  15.796   4.382 -0.0895  0.3990 -0.3917
 8194W        W24003   5.442   8.228  14.066  0.1449 -0.2463  0.1087
 8195W        W24004  12.979  10.023   3.343 -0.1871 -0.1471  0.0004
 8196W        W24005   2.114   5.535   1.909 -0.0587  0.1278  0.1452
 8197W        W24006   4.480  10.495  14.598  0.1005 -0.2260  0.0047
 8198W        W24007   8.153   9.553  11.862  0.0113 -0.2168 -0.1479
 8199W        W24008   7.128   4.013   4.630  0.1085  0.0468 -0.2284
 8200W        W24009   3.803  17.878   3.263 -0.0290 -0.0448  0.4577
 8201W        W24010   1.686  12.067  13.543  0.0749 -0.3117  0.1705
 8202W        W24011   0.389   5.480  11.594  0.2421 -0.2802  0.0203
 8203W        W24012  18.348  12.463   2.748  0.2302 -0.2022  0.0090
 8204W        W24013  17.619   5.623  12.936 -0.2643  0.1379  0.0227
 8205W        W24014   8.575  12.769   2.124 -0.3844  0.0264 -0.0194
 8206W        W24015   1.439  17.397   3.551  0.1176 -0.0743 -0.0615
 8207W        W24016  11.442   6.338  15.377 -0.0739  0.1961 -0.0822
 8208W        W24017   3.487  12.011  13.624  0.2695 -0.0895  0.2175
 8209W        W24018   6.472  10.239  14.788  0.0946 -0.1871 -0.1122
 8210W        W24019   1.769   6.421   4.974 -0.3396  0.1128  0.0001
 8211W        W24020   1.227   6.373   3.230  0.1764 -0.1343  0.1777
 8212W        W24021   1.180   4.678  12.901  0.1425 -0.0333 -0.1839
 8213W        W24022  13.760   0.662  12.471  0.0915  0.2546  0.0839
 8214W        W24023   6.748   1.453   2.159  0.1549 -0.0012  0.2167
 8215W        W24024  17.345   3.502   5.476  0.4233 -0.4483  0.0134
 8216W        W24025  18.302   3.312   0.451 -0.2818 -0.1118 -0.1606
 8217W        W24026   2.722   2.943  13.387 -0.0431 -0.0686 -0.0227
 8218W        W24027  11.865  16.160  15.217  0.1522  0.3727  0.3904
 8219W        W24028  13.054  15.179  14.082 -0.3147 -0.3236 -0.1549
 8220W        W24029  11.439  11.151   1.226  0.2611 -0.0241  0.2148
 8221W        W24030  16.012   5.486   1.514 -0.2833  0.0432 -0.0031
 8222W        W24031   2.113  13.670   5.078  0.1535 -0.1450  0.0135
 8223W        W24032   5.896   0.859   4.142 -0.0532  0.0376  0.1271
 8224W        W24033   4.143   2.571  10.793  0.1042 -0.0786  0.1860
 8225W        W24034  16.246   1.907   1.600 -0.1633  0.0447  0.0311
 8226W        W24035   3.037   8.803   1.487 -0.0047  0.0782 -0.2186
 8227W        W24036   5.574  11.552  11.647  0.0072 -0.1999 -0.1323
 8228W        W24037   6.293  13.354   5.288  0.2077  0.2846  0.2141
 8229W        W24038   7.979   6.363   1.649  0.0522 -0.3452 -0.0049
 8230W        W24039   9.260   8.858   2.849  0.0336  0.1239  0.0947
 8231W        W24040   1.018   4.363   4.536  0.2300 -0.0258 -0.1444
 8232W        W24041   2.013  13.115   0.183 -0.0460 -0.1389 -0.2414
 8233W        W24042  11.296  16.004  12.282 -0.0451 -0.0001  0.2363
 8234W        W24043   0.504   7.928   3.984 -0.3122 -0.1895 -0.1875
 8235W        W24044   3.417  16.893  11.023  0.0516  0.1286 -0.0855
 8236W        W24045  15.995  15.632  12.025  0.2870 -0.1692  0.0089
 8237W        W24046  14.426  15.385  12.843  0.1306 -0.3461 -0.0809
 8238W        W24047  15.739  17.555  12.635 -0.1248  0.0923  0.0428
 8239W        W24048   5.644   1.943   3.994  0.0105 -0.0109  0.3993
 8240W        W24049   1.703  14.541  11.593 -0.0679  0.0597 -0.0897
 8241W        W24050   5.697   6.618   0.114 -0.0702 -0.2198 -0.3071
 8242W        W24051   3.690   7.748   3.839 -0.4638  0.0008  0.0922
 8243W        W24052   3.783   6.834  14.556 -0.0038 -0.2501  0.3970
 8244W        W24053   9.074   3.703   4.408 -0.1786 -0.0173 -0.4590
 8245W        W24054   6.842   0.463  12.135 -0.0942 -0.0533 -0.2073
 8246W        W24055   0.369   2.064   0.446  0.0830 -0.1377  0.2750
 8247W        W24056   4.472   7.398  15.225  0.0872 -0.1903 -0.1414
 8248W        W24057   2.275   8.795  14.478  0.2783 -0.0854  0.0747
 8249W        W24058  15.617  14.833  14.797  0.0025 -0.0436  0.2491
 8250W        W24059   4.973   6.292  12.431  0.3231  0.1125 -0.1851
 8251W        W24060   7.777  12.149   2.822  0.1074  0.2730  0.2632
 8252W        W24061  16.062  12.900   5.477  0.1972  0.1377  0.1243
 8253W        W24062   5.573  16.318  11.642 -0.2475 -0.0036 -0.1380
 8254W        W24063   8.896   1.014   5.950  0.2565  0.0754 -0.0209
 8255W        W24064  17.898   7.231  15.365  0.1610 -0.2799  0.0378
 8256W        W24065   0.511  16.389   3.546  0.4754 -0.0453  0.1714
 8257W        W24066   5.881   5.817  15.055 -0.0669 -0.0384 -0.1510
 8258W        W24067  11.245   3.693   0.055  0.4436  0.2823 -0.4004
 8259W        W24068   2.868   5.138  12.801 -0.2435  0.0878 -0.1124
 8260W        W24069   3.940   9.294   4.871 -0.1549  0.0428 -0.0032
 8261W        W24070  17.574  17.558   0.453 -0.0949  0.0129 -0.3480
 8262W        W24071  15.501  11.808  13.050 -0.4433  0.1163  0.0551
 8263W        W24072   3.379   2.518  11.431 -0.5998 -0.1494 -0.1938
 8264W        W24073  17.349  13.719   1.237 -0.1668  0.2208 -0.0776
 8265W        W24074   4.588   9.698   4.039 -0.0724 -0.1327 -0.1298
 8266W        W24075   3.939   7.535  13.582  0.3853 -0.0025 -0.3231
 8267W        W24076  12.644   9.836  14.531  0.1512  0.1675  0.0307
 8268W        W24077   2.889   2.503  11.318  0.2106 -0.0111 -0.0593
 8269W        W24078  14.859   9.290   1.716  0.5222  0.5076  0.1189
 8270W        W24079  16.495  18.290  13.980  0.1731  0.2871  0.0548
 8271W        W24080  12.564  10.696  11.518 -0.1370  0.0804  0.1827
 8272W        W24081   2.047   4.736   1.290  0.2767 -0.0297 -0.0733
 8273W        W24082   7.691  12.373  12.400 -0.2140  0.3324  0.2224
 8274W        W24083   0.117   7.963   4.770  0.0285  0.1563 -0.0621
 8275W        W24084  13.554  12.750  14.881  0.0390  0.0499  0.0191
 8276W        W24085  18.651  10.387  13.714 -0.2093  0.0291 -0.0958
 8277W        W24086   7.750   9.552  14.326  0.0964 -0.2084  0.1288
 8278W        W24087   4.362  14.952  12.878  0.0396 -0.1003  0.0554
 8279W        W24088  15.106  14.666  10.814  0.1342 -0.1196  0.1012
 8280W        W24089  17.186   6.282   3.614  0.0843 -0.4195  0.0608
 8281W        W24090   8.117   7.204   4.485  0.0846  0.2496 -0.1557
 8282W        W24091   1.559  12.537  13.627 -0.1360  0.2078  0.1406
 8283W        W24092  15.824  15.548   0.808 -0.0184  0.0083 -0.0052
 8284W        W24093   0.203   9.550  11.737 -0.0012  0.1774  0.0189
 8285W        W24094   6.103   5.971   2.913 -0.1656  0.3378 -0.0616
 8286W        W24095   6.464  14.964  13.027  0.0641 -0.2570 -0.0232
 8287W        W24096  14.733  16.905   1.659 -0.3460  0.1174 -0.0751
 8288W        W24097  15.613   5.425   4.963 -0.1398  0.2041  0.3087
 8289W        W24098   3.020   2.380  13.534  0.0096  0.0183  0.0064
 8290W        W24099  10.768   2.459  13.296  0.2663  0.0579 -0.0688
 8291W        W24100  13.585  15.015   1.513  0.2892  0.0185 -0.0531
 8292W        W24101  13.454   3.216  11.223 -0.0550  0.1986  0.0235
 8293W        W24102  10.617   8.348  14.583 -0.3039  0.0156  0.1503
 8294W        W24103  18.457   2.128  10.400 -0.1006  0.0445 -0.0974
 8295W        W24104  11.153  17.533   3.231 -0.1901 -0.0943  0.1081
 8296W        W24105  10.533   8.244  11.540  0.1160  0.1510 -0.3275
 8297W        W24106  13.280   7.541   2.948  0.0840 -0.1509 -0.1901
 8298W        W24107   0.976   8.054  11.815 -0.2482 -0.2787  0.2334
 8299W        W24108  14.319   1.208  14.764  0.2002 -0.0286  0.2567
 8300W        W24109   1.786  18.273   3.702  0.1620 -0.0320 -0.2702
 8301W        W24110  10.479   6.401   5.183 -0.1075 -0.2633  0.0859
 8302W        W24111   6.603  16.448   5.139 -0.2476 -0.1512 -0.0739
 8303W        W24112  13.962   3.036   3.355 -0.3281 -0.0797 -0.0905
 8304W        W24113   6.051  13.570   1.932 -0.0794 -0.1678 -0.4160
 8305W        W24114   5.747   6.759   5.658  0.3199 -0.2457  0.1916
 8306W        W24115   8.017   5.996  11.630  0.0055 -0.1694 -0.1358
 8307W        W24116   2.381  15.131   5.366  0.2017  0.0937  0.1562
 8308W        W24117   4.720   8.985   1.876 -0.0600  0.2509 -0.1254
 8309W        W24118  13.491  11.528   1.527 -0.0889 -0.0452 -0.2133
 8310W        W24119   4.968   3.667   3.696  0.1772  0.0823  0.2402
 8311W        W24120   9.951  11.515  10.330 -0.2091  0.0653  0.1297
 8312W        W24121  18.081  10.913   3.162  0.1589  0.0005 -0.4417
 8313W        W24122  11.273   8.688  11.174 -0.1692  0.1909 -0.0774
 8314W        W24123  14.179   5.086   2.508 -0.1202  0.1454  0.1561
 8315W        W24124   4.342   2.651  12.752 -0.0801 -0.1529  0.1272
 8316W        W24125   5.759  10.714   0.809  0.3327  0.1499 -0.2974
 8317W        W24126   3.371   5.581   2.468  0.2224  0.0474  0.2579
 8318W        W24127   7.591  12.348  13.630 -0.0229  0.2653  0.0594
 8319W        W24128  12.549  16.534  10.709 -0.1106  0.0929  0.0589
 8320W        W24129  17.423  11.711   4.278 -0.1379 -0.2383  0.3012
 8321W        W24130   9.453   8.571  13.670 -0.0254 -0.0652 -0.0146
 8322W        W24131   9.575   2.493   2.225 -0.2893 -0.0498 -0.1430
 8323W        W24132  14.924   8.872  15.391  0.0370  0.1775  0.2864
 8324W        W24133   4.258  14.461   1.457  0.0693 -0.0611  0.0432
 8325W        W24134  11.618  17.803  14.373  0.0265  0.0075  0.0115
 8326W        W24135  15.918  14.173   3.247  0.1722 -0.1035 -0.0771
 8327W        W24136   1.676  10.230   1.121 -0.4485  0.1556 -0.0293
 8328W        W24137  11.946  10.392   4.485  0.1717 -0.0169  0.2292
 8329W        W24138   0.363  15.011  13.135  0.0688 -0.0888  0.0396
 8330W        W24139  15.011   4.596  12.541 -0.2672 -0.0545 -0.0430
 8331W        W24140  15.345   8.718   4.165  0.1530  0.2236  0.0338
 8332W        W24141   6.544   1.902   3.075  0.3252 -0.0337  0.0660
 8333W        W24142   2.356  12.592  13.035 -0.0346  0.1237 -0.1164
 8334W        W24143  13.995   3.615   4.650 -0.1101  0.1939  0.2047
 8335W        W24144   8.195  10.223   4.307 -0.1272  0.2536  0.1322
 8336W        W24145   2.264  10.354  12.237 -0.1797  0.1484 -0.2802
 8337W        W24146   1.266   1.967  10.755 -0.1644  0.0284  0.1287
 8338W        W24147  12.504   3.936   4.243 -0.1033 -0.2519 -0.0463
 8339W        W24148  10.244   3.950   1.711 -0.1919 -0.2775  0.1047
 8340W        W24149  16.942  12.197  15.665 -0.2235 -0.0519  0.1292
 8341W        W24150  15.239  13.039  13.300  0.0895 -0.1118  0.1348
 8342W        W24151   8.407  10.149   2.923  0.1480 -0.0673 -0.2351
 8343W        W24152   8.030   3.723   4.477 -0.1604  0.0640 -0.0158
 8344W        W24153  17.310  16.638   5.102  0.3904 -0.0708  0.1433
 8345W        W24154  17.171   4.222  15.641  0.1806  0.1982 -0.1115
 8346W        W24155  16.488  11.216   1.052  0.0493 -0.0037 -0.0288
 8347W        W24156  17.417   1.605  14.333 -0.1107 -0.0453  0.0324
 8348W        W24157  14.079   5.353   4.044 -0.0610 -0.3644  0.1254
 8349W        W24158   2.982  15.971  15.117 -0.1508  0.1880 -0.2691
 8350W        W24159  18.569  15.252  13.309  0.1562 -0.1487  0.0220
 8351W        W24160  16.186  18.054   0.405 -0.2562  0.2129 -0.1655
 8352W        W24161  16.541  18.562  10.714 -0.1718  0.3590 -0.0567
 8353W        W24162  16.617  17.665  15.744 -0.0850 -0.4013 -0.2379
 8354W        W24163   7.111   5.905   1.599  0.0379  0.3566 -0.0337
 8355W        W24164  14.358  18.498  12.412 -0.3220 -0.1241 -0.0429
 8356W        W24165  13.133   6.118   0.706 -0.2673 -0.0274 -0.0009
 8357W        W24166  18.053  17.016  10.179  0.0033 -0.0509 -0.1012
 8358W        W24167   3.474  17.715  14.659 -0.2348  0.0024  0.0343
 8359W        W24168   9.307  14.303  11.118  0.0945 -0.1155  0.0249
 8360W        W24169   8.321   5.367  11.582 -0.1325  0.0492 -0.3246
 8361W        W24170   2.283  10.246   2.355  0.1845  0.0642  0.1511
 8362W        W24171   3.185   7.959   0.271 -0.2180 -0.0691  0.2913
 8363W        W24172  14.764  18.501   0.343 -0.2086  0.1149 -0.1339
 8364W        W24173   1.193   6.762  14.673 -0.2132 -0.4667  0.1275
 8365W        W24174   6.311  14.250   4.973  0.1844 -0.0503 -0.1597
 8366W        W24175  13.286  11.128  12.610  0.0706  0.4557  0.1728
 8367W        W24176  18.508  18.521   0.259 -0.0472 -0.1302 -0.2116
 8368W        W24177   8.373   1.037   9.850  0.2505 -0.0997  0.0579
 8369W        W24178   5.034  15.555   1.522 -0.2837 -0.3104  0.1510
 8370W        W24179   0.929   5.131  11.988  0.1576  0.0837 -0.3889
 8371W        W24180  14.961  13.115   3.990 -0.1435 -0.1291  0.0327
 8372W        W24181  16.686  12.448  14.563  0.0590  0.3710 -0.3593
 8373W        W24182   9.727   2.094  10.497  0.2070  0.0090 -0.0147
 8374W        W24183   0.049  15.589   4.767 -0.0199  0.3979 -0.0374
 8375W        W24184   2.173  12.245  12.614  0.0059 -0.2738  0.1653
 8376W        W24185  17.211   3.686  14.275  0.0897  0.0233  0.1793
 8377W        W24186  12.293   2.962  12.393 -0.0565 -0.2106 -0.0819
 8378W        W24187  10.196   3.468   4.148 -0.1350 -0.1921  0.1417
 8379W        W24188  10.931   2.734   3.858  0.1219 -0.3337  0.0288
 8380W        W24189   2.850  11.076  12.074 -0.0590  0.0966 -0.0742
 8381W        W24190   8.477  17.053   0.122  0.2915  0.2837 -0.0471
 8382W        W24191   4.542  14.642   4.109  0.0881 -0.2221  0.0242
 8383W        W24192  17.090  11.395   4.681 -0.2534 -0.0619 -0.1539
 8384W        W24193  13.767  11.529   3.854  0.1033  0.1677  0.0735
 8385W        W24194  11.926   5.949   5.347 -0.2530  0.0170  0.0616
 8386W        W24195   8.797   7.541   3.837 -0.2075  0.0433  0.0544
 8387W        W24196   0.724  14.668   2.740 -0.1229 -0.1500 -0.0783
 8388W        W24197   2.114  18.138   1.395 -0.2732 -0.1574  0.0867
 8389W        W24198  18.016   3.314   2.717  0.2362  0.3533 -0.1256
 8390W        W24199   7.242   7.745   0.955  0.1201 -0.2518  0.0283
 8391W        W24200   8.899   5.650   0.491 -0.0084  0.2807  0.0459
 8392W        W24201  10.537   6.379   1.954 -0.2362  0.0010  0.2384
 8393W        W24202   9.675   8.652   3.507  0.0419  0.6408 -0.1076
 8394W        W24203  12.896   5.788  13.386 -0.0579  0.0893  0.0984
 8395W        W24204  16.923  18.271   1.294 -0.0929  0.0940  0.0134
 8396W        W24205   6.648   3.779   0.929 -0.1422  0.1939  0.0340
 8397W        W24206  13.711   2.499  15.044  0.2713 -0.2602  0.0482
 8398W        W24207   2.676  13.157  14.563  0.0482 -0.4155  0.0822
 8399W        W24208   6.395  11.541   3.594 -0.0083  0.4186 -0.1666
 8400W        W24209   9.720   1.654  10.890  0.1873  0.1563 -0.1284
 8401W        W24210   7.655   1.124   3.911 -0.1457 -0.0920 -0.0955
 8402W        W24211   6.974  16.743  13.794 -0.0518 -0.0958 -0.0213
 8403W        W24212   1.168   4.384   3.661  0.3846  0.0047 -0.1416
 8404W        W24213  13.283  15.212  12.185  0.2551 -0.0414  0.2674
 8405W        W24214   3.561   3.913  11.061 -0.0412 -0.0576  0.1938
 8406W        W24215   7.845   1.424  12.204  0.0415 -0.0047  0.0703
 8407W        W24216   6.296  12.220  13.683  0.1149 -0.0767 -0.2093
 8408W        W24217   3.925  10.026   1.871 -0.1039  0.2918  0.0480
 8409W        W24218  14.080  15.513  15.382  0.1431  0.2269  0.0655
 8410W        W24219   9.946   9.292   4.263  0.0653 -0.2930 -0.1483
 8411W        W24220  15.534   4.435   1.441  0.2157 -0.1230 -0.2366
 8412W        W24221   9.246  15.633  10.718  0.2780 -0.0205 -0.1146
 8413W        W24222   9.104   7.662   0.427  0.1801 -0.0590  0.0394
 8414W        W24223  15.919  16.876   1.867  0.0575  0.0548 -0.1624
 8415W        W24224   1.008   3.131   3.744  0.0614  0.1273 -0.1302
 8416W        W24225   6.358   2.578  10.827 -0.1658  0.0551  0.0134
 8417W        W24226   9.437  10.989   1.783  0.0729 -0.1229 -0.0996
 8418W        W24227  12.850  16.024   1.410 -0.0011  0.0907 -0.1533
 8419W        W24228  12.270  14.005  11.371 -0.1085  0.0890 -0.2056
 8420W        W24229   6.135   8.175   2.528 -0.1992 -0.3239  0.3562
 8421W        W24230   4.958  14.994   3.194 -0.0995  0.1784  0.1014
 8422W        W24231   5.078  17.794   0.108 -0.0812 -0.0811  0.0341
 8423W        W24232  17.474   8.353  11.828 -0.3788  0.0923 -0.3608
 8424W        W24233  14.333  18.252   2.085 -0.2286  0.0107 -0.1320
 8425W        W24234  11.851  14.156  11.187 -0.2731  0.0812  0.1449
 8426W        W24235   0.066  15.297  15.069  0.2362  0.1882  0.0043
 8427W        W24236   7.592  13.360   3.696  0.0183 -0.3539  0.1612
 8428W        W24237   9.076   8.577  12.012 -0.0693 -0.1353 -0.0386
 8429W        W24238  10.654   7.838   5.051  0.0012 -0.0557  0.1666
 8430W        W24239  11.819  14.712  13.652 -0.0028 -0.1693 -0.1962
 8431W        W24240   6.236  14.077  15.330 -0.0761 -0.0193 -0.0944
 8432W        W24241   1.832  12.767  11.288 -0.0174  0.3988  0.1262
 8433W        W24242  11.336   6.708   5.278  0.3989 -0.0543  0.3467
 8434W        W24243   1.999   3.709   4.439 -0.2159 -0.3732 -0.1305
 8435W        W24244   1.314   3.286  14.970  0.1762 -0.0198 -0.0832
 8436W        W24245  16.357   6.652  12.117 -0.0489  0.3166  0.3526
 8437W        W24246   3.340   9.262   1.324 -0.4514  0.0175 -0.0743
 8438W        W24247  17.943  10.923  13.060  0.1560 -0.4482 -0.0057
 8439W        W24248   4.888   0.470   3.116  0.2012  0.1267 -0.0576
 8440W        W24249  15.508  10.240  12.923  0.4114 -0.0319  0.0010
 8441W        W24250  17.299   6.518  15.496 -0.1277 -0.2175  0.1563
 8442W        W24251   6.760   1.977  15.189  0.0194 -0.0464 -0.1272
 8443W        W24252   3.210   0.351  14.311 -0.3648 -0.1221  0.1257
 8444W        W24253  12.958  12.490  13.801 -0.0604  0.0995 -0.3083
 8445W        W24254   6.778  13.450   5.119  0.1888  0.1938 -0.3641
 8446W        W24255  12.381  18.588  14.060 -0.1733 -0.0018  0.2899
 8447W        W24256  10.752  18.425  13.362 -0.0206 -0.2022 -0.1274
 8448W        W24257  15.039  17.660  14.035  0.3954 -0.2681 -0.2334
 8449W        W24258  13.565  16.038   3.696 -0.0385  0.1065 -0.3487
 8450W        W24259   8.617  13.413   3.779  0.1029 -0.1722  0.0678
 8451W        W24260  18.534  14.163  14.712  0.0893  0.1937  0.1974
 8452W        W24261   4.061   0.981  15.054 -0.0832 -0.0690  0.3584
 8453W        W24262  16.353   3.488   2.244 -0.3539 -0.2264  0.3451
 8454W        W24263   8.900   4.127  14.868  0.0690  0.0445  0.3693
 8455W        W24264  16.372   0.501   2.431  0.2633 -0.1509  0.1985
 8456W        W24265   2.390  17.808  13.320  0.1963 -0.1424  0.2390
 8457W        W24266  10.304  14.751  13.647  0.0646  0.1967 -0.0735
 8458W        W24267  16.095  10.416   4.674 -0.2117  0.0674 -0.3037
 8459W        W24268  17.347  15.093   1.973 -0.0569 -0.2819  0.2443
 8460W        W24269  15.957  10.060   1.542 -0.0566  0.2438  0.0865
 8461W        W24270   8.271   5.167  11.122 -0.1587  0.1674  0.3590
 8462W        W24271  14.993  18.174  15.200  0.0472 -0.0028 -0.2085
 8463W        W24272  18.388   3.137   4.151 -0.0370 -0.0233 -0.1960
 8464W        W24273   5.508  18.581   2.925 -0.0988 -0.0399  0.1978
 8465W        W24274  11.233   0.292  12.751  0.1921  0.2649 -0.0679
 8466W        W24275   8.284  14.194   9.612 -0.0007  0.0363 -0.1264
 8467W        W24276   3.401  15.953  12.279 -0.3106 -0.0733  0.2830
 8468W        W24277  13.980  14.334  14.122  0.3509 -0.3002  0.1921
 8469W        W24278   0.397   6.742   0.808  0.2875  0.1125 -0.1676
 8470W        W24279   0.615   9.314  13.414 -0.1412 -0.2177 -0.2629
 8471W        W24280   2.452   4.777   2.603  0.1811  0.2176  0.2236
 8472W        W24281   1.240   8.146  13.196 -0.0936  0.0029 -0.0393
 8473W        W24282   5.681   7.178  13.696  0.1716 -0.0412 -0.2573
 8474W        W24283  17.638  10.356   1.619 -0.3791  0.0688 -0.1034
 8475W        W24284  15.418   8.634  13.642 -0.1589  0.3608  0.4181
 8476W        W24285  11.946   2.897   0.555  0.2175 -0.0344  0.1313
 8477W        W24286  16.034   9.774   1.963 -0.2035 -0.0119 -0.0212
 8478W        W24287  11.798   0.786  12.596 -0.0977  0.0888  0.2792
 8479W        W24288   6.647  17.682  14.070  0.1026 -0.0066 -0.2299
 8480W        W24289  10.454   1.807   9.835  0.2942 -0.2315  0.1222
 8481W        W24290  10.452  15.884  15.741 -0.1177  0.0505 -0.2914
 8482W        W24291  17.601   5.143  10.879 -0.0217  0.0582  0.3395
 8483W        W24292   3.442  14.193   0.426  0.0102  0.0728 -0.3513
 8484W        W24293   8.220   1.480   3.257  0.1660 -0.1819 -0.0969
 8485W        W24294   1.906   0.642  12.567 -0.2279 -0.1024 -0.3424
 8486W        W24295  12.123  17.693  15.211  0.2386  0.0802 -0.0225
 8487W        W24296  15.495  15.509  15.671  0.3009  0.3588 -0.0820
 8488W        W24297   1.832   0.478   3.991  0.0932  0.0841  0.0882
 8489W        W24298   3.834   9.416  12.103  0.2272  0.1535 -0.0563
 8490W        W24299   0.156   3.569   5.004  0.0906  0.3244 -0.2170
 8491W        W24300  15.030   9.732  14.782 -0.0592 -0.0072  0.1007
 8492W        W24301  10.285  17.649   5.724 -0.1157  0.0633  0.0941
 8493W        W24302   2.839   7.010  13.616 -0.0705  0.2313 -0.1124
 8494W        W24303  13.796  12.381  13.189 -0.0280 -0.1467 -0.3285
 8495W        W24304   4.386  12.041   4.378  0.1168 -0.1192  0.0058
 8496W        W24305   3.619  11.846  15.698 -0.0490  0.0757  0.0735
 8497W        W24306   7.877  14.611   0.365  0.2431 -0.1629  0.1763
 8498W        W24307  13.146  10.082  10.841  0.0357  0.0289  0.0470
 8499W        W24308  17.317  13.814  14.545 -0.2393 -0.0427  0.0309
 8500W        W24309  18.470  11.743   5.328  0.3802 -0.1774 -0.0605
 8501W        W24310   9.109  11.658   0.622 -0.0035  0.1260 -0.0441
 8502W        W24311  14.443   5.473   2.362 -0.3806 -0.0203 -0.0529
 8503W        W24312   7.632   9.050  10.274 -0.0642  0.0865 -0.0253
 8504W        W24313   1.958   8.462   6.056 -0.2247 -0.2038  0.2010
 8505W        W24314  16.779   8.134   2.939  0.0184 -0.0770 -0.2999
 8506W        W24315   0.339  13.348   0.213 -0.1967 -0.1063 -0.0785
 8507W        W24316   6.397  12.314  10.916 -0.1185 -0.0728 -0.1509
 8508W        W24317  16.923   4.028   4.783 -0.0909 -0.1896  0.3048
 8509W        W24318  17.781   9.184   3.058  0.1810  0.2071  0.2826
 8510W        W24319  10.665   0.776  12.442  0.0123  0.1635  0.0909
 8511W        W24320  16.912  10.999   4.218  0.2237  0.1338  0.0376
 8512W        W24321   9.928  15.509   9.849 -0.0931  0.0905 -0.1080
 8513W        W24322  17.404   5.866  13.551  0.2106 -0.1582 -0.3268
 8514W        W24323  14.856   7.744  11.786 -0.3968  0.0014  0.2383
 8515W        W24324   1.829   0.919  11.422  0.3277 -0.0212  0.1240
 8516W        W24325   8.305   4.460   3.058 -0.2403  0.1637 -0.0618
 8517W        W24326  11.634   1.459   0.564 -0.1482 -0.3043 -0.1005
 8518W        W24327  15.531   2.642   0.970 -0.0642  0.1953  0.2455
 8519W        W24328  15.522  13.022  14.829  0.3560  0.3599  0.0248
 8520W        W24329  17.388   6.026   5.086 -0.0269  0.2253  0.2035
 8521W        W24330  16.984  14.658   2.856 -0.1129 -0.0745  0.0543
 8522W        W24331  17.251  12.751   1.492  0.1423 -0.1089 -0.3660
 8523W        W24332  18.257   8.690   1.500  0.1750  0.2136 -0.2119
 8524W        W24333   1.039   6.540   1.315 -0.2412 -0.1832 -0.2024
 8525W        W24334  17.238  16.617  15.382  0.1011  0.3297 -0.1205
 8526W        W24335   2.251   1.203  15.184  0.0106  0.0469 -0.0378
 8527W        W24336  14.125   5.078   3.312 -0.1709 -0.1299  0.0372
 8528W        W24337   4.583  10.583  13.534 -0.3293  0.1584 -0.0399
 8529W        W24338   8.425  13.617  12.129  0.1094 -0.1119 -0.1426
 8530W        W24339  13.406  13.732   1.392 -0.1995  0.2884  0.2304
 8531W        W24340  10.197  17.323   2.936  0.3005 -0.0333  0.5735
 8532W        W24341   8.288   8.404   0.822  0.3629 -0.2455  0.0963
 8533W        W24342  18.205   5.068  12.720  0.0593 -0.3423 -0.0136
 8534W        W24343   8.919  14.037  12.994  0.1190 -0.1188 -0.3697
 8535W        W24344  10.423   0.182  10.620 -0.2101  0.0509  0.2153
 8536W        W24345  17.150  11.880   2.585 -0.4184  0.0724 -0.2132
 8537W        W24346   7.349   3.943  12.349 -0.1296 -0.0581 -0.5654
 8538W        W24347   2.305  11.166  11.820  0.0206 -0.0507 -0.0614
 8539W        W24348  12.261   1.496  14.199  0.1234  0.0430 -0.1366
 8540W        W24349   1.739  12.811   5.655  0.0654 -0.2526 -0.2070
 8541W        W24350   0.369  18.094  10.533  0.1946  0.0089  0.1845
 8542W        W24351   3.767  12.173   4.431  0.2560 -0.0113  0.1761
 8543W        W24352   8.079   0.443  13.718 -0.2331 -0.2234 -0.1027
 8544W        W24353  15.620   4.726   3.107 -0.0962 -0.2871 -0.0192
 8545W        W24354   3.601  13.032   3.773  0.0976 -0.4280  0.1990
 8546W        W24355  13.217   9.066   0.340 -0.1330  0.2939  0.0804
 8547W        W24356  10.592  11.538   5.516  0.0479  0.2410 -0.3068
 8548W        W24357  17.843   7.763   3.608 -0.0918 -0.0629  0.0647
 8549W        W24358  12.168  10.269  13.434  0.0837  0.1847  0.1339
 8550W        W24359  12.137   2.587   5.379 -0.0313 -0.1541 -0.0649
 8551W        W24360   3.208  11.164   1.543 -0.0244 -0.0383  0.3038
 8552W        W24361   8.710   9.204  13.786  0.0682 -0.0225 -0.1298
 8553W        W24362   2.072   0.346  14.477 -0.3575 -0.0298  0.1405
 8554W        W24363  13.448  10.307  12.342  0.1772 -0.0109 -0.0268
 8555W        W24364   1.011  11.313  13.791 -0.1434  0.3494  0.1525
 8556W        W24365  10.321   4.601  12.633  0.2331 -0.1593  0.0061
 8557W        W24366  11.248   7.018  15.231 -0.0574 -0.0419 -0.0161
 8558W        W24367   8.456   3.395  12.603 -0.1184  0.0526  0.0651
 8559W        W24368  10.829  17.359  10.608  0.0318 -0.3744  0.0212
 8560W        W24369  12.717  15.104  12.515  0.1143  0.0958 -0.3564
 8561W        W24370   1.883   5.503   2.477  0.1726 -0.0884  0.2984
 8562W        W24371   2.665   8.032  12.110  0.1829  0.0391  0.3112
 8563W        W24372   5.362   4.919   1.823 -0.0487  0.3908  0.0041
 8564W        W24373  12.914  13.385  15.531 -0.1963 -0.2584  0.1060
 8565W        W24374   1.792  14.972   4.667 -0.0447  0.0487 -0.0989
 8566W        W24375  16.351   1.125   0.329 -0.2933  0.0389  0.0012
 8567W        W24376   3.702   5.209   3.838 -0.0968  0.0471 -0.1689
 8568W        W24377   8.271  15.700  15.725 -0.1591 -0.1610  0.0346
 8569W        W24378  15.095   6.699  10.720  0.0758  0.1044 -0.0088
 8570W        W24379   4.616   3.021   1.896 -0.2471 -0.2973 -0.3422
 8571W        W24380  12.869   2.618   0.523 -0.0259  0.1907  0.2788
 8572W        W24381  14.780  13.643  10.617 -0.0884  0.1906  0.0517
 8573W        W24382   2.446  15.399   3.198 -0.2148 -0.0473 -0.2323
 8574W        W24383   8.816   3.137  12.770  0.2336  0.1468 -0.6292
 8575W        W24384  18.524   2.338  12.268  0.0690  0.1239  0.0116
 8576W        W24385  14.589  15.734  10.739 -0.1287 -0.0343  0.3997
 8577W        W24386   3.197   1.336   5.677  0.0191 -0.1700  0.1534
 8578W        W24387   3.674  17.365   5.544  0.1397  0.1199  0.0179
 8579W        W24388  14.557  14.903  11.490 -0.0690 -0.3507 -0.4284
 8580W        W24389  11.165   6.075   4.403 -0.1622 -0.0718 -0.0935
 8581W        W24390   6.186  13.108  13.355 -0.1213 -0.4791  0.0133
 8582W        W24391   7.597  16.378   4.364  0.0706  0.4338  0.2748
 8583W        W24392  17.095  16.981  13.962 -0.0680 -0.1343  0.1085
 8584W        W24393  10.292  18.131   5.527 -0.1113 -0.1054 -0.5210
 8585W        W24394   6.494   7.258  12.850 -0.0670 -0.0589  0.3909
 8586W        W24395  16.775  12.473   0.705 -0.1378  0.2286 -0.1145
 8587W        W24396   2.429  10.078   3.379 -0.2518 -0.0347  0.0136
 8588W        W24397   3.433  17.038   4.443  0.1241 -0.1692 -0.2924
 8589W        W24398   0.593   0.869  12.611  0.2596  0.2157  0.2988
 8590W        W24399   5.822   2.425  11.055 -0.3894 -0.1130  0.3157
 8591W        W24400   1.354   0.904   0.300  0.2196 -0.0258 -0.0496
 8592W        W24401   3.537   6.531  13.678 -0.0448  0.1349  0.0907
 8593W        W24402   2.750   2.772  12.445  0.1443 -0.2346 -0.0624
 8594W        W24403   5.833   5.431   5.111  0.0387  0.3784 -0.0201
 8595W        W24404   9.035   2.013  15.738  0.1559 -0.1610 -0.1857
 8596W        W24405   7.813  10.927   2.662 -0.0789 -0.0629 -0.3338
 8597W        W24406  11.872   9.216  15.164  0.1106  0.1926 -0.1044
 8598W        W24407   7.909  10.112   2.132  0.2274 -0.3387  0.2052
 8599W        W24408  16.305  11.285  13.396  0.0920 -0.1654  0.1361
 8600W        W24409   4.630  17.337  13.488 -0.1963 -0.2573 -0.0971
 8601W        W24410  16.022  16.559  11.658 -0.1786  0.0856  0.0390
 8602W        W24411   5.905  12.028  13.976 -0.2426 -0.0354  0.0108
 8603W        W24412  17.881   4.036   4.321  0.2190 -0.0975  0.2614
 8604W        W24413  17.923   1.641  15.418  0.2050 -0.1208  0.1231
 8605W        W24414  14.100   0.219  11.070 -0.1837 -0.0647  0.1709
 8606W        W24415  18.534  13.176   2.564 -0.1067  0.2525  0.1777
 8607W        W24416  11.231   8.419  12.430  0.3157 -0.2481  0.0818
 8608W        W24417  17.212   3.403  11.214  0.1421  0.1159 -0.0242
 8609W        W24418  12.683  16.279   3.257  0.0246 -0.1135 -0.0833
 8610W        W24419  17.399  18.507   1.927  0.0184  0.2125 -0.0658
 8611W        W24420  11.201   5.826  14.227  0.4128  0.1539 -0.0786
 8612W        W24421   6.384  17.976  15.367  0.0873  0.1401  0.1961
 8613W        W24422   7.808   3.963  12.694 -0.1306 -0.2176 -0.0054
 8614W        W24423  12.271   1.520   9.775  0.0498 -0.2224 -0.2085
 8615W        W24424   1.732  15.754   4.886  0.2265  0.0567  0.0007
 8616W        W24425  16.662   2.552  12.734  0.0450 -0.0973 -0.1536
 8617W        W24426  14.568  13.137  15.043 -0.0478  0.1578 -0.0638
 8618W        W24427  15.052   0.377  12.793 -0.2369  0.1338  0.0089
 8619W        W24428  14.564  12.309   2.149  0.0989  0.0102 -0.2398
 8620W        W24429   0.101   9.898   1.799  0.2046  0.1914 -0.1927
 8621W        W24430   5.068   3.579   4.143  0.2449 -0.0257  0.1540
 8622W        W24431  13.226   0.568   3.092  0.3919 -0.0216 -0.1912
 8623W        W24432  17.179  18.610  12.174  0.0823  0.2504  0.0596
 8624W        W24433   5.437   1.813  12.425 -0.1030 -0.1457 -0.0882
 8625W        W24434  10.088  11.914   2.934 -0.0408  0.3972 -0.0645
 8626W        W24435  11.203  17.487  12.450 -0.2032  0.0926 -0.1769
 8627W        W24436   7.973  17.180  12.129  0.0811  0.2714 -0.2094
 8628W        W24437   8.508  13.824  12.814 -0.0544  0.0113  0.2281
 8629W        W24438   6.304  10.926  12.316  0.0165 -0.1714 -0.0511
 8630W        W24439   6.237   9.293  13.812 -0.1604 -0.1385 -0.0597
 8631W        W24440  16.666   4.955  13.351 -0.2488  0.1610  0.1264
 8632W        W24441  11.527  12.741   4.475 -0.0157  0.1836  0.0946
 8633W        W24442  13.669   3.933  12.288 -0.1169 -0.3133  0.1562
 8634W        W24443  10.156   6.062  15.618 -0.3058  0.1791 -0.2059
 8635W        W24444   4.179  17.664  12.166  0.0715  0.3405 -0.0192
 8636W        W24445   8.701  15.553   4.398 -0.1168 -0.2758  0.1858
 8637W        W24446  10.280   4.463   3.435 -0.0117 -0.1301  0.0008
 8638W        W24447  12.417  12.246  14.420 -0.1795  0.1107 -0.1596
 8639W        W24448   5.055  12.544   4.116 -0.0841  0.0532 -0.0210
 8640W        W24449   7.948   1.723  12.591  0.4152  0.0639 -0.0589
 8641W        W24450   5.540  11.352   4.267  0.2427  0.1534  0.5077
 8642W        W24451   4.843   8.357  10.498 -0.1085  0.1881  0.0045
 8643W        W24452   1.334   7.634  12.479 -0.0290 -0.1800  0.2775
 8644W        W24453   2.750   4.022  13.310 -0.2153  0.3141  0.5441
 8645W        W24454   8.337  15.447   3.359 -0.0484  0.4795  0.0336
 8646W        W24455   1.934   1.167   2.762 -0.2390  0.0277 -0.2680
 8647W        W24456  15.081   1.451   4.104  0.1384  0.2560  0.1845
 8648W        W24457   7.376   6.534  13.479  0.2019  0.0729  0.1921
 8649W        W24458  13.657   3.269  15.682  0.1341  0.0687 -0.1814
 8650W        W24459   3.531  15.989   3.818  0.1663  0.0692 -0.1689
 8651W        W24460  14.398   9.930   4.463  0.0257 -0.0910 -0.0249
 8652W        W24461  10.932  14.134  14.783  0.1409  0.4827 -0.1944
 8653W        W24462  12.423  18.271   0.112  0.2147 -0.1918 -0.0620
 8654W        W24463  15.742  17.462  15.620 -0.2349 -0.1239 -0.0129
 8655W        W24464   5.447   7.325  15.495  0.3679  0.1515  0.3250
 8656W        W24465  14.318   3.233   4.724 -0.0370 -0.2018  0.1070
 8657W        W24466  12.310   6.607   0.797  0.0703  0.1000 -0.2106
 8658W        W24467   8.584  12.191   5.238 -0.2978  0.2650 -0.0431
 8659W        W24468   5.892   0.760   2.206 -0.1514  0.3044  0.0937
 8660W        W24469   8.313   1.563   1.790  0.0938  0.1179 -0.0165
 8661W        W24470  14.309  17.041  15.457 -0.2146  0.0244 -0.1531
 8662W        W24471   8.824   9.746   0.138 -0.2095  0.0881  0.0103
 8663W        W24472   5.740   0.136   3.334 -0.0409 -0.0401 -0.1474
 8664W        W24473  11.190   1.498   2.349 -0.2170 -0.1090 -0.0137
 8665W        W24474  12.925   1.931   4.517  0.1829 -0.1525  0.0302
 8666W        W24475   8.950   6.546   5.249  0.1300  0.1707 -0.0156
 8667W        W24476   9.158   8.791   5.025  0.1208 -0.2910 -0.0346
 8668W        W24477   5.135  10.992  14.891 -0.4156 -0.1857  0.1211
 8669W        W24478   2.917  11.295   5.393 -0.2195  0.1843 -0.0458
 8670W        W24479   9.017  13.585  14.743 -0.0394  0.1152  0.1486
 8671W        W24480   9.103  10.047   5.120  0.1467 -0.1153 -0.1676
 8672W        W24481   4.509   7.053  13.071  0.1029  0.0476 -0.3202
 8673W        W24482   3.735   4.390   1.189 -0.3239 -0.0115 -0.0109
 8674W        W24483   6.449   8.302   5.720  0.1506  0.1614  0.0071
 8675W        W24484   0.836  12.944   1.401 -0.4369  0.0568 -0.1891
 8676W        W24485  13.121   0.783   2.115  0.0087 -0.0289 -0.1868
 8677W        W24486  15.871  14.131   4.626  0.0585 -0.0835 -0.2051
 8678W        W24487   0.487   6.487   2.036 -0.0775 -0.1904 -0.0675
 8679W        W24488   5.104  11.874   0.778 -0.1605  0.3176  0.0213
 8680W        W24489  12.552  12.685  13.997  0.1652  0.1104  0.1336
 8681W        W24490  11.758  13.936  10.212 -0.0078 -0.0948 -0.2587
 8682W        W24491  14.083   9.869   1.867 -0.1901  0.4849  0.2985
 8683W        W24492  17.176  15.040  13.688 -0.3324 -0.6482  0.0293
 8684W        W24493   3.957   2.715  13.105  0.2125 -0.2606 -0.3782
 8685W        W24494   1.188  18.402  14.616  0.1203  0.0868  0.1357
 8686W        W24495   3.920   4.351   4.210 -0.1086 -0.2420 -0.1371
 8687W        W24496   0.964  11.197   2.745  0.1522 -0.1539 -0.2292
 8688W        W24497  13.784   9.940  12.287 -0.1228  0.2867  0.1340
 8689W        W24498  10.232   2.974   2.598  0.3388 -0.0237  0.0353
 8690W        W24499   4.898   0.847   2.817 -0.1202  0.2807 -0.3379
 8691W        W24500   4.233  17.370  14.407 -0.0516 -0.2069 -0.0956
 8692W        W24501  13.601   0.204   5.383  0.0183 -0.0500 -0.3040
 8693W        W24502   3.693   5.329   4.316  0.2209 -0.2083 -0.0664
 8694W        W24503  14.781   3.439   3.815  0.1986  0.1012 -0.0302
 8695W        W24504  14.301   4.197   1.938 -0.0968 -0.0360 -0.3270
 8696W        W24505  16.889  18.247  14.269 -0.2997 -0.1667  0.1527
 8697W        W24506  14.122  13.948   2.187  0.1160  0.2494  0.1137
 8698W        W24507   5.329  16.742   2.685 -0.0729 -0.4535  0.1934
 8699W        W24508  16.030   7.566  10.155 -0.2005 -0.0673 -0.1290
 8700W        W24509   5.279   9.287   3.746  0.1986  0.3490  0.0131
 8701W        W24510   4.063   8.205   0.131  0.1193  0.1932  0.0105
 8702W        W24511  13.985  15.132   1.878 -0.0047 -0.2000  0.2002
 8703W        W24512  15.668   9.701   3.657  0.3488  0.1183 -0.0192
 8704W        W24513  12.053   1.723   3.051 -0.1569 -0.1479  0.1142
 8705W        W24514  12.419   7.105   3.651 -0.0321  0.0325  0.0146
 8706W        W24515   5.485  14.664  13.094 -0.1194 -0.1526  0.0151
 8707W        W24516   5.752  17.974  14.725  0.1887 -0.1092  0.0850
 8708W        W24517   5.099   1.025  15.043 -0.0077  0.1866 -0.1243
 8709W        W24518   7.672  16.496  11.459  0.1230 -0.1146 -0.2233
 8710W        W24519   3.979   7.044   4.613 -0.0147  0.0479 -0.1464
 8711W        W24520   6.517   8.559   4.842 -0.3892  0.1393 -0.0387
 8712W        W24521  12.591  13.215   4.799  0.0895 -0.1499  0.1283
 8713W        W24522   9.641   0.159   3.100  0.0746 -0.3241  0.1050
 8714W        W24523  15.160   2.306  11.019  0.0338  0.2070 -0.1138
 8715W        W24524  11.789  15.028  14.122  0.2078 -0.1167 -0.1124
 8716W        W24525   9.704   7.547   2.564  0.0490  0.1210  0.1116
 8717W        W24526   4.943   9.646  13.690  0.0623  0.1858 -0.0195
 8718W        W24527   1.271  11.413   1.667 -0.2035  0.3036 -0.3631
 8719W        W24528   5.576   5.861  11.150 -0.1863 -0.1140  0.2347
 8720W        W24529  12.376  14.685   2.829 -0.2259  0.1455  0.0596
 8721W        W24530  14.630   2.875  15.145 -0.1912 -0.1789 -0.1986
 8722W        W24531   8.456  12.865  13.829 -0.1985 -0.5562  0.1421
 8723W        W24532   1.050   1.392  12.550 -0.2483  0.1306 -0.4336
 8724W        W24533   2.556  11.715  12.215 -0.3416 -0.1764  0.0756
 8725W        W24534   7.385  10.497   4.778 -0.0635 -0.1105 -0.0643
 8726W        W24535  11.504  14.983  13.211  0.1983 -0.0811 -0.1437
 8727W        W24536   2.814   0.279  13.601  0.1617 -0.3534 -0.2706
 8728W        W24537  13.681   5.709   4.166  0.0998 -0.0771 -0.0178
 8729W        W24538   3.681  13.224  13.787 -0.0136 -0.2103 -0.1578
 8730W        W24539   7.364  13.252  15.578 -0.0749 -0.2001  0.0347
 8731W        W24540   2.447  12.114  13.022 -0.1843  0.0632  0.0622
 8732W        W24541  16.163  10.164  13.593 -0.1584 -0.1540 -0.1702
 8733W        W24542  15.178   0.161   0.454  0.2785  0.0247  0.1292
 8734W        W24543   5.419   4.861  15.117  0.0031 -0.1566 -0.2436
 8735W        W24544  15.659  14.428  12.793  0.2331 -0.4192 -0.1224
 8736W        W24545   6.147   9.848  15.010  0.3265 -0.0967 -0.3937
 8737W        W24546   1.850  13.483  15.631  0.1452 -0.2209  0.0636
 8738W        W24547  18.168  17.542  13.292 -0.0122 -0.0240  0.2535
 8739W        W24548  13.314   5.806   4.783  0.1783  0.1665 -0.2654
 8740W        W24549   7.040  16.962   3.479 -0.5008 -0.0274  0.1138
 8741W        W24550  13.282  15.848  15.467 -0.2338 -0.2007 -0.0144
 8742W        W24551   0.794  13.849  14.560 -0.0384  0.0511 -0.1368
 8743W        W24552   6.138   2.990   1.628 -0.0012 -0.0888  0.0257
 8744W        W24553   5.063  15.407   2.883 -0.0050 -0.0603  0.1562
 8745W        W24554  11.246   4.987  14.696 -0.1493 -0.0551  0.1729
 8746W        W24555   1.916  13.807   0.688  0.1510  0.1980  0.0081
 8747W        W24556  13.955  14.417  15.275 -0.1204  0.1415  0.3091
 8748W        W24557   1.335   8.299   2.650  0.1724  0.1834 -0.0490
 8749W        W24558   3.799   9.759  11.094 -0.2524 -0.2548  0.0334
 8750W        W24559   7.032   0.681  10.234  0.1283 -0.2598 -0.1448
 8751W        W24560  16.362   3.119   1.945 -0.0696 -0.1257  0.2694
 8752W        W24561  14.225  16.425   0.477 -0.3919 -0.2369 -0.3627
 8753W        W24562  14.671   8.327   6.108  0.0294 -0.2258  0.1338
 8754W        W24563  14.652   7.825   1.748  0.0309 -0.0790  0.3122
 8755W        W24564  11.482   4.150   5.163 -0.3491  0.0840  0.2416
 8756W        W24565   2.722  16.274   2.788 -0.0626  0.4319  0.5801
 8757W        W24566  14.425  17.623   3.364  0.1012  0.4307 -0.1189
 8758W        W24567  15.174   4.518   3.204 -0.3305  0.2522  0.3295
 8759W        W24568   7.086   7.728   3.942 -0.2578  0.1036 -0.2961
 8760W        W24569  17.624  10.196  15.541 -0.1825 -0.1603 -0.1566
 8761W        W24570   4.025  15.517   3.748 -0.2667  0.0507  0.1735
 8762W        W24571  15.187  16.695  13.402 -0.1132 -0.0381  0.3238
 8763W        W24572   3.131   7.049  10.977 -0.0670 -0.0289 -0.0859
 8764W        W24573  17.662   4.103   5.441 -0.0037 -0.1349 -0.0977
 8765W        W24574   1.352   5.367  11.889  0.2180 -0.3467  0.0618
 8766W        W24575   9.433  10.241   0.664  0.3488 -0.1028  0.0263
 8767W        W24576  14.799   2.901   0.221  0.1889  0.0933  0.0125
 8768W        W24577   5.297  14.976   4.166  0.1372 -0.0301 -0.1758
 8769W        W24578  12.138   9.372   2.409 -0.0023 -0.2724 -0.1165
 8770W        W24579   4.386   1.038  13.414 -0.1472 -0.1126 -0.0262
 8771W        W24580  11.647   0.870   2.947  0.0465  0.2587 -0.0585
 8772W        W24581   7.138  15.671  12.823 -0.0236 -0.1581 -0.1581
 8773W        W24582  18.016   6.572  13.140 -0.0714  0.0310 -0.1345
 8774W        W24583  17.346  17.556  13.445 -0.1801  0.0820 -0.0253
 8775W        W24584   2.420  12.006  11.355 -0.2027  0.1304  0.0278
 8776W        W24585  11.797   5.058  11.075 -0.2429 -0.0015 -0.3020
 8777W        W24586   0.182  15.457  12.951 -0.2502  0.0175 -0.2836
 8778W        W24587  17.204  15.693  12.812  0.1905  0.1770 -0.2621
 8779W        W24588   6.978   4.637   0.789  0.0317  0.1335 -0.0038
 8780W        W24589  14.496   6.077   2.144 -0.5699 -0.0115 -0.0825
 8781W        W24590   3.395   2.177   2.565  0.0264  0.0965  0.2777
 8782W        W24591  10.854  12.367   3.135 -0.2057 -0.1832 -0.1009
 8783W        W24592  17.881   6.142   2.098 -0.0494  0.1772 -0.1522
 8784W        W24593   0.390  10.710  14.241 -0.0022 -0.1292 -0.2122
 8785W        W24594   2.154  14.811  11.579  0.1085  0.2116  0.1448
 8786W        W24595   3.060  18.569  10.944  0.4678 -0.1260  0.0056
 8787W        W24596  17.529   0.779  12.017 -0.1164  0.0368 -0.0770
 8788W        W24597   2.600   9.514   1.777  0.4732 -0.1443  0.2523
 8789W        W24598  14.469  18.659   0.736 -0.0729 -0.1152  0.0834
 8790W        W24599  12.387   4.767   4.101 -0.2653  0.1827 -0.0180
 8791W        W24600   6.611  10.083  11.630  0.3629  0.0179  0.0193
 8792W        W24601  17.591  16.108  12.430 -0.1068  0.1937 -0.3515
 8793W        W24602   0.456   9.977   4.331  0.0565 -0.0718 -0.2441
 8794W        W24603   8.474   9.931  12.647  0.1763  0.0332  0.0968
 8795W        W24604   3.325  18.052   1.602  0.1678 -0.5082  0.0295
 8796W        W24605   9.962   9.032  12.508  0.0833 -0.3964  0.0558
 8797W        W24606   0.349  13.023  10.792 -0.1684 -0.1311 -0.0896
 8798W        W24607  14.613   6.607   4.445  0.1020  0.0249  0.0762
 8799W        W24608  15.797  12.142  12.482  0.0986  0.0642  0.2085
 8800W        W24609  11.746  10.962  14.447  0.1293 -0.0313 -0.2352
 8801W        W24610   2.527   3.784   4.698 -0.0431 -0.2853 -0.2144
 8802W        W24611  14.595  18.504  13.613  0.1530 -0.1956  0.0911
 8803W        W24612   4.209   4.461   5.475  0.0554 -0.0036 -0.2511
 8804W        W24613  15.119   4.339  12.992 -0.2495 -0.1277  0.0128
 8805W        W24614   8.382  10.716  15.017 -0.2214 -0.3045 -0.3013
 8806W        W24615   9.492  15.584   5.189  0.1184  0.1724  0.3185
 8807W        W24616  18.248   5.254  13.938 -0.0025 -0.2044  0.0979
 8808W        W24617  14.628   7.091   5.789  0.2199  0.0513 -0.0381
 8809W        W24618   9.674  13.814   4.354 -0.3056 -0.0340  0.4274
 8810W        W24619  17.922  18.561   4.014 -0.0234 -0.2816  0.2337
 8811W        W24620  15.794  16.417   1.463  0.0566 -0.2139 -0.0511
 8812W        W24621   2.415   2.768  12.936  0.0603 -0.1344  0.1024
 8813W        W24622   5.576   4.362  15.238 -0.4255  0.0869  0.2530
 8814W        W24623  12.129   2.993   0.062  0.0641  0.0292  0.1110
 8815W        W24624   1.891   0.781  14.673  0.0430 -0.0209 -0.1099
 8816W        W24625   1.135   3.423   2.585  0.1721  0.0152  0.0459
 8817W        W24626   0.769   2.972   0.879  0.2138  0.1394  0.0627
 8818W        W24627  12.603   6.114   3.670 -0.1898 -0.0854  0.0735
 8819W        W24628   2.920   3.187  14.774 -0.0356  0.2474  0.1533
 8820W        W24629   3.431   6.449   4.197  0.3014 -0.0154  0.2412
 8821W        W24630  15.977  10.952   1.982  0.0310 -0.4750 -0.2510
 8822W        W24631   0.521  11.681   2.268  0.1113 -0.1876  0.1794
 8823W        W24632  14.930   5.170   2.229  0.2170  0.0597 -0.0218
 8824W        W24633  17.399  10.069   2.848  0.4136 -0.2334  0.1750
 8825W        W24634   0.447   8.118  10.574  0.0785  0.1757  0.1799
 8826W        W24635   6.694   0.006   0.241 -0.0106 -0.3721 -0.0224
 8827W        W24636  10.868  13.698  15.045  0.0271  0.2040 -0.1880
 8828W        W24637   2.573  10.795   0.886 -0.0365  0.2544  0.0568
 8829W        W24638  10.550   0.614  13.882  0.2080  0.0706  0.2329
 8830W        W24639  14.570  14.321  14.824  0.2039  0.1204 -0.2138
 8831W        W24640   0.515  17.795   9.746  0.3320  0.1878 -0.3067
 8832W        W24641   6.096   2.045   3.317 -0.1889  0.6704  0.0069
 8833W        W24642   6.335   5.096  15.496 -0.0682  0.0678 -0.1488
 8834W        W24643   8.151   0.115  12.095  0.1974  0.1252  0.0771
 8835W        W24644  10.130   3.924   4.489  0.0638 -0.1233  0.1681
 8836W        W24645   5.958   1.852  15.274  0.0976 -0.3504  0.2705
 8837W        W24646  13.024   7.397   2.515 -0.2837  0.0751 -0.0496
 8838W        W24647   7.815  12.242   0.388 -0.4532  0.0161 -0.3143
 8839W        W24648   0.485  11.455   3.598 -0.2556 -0.1367 -0.1804
 8840W        W24649  14.262   1.655   2.643  0.2350  0.3218  0.2275
 8841W        W24650   0.966   7.755  11.419 -0.2531 -0.0381  0.1435
 8842W        W24651  11.962   3.017  11.117  0.2165  0.4047 -0.0735
 8843W        W24652   7.992   1.526   4.829 -0.0390 -0.1939  0.2459
 8844W        W24653  13.070   2.512  15.718  0.1011 -0.0352 -0.1485
 8845W        W24654  15.031  13.051  15.221  0.2619 -0.0314  0.2658
 8846W        W24655   1.647  18.612  14.506 -0.1657 -0.1011  0.0560
 8847W        W24656   9.081   9.107  14.317 -0.3980 -0.2894  0.2254
 8848W        W24657  14.645  17.115  10.145 -0.1497  0.0119  0.0864
 8849W        W24658  12.139   3.348  14.563 -0.1551 -0.4744  0.2144
 8850W        W24659  13.581  15.408  15.289 -0.1981  0.0087 -0.3795
 8851W        W24660  12.075  10.842  10.254  0.2973  0.1861  0.1823
 8852W        W24661   0.794   4.325   4.072  0.3416  0.0878 -0.0964
 8853W        W24662   0.208  13.946   4.118  0.0948  0.0577  0.2356
 8854W        W24663   8.798   7.259  15.124 -0.0646  0.0057  0.2181
 8855W        W24664   6.887  14.017   0.979 -0.0387  0.1752  0.3198
 8856W        W24665  17.369  16.486  14.453 -0.0138  0.2043 -0.0809
 8857W        W24666  14.528  11.756   0.821  0.2597  0.0687 -0.3088
 8858W        W24667  18.604   5.120  14.256  0.1024 -0.0273 -0.0874
 8859W        W24668   0.624  15.850   1.856  0.2044 -0.0412  0.0218
 8860W        W24669   9.688  13.403  11.088 -0.0990  0.3289 -0.1217
 8861W        W24670  13.344  18.510  11.764  0.0869  0.1082  0.2469
 8862W        W24671   4.465  16.081   4.267  0.2877  0.1660  0.2619
 8863W        W24672  15.247  11.888   2.822 -0.0320  0.0075 -0.3318
 8864W        W24673  16.181  12.102  11.350  0.0591  0.1210 -0.1782
 8865W        W24674  14.644  12.690   2.940  0.0409  0.0917  0.0788
 8866W        W24675  14.221  10.531   5.647 -0.1283 -0.0231  0.0085
 8867W        W24676  17.518   9.755   4.804  0.0250  0.0002  0.3845
 8868W        W24677   3.534  16.722   1.928  0.0957  0.2348 -0.2288
 8869W        W24678   1.680  13.754   4.139  0.0013 -0.2568 -0.1789
 8870W        W24679  15.499  14.095   1.073 -0.0047 -0.2394 -0.0929
 8871W        W24680  12.766   3.504  14.836 -0.1286 -0.0795 -0.1446
 8872W        W24681   3.317   2.604  14.010  0.0984  0.3031  0.0146
 8873W        W24682  13.031   8.908  10.543  0.0238  0.0041 -0.5544
 8874W        W24683  16.903   0.269  10.697  0.0642 -0.0655  0.3029
 8875W        W24684  14.038   1.079  12.661 -0.0227  0.0292  0.2351
 8876W        W24685  15.029   1.251   0.910 -0.2247 -0.3138  0.2579
 8877W        W24686   2.740   6.956   3.020 -0.1764  0.0858  0.0896
 8878W        W24687  14.901   7.205   3.323  0.2440 -0.2422  0.0328
 8879W        W24688  12.276   4.372   4.380  0.2513  0.0630 -0.1465
 8880W        W24689  10.549  10.365   0.952  0.2194  0.1499  0.0040
 8881W        W24690   0.992   9.596   2.240  0.1697  0.0261  0.1707
 8882W        W24691   2.265   1.705  15.216  0.0861 -0.0409 -0.3191
 8883W        W24692   8.057   3.622   1.448  0.2028  0.3037 -0.1821
 8884W        W24693  18.312  15.545  14.006  0.2312 -0.2237  0.3454
 8885W        W24694  11.111   4.761   3.705 -0.0483 -0.1576 -0.2872
 8886W        W24695  16.832  16.916   3.408  0.1354 -0.1581 -0.0520
 8887W        W24696   5.948   3.230   4.600  0.0523 -0.0339  0.2960
 8888W        W24697  11.297   0.590   1.164  0.3760  0.1010 -0.0705
 8889W        W24698  16.525  15.929  14.942 -0.0699 -0.1069 -0.2851
 8890W        W24699   8.372   0.200   9.921 -0.2791  0.3202  0.0842
 8891W        W24700   8.198   3.544  11.864  0.0025 -0.1185  0.3127
 8892W        W24701  18.355   0.769  11.947 -0.0239 -0.0748 -0.2452
 8893W        W24702   5.684  13.811  14.647 -0.0256 -0.0153  0.0124
 8894W        W24703  14.423  17.569  15.522 -0.0367 -0.0700  0.3280
 8895W        W24704   0.385  18.199   1.000  0.1209 -0.0282  0.2549
 8896W        W24705  11.549  11.101   3.017 -0.1984 -0.1931  0.2432
 8897W        W24706   1.688   0.314   1.855 -0.0943  0.2793 -0.1155
 8898W        W24707   9.924   7.068   4.819 -0.2836 -0.2689  0.0772
 8899W        W24708  13.982   7.924  14.644  0.2088 -0.3212 -0.1622
 8900W        W24709  15.715   4.748  12.931 -0.1735  0.0143  0.1448
 8901W        W24710  12.860   3.592   3.414 -0.0573 -0.0852  0.0020
 8902W        W24711  11.577   7.208   1.341 -0.2453 -0.3569 -0.1223
 8903W        W24712  10.788   3.366  12.538 -0.0244  0.0658  0.2294
 8904W        W24713  17.213   9.114   3.003  0.1584  0.1876 -0.1330
 8905W        W24714   6.547  14.057  10.791  0.1249 -0.1527 -0.1894
 8906W        W24715   7.750  14.703   3.218  0.2576 -0.1102  0.1108
 8907W        W24716   9.273  16.295   4.868 -0.1727  0.1758 -0.1501
 8908W        W24717   6.764   9.559   3.502  0.0906 -0.2820 -0.0126
 8909W        W24718   1.042   9.679  11.586  0.1626 -0.0430 -0.0429
 8910W        W24719  18.265  17.987  13.483 -0.0571  0.2351 -0.1817
 8911W        W24720   4.674  14.140  13.335  0.1001  0.2825  0.3199
 8912W        W24721   9.097   8.371   2.874  0.0584  0.0039  0.1051
 8913W        W24722   6.260  11.865   4.428 -0.0767  0.0750 -0.3756
 8914W        W24723   5.670  10.794   2.675  0.1163 -0.1868 -0.0130
 8915W        W24724   2.476   6.160   4.339 -0.0803  0.1240 -0.3617
 8916W        W24725  18.004  14.109  14.206 -0.0360  0.1308 -0.1270
 8917W        W24726   1.788  15.070  11.776 -0.0478 -0.1381 -0.2168
 8918W        W24727  12.896  15.751   4.165  0.0179  0.2533 -0.0044
 8919W        W24728   5.447   6.642   4.672 -0.1050  0.0947 -0.1008
 8920W        W24729   8.438   2.629  13.807 -0.1223 -0.0783 -0.0455
 8921W        W24730   6.599  13.683  15.317 -0.3376  0.1789  0.0450
 8922W        W24731   9.827  14.726   0.784  0.2641 -0.0595  0.0613
 8923W        W24732   1.862   9.729   1.075 -0.1226  0.0882 -0.0341
 8924W        W24733   8.547  18.499  11.934 -0.2306 -0.0820  0.0083
 8925W        W24734   8.240   4.183   1.400 -0.0588 -0.1676  0.3554
 8926W        W24735   2.286   3.937   5.288 -0.1072 -0.1348 -0.1016
 8927W        W24736  13.086  16.749   4.333 -0.1947 -0.1615 -0.2478
 8928W        W24737  12.981   5.125   2.817 -0.0369 -0.1625  0.2475
 8929W        W24738  17.312   8.914   0.383 -0.0605 -0.0455  0.1817
 8930W        W24739   1.172   4.660   5.700  0.2948 -0.0151  0.0820
 8931W        W24740   7.103   8.121  15.023  0.0927  0.0353 -0.1200
 8932W        W24741  14.730   7.598   3.562 -0.0908  0.2216  0.2206
 8933W        W24742  17.156   1.401   0.769 -0.1773  0.2524  0.0209
 8934W        W24743  15.283  18.637  14.257 -0.2033 -0.0815 -0.2071
 8935W        W24744  16.938   5.426   4.687 -0.0328 -0.0870  0.0870
 8936W        W24745  13.757   9.264   5.004 -0.3265  0.1070 -0.0876
 8937W        W24746   2.806  13.951   1.678 -0.0259 -0.2704  0.2558
 8938W        W24747  15.646  14.443   2.575  0.2187  0.0716 -0.1100
 8939W        W24748  17.706   6.648  13.600 -0.0856  0.3298 -0.2539
 8940W        W24749   1.828  13.658   6.392  0.1486  0.2310 -0.3976
 8941W        W24750  12.936   6.768   4.945 -0.0100 -0.2412  0.2837
 8942W        W24751  14.288  16.697   0.906  0.0854 -0.0196 -0.3158
 8943W        W24752  10.553   9.808   1.221 -0.1253 -0.0297 -0.0894
 8944W        W24753  15.721   4.374  10.360 -0.2497  0.1945 -0.3003
 8945W        W24754   4.066   3.587   3.659  0.0969  0.2163 -0.2187
 8946W        W24755   5.664   8.081  13.636  0.1554 -0.1194  0.2595
 8947W        W24756   8.966   6.471  12.633  0.0063  0.2388 -0.1597
 8948W        W24757  14.026  10.901   4.332  0.1768 -0.1826 -0.3680
 8949W        W24758   8.616   8.506   4.772 -0.2545 -0.3146  0.1172
 8950W        W24759   0.685  18.276   4.001  0.0058  0.0605 -0.0537
 8951W        W24760   5.107   8.183  15.679 -0.2293 -0.0469 -0.0296
 8952W        W24761   2.115   0.815   0.524  0.1142  0.0836  0.0651
 8953W        W24762   0.682   5.776   1.451  0.3012  0.2075 -0.0747
 8954W        W24763  13.924   6.429  14.104 -0.3001  0.0093 -0.0106
 8955W        W24764   8.403   3.691   0.708  0.0110 -0.0053 -0.1245
 8956W        W24765  11.628  18.018   4.897 -0.0022 -0.0935 -0.0358
 8957W        W24766  13.880   4.344   1.550 -0.0271 -0.0900 -0.1765
 8958W        W24767   9.085  11.142   0.339 -0.2894  0.2075 -0.1716
 8959W        W24768   2.507   8.541  12.961 -0.5552 -0.2414  0.0615
 8960W        W24769   3.854  17.811  15.013 -0.2211 -0.0254 -0.0753
 8961W        W24770   7.589  10.541  13.681 -0.1303  0.1142 -0.0385
 8962W        W24771   0.888  15.756  13.477 -0.3475 -0.1568  0.2309
 8963W        W24772  10.326  11.988   1.939  0.0852 -0.1363  0.0079
 8964W        W24773   8.646  15.903   1.311 -0.3847 -0.2438 -0.1921
 8965W        W24774   0.278   6.015   4.027 -0.1443 -0.2430 -0.1645
 8966W        W24775   4.993   8.610  15.488  0.1009 -0.0331 -0.2040
 8967W        W24776   9.495  14.865  14.267 -0.1067 -0.0924 -0.0526
 8968W        W24777   4.861   4.016   5.319 -0.0943 -0.0738  0.1932
 8969W        W24778   0.865   7.725   0.017 -0.0955  0.0945 -0.1086
 8970W        W24779  12.860  10.516   3.429 -0.3562 -0.0233  0.0517
 8971W        W24780  17.139  11.890   1.960 -0.5095 -0.0737 -0.1046
 8972W        W24781  11.566   6.338   5.471 -0.0286 -0.3552  0.4382
 8973W        W24782  12.895   2.633   4.944 -0.0911 -0.1640  0.1743
 8974W        W24783  17.232  11.364   3.544  0.1117  0.0452 -0.0466
 8975W        W24784   6.013  16.968  11.205  0.0453  0.0160  0.3012
 8976W        W24785  13.033  18.370  14.690  0.2003  0.0802 -0.0481
 8977W        W24786  11.975  14.366   4.539  0.3824 -0.0605  0.3844
 8978W        W24787   4.453  12.426  11.091  0.2168 -0.1382 -0.1091
 8979W        W24788   9.600   8.958   0.158  0.0964  0.2081 -0.2680
 8980W        W24789   4.359   0.368  10.849 -0.1945  0.0644 -0.1619
 8981W        W24790   7.041   7.731   2.626 -0.0639 -0.0615 -0.0770
 8982W        W24791   8.835   0.794  12.094  0.1370  0.2735 -0.1720
 8983W        W24792  12.670   1.908  12.092 -0.1312  0.1219  0.4978
 8984W        W24793  15.763  14.038   2.258 -0.1778  0.0367  0.1166
 8985W        W24794   6.217   2.014   3.798 -0.1956  0.2005  0.0922
 8986W        W24795   7.295   5.224  15.596 -0.2602 -0.0246 -0.0512
 8987W        W24796   1.775   4.364  14.718 -0.1319  0.2021  0.1416
 8988W        W24797  11.010   9.607   3.112 -0.1209 -0.0208 -0.3804
 8989W        W24798   5.273  17.341   4.143 -0.2833 -0.0064  0.2806
 8990W        W24799  16.539   1.702  14.257 -0.0988  0.0974  0.0955
 8991W        W24800   5.973   8.125   0.576  0.2042 -0.0625  0.0154
 8992W        W24801  18.395  17.404   1.172 -0.1517 -0.2504  0.0255
 8993W        W24802   9.604   8.941  14.072  0.0248 -0.0164 -0.0693
 8994W        W24803   8.688  10.572   2.917  0.2407  0.2810 -0.2083
 8995W        W24804   0.787  11.766   0.356 -0.0824  0.0299  0.0724
 8996W        W24805   6.396  14.726   1.462  0.1194 -0.2428 -0.1182
 8997W        W24806   2.824   3.693   1.227 -0.1278 -0.1118  0.3487
 8998W        W24807   4.919  13.393  12.021  0.3494  0.1069 -0.1178
 8999W        W24808  17.178  14.420  10.813  0.0315 -0.1322 -0.2188
 9000W        W24809  14.491   9.578  14.753  0.2838  0.2478 -0.0500
 9001W        W24810   3.093   9.037  12.267 -0.0784  0.4034  0.0069
 9002W        W24811   9.220  17.321  15.018  0.3362  0.1434 -0.0224
 9003W        W24812  12.662   8.462   5.371  0.0216 -0.1066 -0.1305
 9004W        W24813   7.396   6.457  11.940 -0.1144  0.1214  0.2542
 9005W        W24814  12.867  11.637   4.077  0.3522  0.0832 -0.4946
 9006W        W24815   6.841  13.648   5.650 -0.0420 -0.0684 -0.2887
 9007W        W24816   0.178   4.711   2.900 -0.2556 -0.1120 -0.0722
 9008W        W24817   9.842   4.841   2.036 -0.1116 -0.0118  0.0093
 9009W        W24818  10.956   8.393   3.328 -0.0585 -0.0621  0.1249
 9010W        W24819   7.949  16.095   0.176  0.1227 -0.0777 -0.3449
 9011W        W24820  11.255  10.671  12.580 -0.0671  0.0866 -0.2406
 9012W        W24821  13.617  11.604  11.917  0.0378 -0.0165 -0.1191
 9013W        W24822   9.677   0.689  12.028  0.1153  0.2389 -0.3532
 9014W        W24823  16.284  15.480  11.432  0.1998 -0.3315 -0.1193
 9015W        W24824   3.302  17.131   3.781  0.1990  0.6142 -0.3322
 9016W        W24825  15.543  13.191   2.942 -0.2362  0.0180  0.1441
 9017W        W24826  17.257  12.155   1.394  0.2166 -0.1645  0.0983
 9018W        W24827   4.176   0.807   4.210  0.4354 -0.1414 -0.1595
 9019W        W24828  18.060  14.726   4.788 -0.0502 -0.1798 -0.0647
 9020W        W24829   5.297  13.047   1.274  0.2574 -0.2210 -0.1679
 9021W        W24830  12.665  11.644  12.129  0.1296  0.1952 -0.3419
 9022W        W24831  10.033   2.750  12.392  0.0284  0.1521  0.3012
 9023W        W24832  14.700   5.527   1.916  0.1269 -0.0639 -0.1365
 9024W        W24833   5.426  16.045   3.805  0.0987  0.0520  0.3005
 9025W        W24834   9.860   4.222  10.426 -0.1703  0.1166  0.0464
 9026W        W24835  13.048   8.350  11.951  0.2037  0.1100 -0.1859
 9027W        W24836  10.250   9.660  13.006  0.3473 -0.0198  0.4126
 9028W        W24837   3.330   1.497  12.442  0.1492 -0.2699  0.0804
 9029W        W24838   3.995  18.296   4.801 -0.1289  0.0063 -0.1119
 9030W        W24839   7.059   6.034   0.719 -0.0061  0.0850  0.2036
 9031W        W24840   5.838   1.248  14.541 -0.1078  0.0469  0.0239
 9032W        W24841  13.974  13.831   0.091 -0.1314 -0.1978 -0.4129
 9033W        W24842  17.759   8.832   0.617 -0.3451  0.0998 -0.2463
 9034W        W24843   2.889  13.078   5.732 -0.3685  0.0887  0.0489
 9035W        W24844  11.167  17.122  13.275  0.1755  0.0004  0.3914
 9036W        W24845  17.526  18.447   0.589  0.0073 -0.3008  0.1917
 9037W        W24846   3.024  13.402   0.129 -0.4266  0.1370  0.2373
 9038W        W24847   9.392  13.481   0.931  0.0866  0.1383  0.3062
 9039W        W24848  18.105   6.269  13.596  0.0529 -0.1061  0.2325
 9040W        W24849  12.753   0.639  13.988 -0.1351 -0.1931  0.0543
 9041W        W24850  15.655  17.972   3.203 -0.1931 -0.0645  0.2683
 9042W        W24851  10.647  12.252   5.155 -0.0660 -0.0501  0.0697
 9043W        W24852   8.664   1.666   3.060  0.1835  0.0538 -0.0095
 9044W        W24853  10.408   7.846  15.272  0.3259 -0.2177 -0.1074
 9045W        W24854  15.774   2.402   0.062 -0.2199 -0.1049 -0.2408
 9046W        W24855  17.352   1.168  12.913 -0.2362 -0.1463  0.0336
 9047W        W24856   5.905  11.065  12.631 -0.2727 -0.0855 -0.0813
 9048W        W24857  17.031  13.542  13.527  0.1124 -0.2495  0.2460
 9049W        W24858   4.205   9.424   2.959  0.0329 -0.3009 -0.3133
 9050W        W24859  17.232  10.389  12.975  0.3639 -0.1196 -0.3243
 9051W        W24860   6.469   6.411  11.700 -0.1214 -0.0134  0.1098
 9052W        W24861   7.288  17.676   1.281 -0.0804  0.1277  0.0937
 9053W        W24862   6.546  16.072   0.986 -0.2595  0.0155 -0.2902
 9054W        W24863   9.637   0.408  11.608  0.4437 -0.2749 -0.1652
 9055W        W24864  18.602  14.306  11.355 -0.1039  0.1873  0.2951
 9056W        W24865   6.253   6.283  13.148 -0.1268 -0.0514  0.1593
 9057W        W24866  13.909   0.270   3.034 -0.1918 -0.0066 -0.1685
 9058W        W24867   5.616  15.738  14.693  0.0077 -0.0640  0.2548
 9059W        W24868  14.808  13.872  14.077  0.0137 -0.0778  0.1609
 9060W        W24869   7.993   9.110  12.259  0.2216 -0.2932 -0.0527
 9061W        W24870   6.565   4.055   1.344  0.1936  0.1660 -0.0682
 9062W        W24871   6.497   5.084  14.516 -0.1963 -0.0488  0.0175
 9063W        W24872   9.383   3.994   2.180 -0.1597  0.2068  0.1719
 9064W        W24873   9.092  14.893  11.034 -0.0097  0.0393  0.2867
 9065W        W24874  13.775   7.734   4.326 -0.3464 -0.0342 -0.2507
 9066W        W24875   7.420  17.899  13.363 -0.0889  0.0649 -0.1041
 9067W        W24876   1.875  12.558  15.177 -0.2696  0.1363  0.2035
 9068W        W24877   6.907   2.391  14.705  0.2121 -0.0235  0.0740
 9069W        W24878  14.281   2.650   4.194 -0.1492  0.3777 -0.1495
 9070W        W24879   8.935  16.987  15.743  0.2267  0.0267  0.0206
 9071W        W24880   7.908  15.610   0.361 -0.1458 -0.2290 -0.0130
 9072W        W24881   9.788  16.360   4.827 -0.0452  0.0811 -0.1355
 9073W        W24882   2.532   6.128  12.033 -0.0246  0.2265 -0.1297
 9074W        W24883   9.438  14.622   5.045 -0.1169  0.1776  0.2041
 9075W        W24884   1.976   8.467   1.481 -0.1546  0.2585 -0.0170
 9076W        W24885   1.173  18.013  15.603 -0.0556  0.0543 -0.2892
 9077W        W24886  10.516  10.262  11.043 -0.0039 -0.0157  0.1905
 9078W        W24887   0.312   8.069  12.050 -0.0759  0.0309  0.3077
 9079W        W24888   8.382  12.491  10.808 -0.1319  0.1125  0.1416
 9080W        W24889  12.114   9.678  12.552  0.0785  0.0004 -0.0896
 9081W        W24890   6.485   2.542  13.265  0.3470  0.2107 -0.1700
 9082W        W24891   9.358  18.085   1.880  0.0406 -0.0849 -0.0655
 9083W        W24892   9.834   0.361  10.840  0.0642  0.3523 -0.1702
 9084W        W24893  16.217   1.684  12.239  0.1786  0.3505  0.0253
 9085W        W24894  16.222   4.329   2.560  0.1802 -0.0633  0.0724
 9086W        W24895   8.968   7.713  13.530 -0.3140  0.1773  0.1292
 9087W        W24896  12.990   5.077   3.394 -0.0154  0.1989 -0.1054
 9088W        W24897  13.650  13.595  14.685  0.2125 -0.1660  0.1506
 9089W        W24898   6.862   5.209   0.275  0.1905  0.4179 -0.2624
 9090W        W24899   0.209  15.773  15.249  0.1092  0.1758  0.0157
 9091W        W24900   7.019  16.690   5.020  0.6530 -0.1142  0.1408
 9092W        W24901  16.911   1.423  10.506 -0.3960  0.1640  0.2152
 9093W        W24902  15.819  17.205  12.265  0.1237  0.1901  0.3723
 9094W        W24903  16.036   3.728  14.952  0.4073  0.0534  0.3066
 9095W        W24904   5.807  16.164   3.416  0.0683  0.0779 -0.0042
 9096W        W24905  18.570   5.269  12.351  0.4677 -0.0734  0.1495
 9097W        W24906   4.574   6.163   1.464 -0.2348 -0.4416 -0.2501
 9098W        W24907   8.429   6.466  10.869 -0.1068  0.2925 -0.0449
 9099W        W24908   8.145  10.905  10.955  0.1551 -0.1560 -0.0323
 9100W        W24909  17.352   0.374  10.926  0.0792  0.1428 -0.1354
 9101W        W24910  12.421   5.996   0.449 -0.0798  0.0253 -0.0464
 9102W        W24911   7.174   7.772  11.419 -0.1784  0.1129 -0.0210
 9103W        W24912  12.422   4.877   1.192 -0.0691 -0.0886 -0.1857
 9104W        W24913  12.021   4.190  14.773  0.0969 -0.0978  0.0390
 9105W        W24914   1.233   5.009   0.648  0.2057 -0.1054  0.2006
 9106W        W24915   3.627   9.170  15.588 -0.2107 -0.0653 -0.0836
 9107W        W24916   6.578  10.032  13.172  0.2544  0.2455  0.1388
 9108W        W24917  14.409  17.547   2.158  0.1385  0.2108 -0.3346
 9109W        W24918  15.112   2.958   3.575  0.0459  0.0569 -0.2473
 9110W        W24919  12.655  13.980   4.122  0.2846  0.0304 -0.0530
 9111W        W24920   7.279   0.478   4.648 -0.3493  0.1524  0.0135
 9112W        W24921   9.096  10.369   2.300 -0.1431 -0.2322 -0.1695
 9113W        W24922   4.724  10.482  12.741 -0.2635  0.1771 -0.0911
 9114W        W24923  10.418  17.542   2.546  0.2350 -0.0646 -0.0524
 9115W        W24924  18.356   7.043   5.155 -0.0338  0.1188 -0.1777
 9116W        W24925  14.577  12.838   4.821  0.0899 -0.1101  0.1930
 9117W        W24926   6.394  12.579  15.128 -0.0308 -0.1291 -0.2426
 9118W        W24927   7.918  16.947  14.795 -0.0938 -0.0691  0.1512
 9119W        W24928  17.932  10.187  12.578 -0.2012  0.0999  0.1351
 9120W        W24929   0.415  14.910  10.815  0.0634 -0.3148 -0.1182
 9121W        W24930  17.723   0.549   4.869  0.0014  0.2683  0.0996
 9122W        W24931   4.801  10.050   3.143 -0.1881  0.1940  0.1137
 9123W        W24932  13.967  12.854   4.052 -0.2814 -0.3113  0.2539
 9124W        W24933   2.582  14.761   4.471  0.1081 -0.0601  0.1087
 9125W        W24934  15.273   8.272  13.223 -0.0004  0.1189  0.1748
 9126W        W24935  17.815   1.877  12.668  0.1246 -0.3090 -0.1003
 9127W        W24936  17.026   4.709  13.053  0.2409  0.2166 -0.0457
 9128W        W24937  12.591   8.363  13.124 -0.0708 -0.2149  0.2175
 9129W        W24938  14.574  17.953  11.115 -0.0002 -0.1412  0.0521
 9130W        W24939   9.712  16.534   0.511  0.1608 -0.1421 -0.1173
 9131W        W24940   7.386   4.731   1.065  0.2016  0.0707  0.2053
 9132W        W24941  14.272   0.893   3.801  0.1250  0.1542  0.0679
 9133W        W24942   8.381   8.196  15.128  0.3836  0.1304 -0.1244
 9134W        W24943  14.303   5.285   5.031 -0.3827  0.1354 -0.2089
 9135W        W24944  10.552   9.162   1.925 -0.0268 -0.1830 -0.0057
 9136W        W24945   8.293  11.935  12.699 -0.1543 -0.1251 -0.1539
 9137W        W24946  18.227   9.473   4.339  0.0469 -0.0139  0.0133
 9138W        W24947  14.766   9.590  11.660 -0.2993 -0.0988 -0.4479
 9139W        W24948   4.013   0.699  10.904  0.1763  0.4499  0.0735
 9140W        W24949  14.973  14.495  10.366 -0.2760 -0.0793  0.2030
 9141W        W24950   6.859   4.044   0.571 -0.2354  0.0723  0.1044
 9142W        W24951   8.231  12.981  15.378  0.1923 -0.1539  0.0429
 9143W        W24952   5.689   9.209   5.913 -0.1682 -0.4255 -0.0157
 9144W        W24953  14.931  17.376  14.740 -0.3425 -0.1548  0.1142
 9145W        W24954  14.296  10.725  12.973 -0.0698  0.3073  0.2732
 9146W        W24955   4.405  10.445   3.814 -0.1414 -0.0084 -0.2414
 9147W        W24956  12.721  11.356  12.738 -0.1379 -0.3644  0.1874
 9148W        W24957  11.479  12.498   3.892 -0.2574 -0.1750  0.0627
 9149W        W24958  12.360   3.925   2.395  0.2052  0.1726  0.0767
 9150W        W24959   0.739  11.016  15.128  0.2393 -0.1814 -0.3856
 9151W        W24960  11.647  15.188   0.202 -0.1847  0.3007 -0.0864
 9152W        W24961  11.869   8.817   2.739 -0.0206  0.0083  0.2234
 9153W        W24962  13.508   3.235  14.593 -0.0284 -0.0411  0.0680
 9154W        W24963   6.888  14.495  10.917  0.0698  0.1217  0.1511
 9155W        W24964   5.115  15.651   0.867 -0.1739 -0.1054  0.3237
 9156W        W24965  17.906   4.713   2.007  0.0078 -0.1043 -0.2646
 9157W        W24966   5.058   5.680  13.827 -0.1663  0.1164  0.2979
 9158W        W24967  12.518  10.553  13.385 -0.1663  0.0593  0.2531
 9159W        W24968   3.225  12.996  15.051  0.0688 -0.3192 -0.1658
 9160W        W24969  14.214  18.111  11.421 -0.0378 -0.0619  0.2606
 9161W        W24970   2.687  15.785  10.717  0.2174 -0.4020 -0.2214
 9162W        W24971  11.777   6.530  11.050 -0.1872  0.3043  0.0943
 9163W        W24972  18.356   3.164  15.385  0.1688  0.0465  0.0013
 9164W        W24973   1.937  10.488  11.872  0.0802  0.1133 -0.2713
 9165W        W24974  11.489   5.270  11.444 -0.2852 -0.1594  0.2646
 9166W        W24975   1.275  16.870   0.205 -0.0361  0.1433 -0.2625
 9167W        W24976  12.288  14.457  13.606 -0.0537 -0.2399 -0.0481
 9168W        W24977  12.932   4.964   1.120 -0.1781  0.1161 -0.0961
 9169W        W24978   1.468  13.359  12.057  0.0953  0.2778  0.0230
 9170W        W24979  14.490  13.591  12.453 -0.2278  0.3541 -0.1173
 9171W        W24980  15.078  13.756   4.079 -0.1405  0.0597  0.4329
 9172W        W24981  16.272   0.175  12.150  0.2091 -0.0324 -0.0313
 9173W        W24982   8.378  13.423   5.253  0.0216  0.0964  0.0462
 9174W        W24983   7.071  16.465  14.194  0.1331  0.2270  0.1767
 9175W        W24984  14.046   9.043   2.710 -0.1356 -0.1793  0.0510
 9176W        W24985   8.464   6.215   1.832 -0.3325  0.1171 -0.1659
 9177W        W24986   1.339  11.195  12.100 -0.0241 -0.0207 -0.2758
 9178W        W24987   8.259   2.588  10.872 -0.0627 -0.0424 -0.1670
 9179W        W24988  13.515  10.742  11.317 -0.2006 -0.0801  0.0541
 9180W        W24989  17.589  12.577   4.229 -0.0237  0.3464  0.2876
 9181W        W24990   2.521   0.484   4.194 -0.1303 -0.1009  0.2521
 9182W        W24991  17.400  13.111   4.401  0.0565  0.1656 -0.1633
 9183W        W24992  11.175  15.949  14.073 -0.0070 -0.3403  0.0283
 9184W        W24993   3.806   3.044   5.020 -0.2160  0.4036  0.1493
 9185W        W24994  18.250  10.908  13.666 -0.0649 -0.1471 -0.1059
 9186W        W24995  10.320  11.921   5.330 -0.3492  0.3063  0.0773
 9187W        W24996   0.391   0.359  10.653 -0.1069  0.0793 -0.0249
 9188W        W24997   6.695   0.269   3.653  0.0028 -0.0308  0.0157
 9189W        W24998  18.140  16.954   2.855  0.3656  0.1130  0.2000
 9190W        W24999  13.571   4.468   0.564  0.0477 -0.1376  0.0998
 9191W        W25000  15.568   4.658  13.782 -0.0238 -0.2992  0.2854
 9192W        W25001  13.220   3.391  12.873 -0.2264 -0.2072 -0.2149
 9193W        W25002   5.119   9.716   5.011  0.1896  0.1266 -0.0889
 9194W        W25003   9.888  17.565  10.484 -0.0417 -0.2044 -0.1983
 9195W        W25004  18.631   9.893   2.758 -0.0388  0.0368 -0.0125
 9196W        W25005  13.491   5.484   5.599  0.1916  0.0274 -0.0903
 9197W        W25006  11.986   3.948   4.448 -0.0522  0.2041 -0.1562
 9198W        W25007  12.562  15.603  11.009  0.0910  0.1081 -0.0095
 9199W        W25008   3.964  16.850   4.197  0.1497  0.1326 -0.1848
 9200W        W25009   5.550   3.463  15.264  0.2523 -0.1167  0.1005
 9201W        W25010   8.142   2.710  11.397  0.1530  0.1724 -0.1304
 9202W        W25011  10.982   5.350   3.170 -0.2403 -0.1796 -0.2307
 9203W        W25012  16.131  11.290  12.473  0.0833  0.1697  0.0477
 9204W        W25013  11.484  10.828  12.170 -0.0403 -0.1681 -0.1038
 9205W        W25014   4.319   6.415  15.634 -0.0732 -0.1235  0.1608
 9206W        W25015  14.405   1.346   1.336 -0.0431 -0.2118  0.2924
 9207W        W25016   5.910  15.568  11.094 -0.3218 -0.0792 -0.1680
 9208W        W25017  11.235  11.934  12.655 -0.1481  0.1165 -0.0133
 9209W        W25018  10.569   9.622  13.909 -0.0049 -0.1103 -0.0636
 9210W        W25019   4.697   2.702   0.257  0.3823 -0.1279  0.1472
 9211W        W25020   5.018   9.435   0.932 -0.2573 -0.1743  0.3332
 9212W        W25021  16.078   7.049   1.577 -0.0157  0.1685 -0.1345
 9213W        W25022   1.230  16.016   4.096  0.0016  0.0538 -0.3093
 9214W        W25023   8.406   6.397  14.621  0.1677  0.0046 -0.2790
 9215W        W25024  11.305   0.985   4.570 -0.3403  0.1676 -0.0599
 9216W        W25025   6.775   1.674  15.715  0.1046  0.2379 -0.3572
 9217W        W25026   9.587   3.694   0.189  0.1974  0.0415 -0.5042
 9218W        W25027   9.361  11.291   4.505 -0.3113 -0.3007  0.0509
 9219W        W25028  17.882  11.535  13.121  0.0715 -0.0095  0.2230
 9220W        W25029   5.142   4.452  14.963 -0.3050  0.0434  0.4113
 9221W        W25030   5.531  14.585   5.676  0.5244  0.3118  0.1816
 9222W        W25031  15.567   6.924   4.489 -0.1213 -0.3064  0.0600
 9223W        W25032  10.866   6.945  11.345 -0.0261  0.1075  0.0152
 9224W        W25033   5.319  14.352  10.613  0.1242  0.2227 -0.0246
 9225W        W25034  11.507  17.233   2.169  0.0710  0.1754 -0.0601
 9226W        W25035  18.471   6.172  11.513  0.0374 -0.3420  0.0201
 9227W        W25036   3.732   3.333   1.185 -0.2741 -0.1012 -0.2165
 9228W        W25037   9.368  17.011   0.750  0.2274  0.1770 -0.0047
 9229W        W25038   6.683  15.210   4.260  0.1092  0.2902 -0.1020
 9230W        W25039  18.562   7.125   3.530  0.2255 -0.2460  0.1361
 9231W        W25040   3.176   0.681  14.719 -0.0615 -0.4099  0.0234
 9232W        W25041  17.888   6.427  14.727 -0.0462  0.0504 -0.2929
 9233W        W25042   3.637   5.901   4.268 -0.0782  0.1756  0.1628
 9234W        W25043  18.592   9.257  13.932 -0.0782  0.3381  0.1646
 9235W        W25044   6.919  12.604  14.242  0.2226 -0.0739 -0.1702
 9236W        W25045   9.605  13.951   0.615 -0.0265  0.1346  0.0804
 9237W        W25046   9.989   0.194   2.783  0.1537  0.0699 -0.0805
 9238W        W25047   3.770  17.596  10.557 -0.2467  0.0167  0.0012
 9239W        W25048  17.630   0.054  13.441 -0.2388  0.0083 -0.1294
 9240W        W25049  12.378   7.623   0.838 -0.3060 -0.3605  0.1385
 9241W        W25050   7.183  10.330   2.810 -0.0734 -0.2491  0.1476
 9242W        W25051  12.932   8.831  11.939 -0.0910  0.1829 -0.0049
 9243W        W25052  18.535  16.016  14.004  0.0592  0.0018 -0.3136
 9244W        W25053   2.858  17.589  13.109  0.1027  0.2397  0.0731
 9245W        W25054   8.001   6.997   2.013  0.3274 -0.1512 -0.1895
 9246W        W25055   4.387   2.456  15.343 -0.0204 -0.1421  0.0255
 9247W        W25056   8.499  12.459  14.204  0.0243 -0.1102 -0.0991
 9248W        W25057   0.869  14.584   5.180 -0.1458 -0.1269  0.0582
 9249W        W25058   0.445   7.522  11.514  0.1289 -0.1687  0.0537
 9250W        W25059  10.889  14.351   1.377 -0.0155  0.4640 -0.0593
 9251W        W25060   1.821   8.566  15.092  0.0142  0.0288  0.1156
 9252W        W25061  13.232   9.373   5.278 -0.1041 -0.2430  0.1283
 9253W        W25062  13.388   0.373  11.715  0.1647  0.4010  0.0668
 9254W        W25063  11.528  14.304   1.675 -0.0154  0.0486 -0.2727
 9255W        W25064   5.844   1.399  15.493  0.1410 -0.2459  0.0299
 9256W        W25065   1.340   7.175   6.370  0.2914 -0.0607 -0.2318
 9257W        W25066  12.676   9.748  11.011  0.0538 -0.2754  0.1184
 9258W        W25067   6.508  14.161  15.729  0.2784 -0.2963 -0.2037
 9259W        W25068  13.634   6.297   5.355 -0.0171  0.0898  0.2416
 9260W        W25069  16.569  14.538   1.618  0.2126  0.1058 -0.1818
 9261W        W25070  18.368  14.311  13.059  0.0541  0.2729  0.2388
 9262W        W25071   8.048   5.475   3.310 -0.2250 -0.0781  0.0118
 9263W        W25072   8.179   1.079   1.928  0.0434  0.1660 -0.0395
 9264W        W25073  17.078   7.128   1.513  0.2322 -0.2023  0.0670
 9265W        W25074   3.568  11.269   1.902 -0.0110  0.1513  0.0531
 9266W        W25075   6.243  15.966   2.669 -0.1353 -0.1009 -0.3956
 9267W        W25076  12.612   0.885  11.802  0.1372  0.0398  0.0877
 9268W        W25077   3.082  18.563  11.909  0.1087 -0.1308  0.1715
 9269W        W25078  12.560   2.887   0.990 -0.0292  0.1671  0.0147
 9270W        W25079   5.764  17.642   2.691  0.2973  0.2538 -0.0430
 9271W        W25080  12.004   4.190   5.045 -0.2717 -0.3128  0.0997
 9272W        W25081  17.955   4.204  10.787  0.0123  0.0683  0.1223
 9273W        W25082   3.615   1.631   0.315 -0.0957  0.1755 -0.0618
 9274W        W25083  13.860   2.713  14.601  0.1795  0.2264 -0.1964
 9275W        W25084   3.561  17.702   1.776 -0.3366 -0.1338 -0.1488
 9276W        W25085  15.383   9.186   5.050  0.2166  0.0599 -0.0907
 9277W        W25086  17.005  14.284   5.455 -0.0010 -0.0852  0.0641
 9278W        W25087   4.921  10.759  13.050 -0.1590  0.0179 -0.3769
 9279W        W25088   3.037  13.783   0.645 -0.2749  0.0291  0.3854
 9280W        W25089  14.651  13.317  15.509  0.1130  0.1507  0.1070
 9281W        W25090  11.812   7.827   4.386 -0.0258  0.1780 -0.0646
 9282W        W25091  16.564   9.783  15.351  0.1500 -0.2060  0.1178
 9283W        W25092  14.693  16.602   3.622 -0.4698 -0.1254 -0.1923
 9284W        W25093  18.237   9.955   4.297  0.1540 -0.1723  0.0419
 9285W        W25094   5.411  13.058  14.769  0.0532 -0.0154  0.0227
 9286W        W25095  15.385   8.805   4.690 -0.1796  0.1163  0.1190
 9287W        W25096   5.894  10.418   2.294  0.4402  0.1798 -0.0246
 9288W        W25097  18.128  11.218  14.810 -0.1364  0.1717 -0.2443
 9289W        W25098   9.901   7.596   3.154 -0.2861 -0.2856 -0.0760
 9290W        W25099  11.585   8.049   1.003  0.2510  0.1424 -0.1211
 9291W        W25100  11.606  10.209  14.309  0.0683  0.0728 -0.3872
 9292W        W25101  18.614   8.325   1.288  0.2548 -0.2810 -0.1157
 9293W        W25102  16.268  15.358   4.315  0.0142 -0.0690 -0.3372
 9294W        W25103  14.500   6.289  11.804 -0.1546 -0.1672 -0.1089
 9295W        W25104   5.148   1.291  13.631  0.3704  0.0755 -0.2087
 9296W        W25105  12.751  15.451   4.597 -0.1542 -0.0709  0.1304
 9297W        W25106   3.995   1.934  11.168  0.0784 -0.1181 -0.2570
 9298W        W25107   1.089   2.766   1.559 -0.0992  0.2228  0.0718
 9299W        W25108   0.024   2.822   2.640  0.0362  0.0149  0.4402
 9300W        W25109   7.793   1.269  10.496  0.0206  0.4323  0.1976
 9301W        W25110   0.886   1.540  11.403  0.2422  0.0365  0.0955
 9302W        W25111  15.556  15.638  10.866  0.0461  0.0318 -0.0353
 9303W        W25112  13.965   0.467  13.577  0.0571 -0.3283  0.2479
 9304W        W25113   7.953  18.604   3.163 -0.2134 -0.3012  0.1135
 9305W        W25114   5.541  10.873   5.030  0.0433 -0.0258 -0.2747
 9306W        W25115  13.761   8.444   3.808 -0.1731  0.2510 -0.2977
 9307W        W25116  11.891  14.302  14.000  0.0528 -0.2608 -0.0396
 9308W        W25117  12.407  12.527   3.845  0.1005  0.2966 -0.2698
 9309W        W25118  11.687  15.700   1.457  0.1100 -0.1193  0.1000
 9310W        W25119  12.982   8.613   3.294 -0.3252 -0.0619 -0.1547
 9311W        W25120  18.452   0.012  11.164 -0.0755  0.0460 -0.3421
 9312W        W25121  11.015  13.693  14.068  0.0130 -0.0028 -0.0516
 9313W        W25122   6.978  12.497  12.821  0.3033  0.0604  0.0698
 9314W        W25123   2.573   3.285   2.028 -0.0733  0.1471  0.0671
 9315W        W25124   9.369   2.687   1.802 -0.0153 -0.4411  0.1968
 9316W        W25125  15.453   3.123  13.940  0.1122  0.3505 -0.1177
 9317W        W25126  18.104  17.572   2.253  0.1885 -0.0960  0.0029
 9318W        W25127   4.927   5.765  13.060 -0.1232 -0.1509  0.0960
 9319W        W25128   2.960  16.498  14.553  0.3368  0.1821 -0.0202
 9320W        W25129  12.757  13.482  11.946  0.0465 -0.3890 -0.0428
 9321W        W25130   2.763  15.291   2.474 -0.1211  0.1710  0.2636
 9322W        W25131  18.573   3.978   3.606  0.0649 -0.0385  0.3239
 9323W        W25132  12.699   9.676  11.773  0.0886 -0.2053 -0.2713
 9324W        W25133   9.449   5.602   3.788  0.0647  0.2331 -0.1928
 9325W        W25134   9.114   1.362  14.765 -0.0337  0.0296  0.0068
 9326W        W25135   5.173  13.542   2.271  0.1431 -0.0704 -0.0440
 9327W        W25136  10.202   5.436   4.935  0.1407 -0.0745  0.1333
 9328W        W25137  12.228  10.565  13.867 -0.0485 -0.0001 -0.0678
 9329W        W25138  16.799   9.584   0.004  0.1579  0.1639 -0.3036
 9330W        W25139  16.729  17.068  10.424 -0.0700 -0.2184  0.1152
 9331W        W25140  15.094  12.130   5.359 -0.1710  0.1199 -0.2506
 9332W        W25141  16.357   7.821  15.169 -0.0895 -0.2169  0.0330
 9333W        W25142  14.838   9.811   4.513 -0.2595 -0.0069 -0.0365
 9334W        W25143   9.379   0.362   0.897  0.1169  0.0630  0.1968
 9335W        W25144  13.392   5.311   6.212  0.0850 -0.2584 -0.2689
 9336W        W25145  18.050  16.702  13.271 -0.3790 -0.0796 -0.1069
 9337W        W25146  17.427   7.975   5.270  0.2104  0.2072 -0.0623
 9338W        W25147  13.119   4.793  12.367  0.4419  0.0712  0.1386
 9339W        W25148   8.235  10.575   5.060 -0.1424 -0.0592  0.2956
 9340W        W25149   1.071   3.372  13.079  0.0108  0.2588  0.1363
 9341W        W25150  10.148   7.895   1.291  0.1018 -0.0339  0.0454
 9342W        W25151   5.376   1.883  11.491  0.0377 -0.1448 -0.0405
 9343W        W25152   2.959   2.652  14.438  0.2278 -0.0371 -0.0469
 9344W        W25153   1.685   8.565   0.254  0.2028 -0.2078  0.3370
 9345W        W25154   4.246   8.694   1.082  0.1093  0.0796 -0.0501
 9346W        W25155  14.253   3.615  13.037 -0.0554 -0.1049  0.2093
 9347W        W25156   5.394   2.056   5.224  0.1219  0.0561  0.0979
 9348W        W25157   6.430   7.517   3.796  0.3129  0.0290  0.0125
 9349W        W25158  17.231   5.578   1.285 -0.0936 -0.1176  0.0895
 9350W        W25159  11.616  14.985   1.358 -0.3312 -0.3205 -0.0557
 9351W        W25160   5.523   9.776  13.063 -0.0318  0.1297 -0.1906
 9352W        W25161  14.292   5.707  12.572  0.1735 -0.2260  0.1713
 9353W        W25162   7.048  16.053   1.113  0.0648 -0.0471  0.1347
 9354W        W25163  17.836   8.049   0.191  0.2029  0.0570  0.1668
 9355W        W25164  12.833   3.100  12.422  0.2857 -0.0061 -0.3880
 9356W        W25165  11.874  12.304  10.524  0.0642 -0.0912 -0.2264
 9357W        W25166  10.416   6.741   0.722 -0.0182 -0.0276  0.0384
 9358W        W25167  15.427  15.299  12.290  0.0527 -0.0490 -0.0476
 9359W        W25168   7.271  17.135   1.587 -0.2971 -0.0945  0.0431
 9360W        W25169  14.486  14.137  13.269  0.0290  0.0996  0.0503
 9361W        W25170   6.067   0.277  11.655  0.0396  0.1914  0.2917
 9362W        W25171   4.243   6.436  11.091 -0.2618  0.3530  0.1771
 9363W        W25172  16.541   6.897   3.281 -0.0107 -0.1416  0.1059
 9364W        W25173  15.126  13.365   3.206  0.0422  0.1045 -0.0858
 9365W        W25174   1.284  16.960   3.312  0.1298 -0.1815  0.1802
 9366W        W25175  12.144   2.301  10.325  0.2461 -0.0246  0.1361
 9367W        W25176   3.231  13.570   1.117  0.0824 -0.0168 -0.0192
 9368W        W25177   1.282   9.939  13.491  0.0940 -0.0571 -0.0193
 9369W        W25178   4.379  15.345   0.316 -0.0296 -0.0281  0.2902
 9370W        W25179   2.913  10.750   2.317 -0.1564  0.0832 -0.0908
 9371W        W25180   9.921  17.438   1.856  0.1007  0.0837  0.0317
 9372W        W25181  17.355  17.167  15.133  0.1417 -0.1794  0.2473
 9373W        W25182   1.481   3.973  11.617  0.1528 -0.1888 -0.0405
 9374W        W25183   1.099   3.573   3.470  0.1259 -0.1895  0.1339
 9375W        W25184   8.259   4.110   5.289  0.4099  0.1224  0.1485
 9376W        W25185   4.528  11.372  15.378 -0.2466 -0.4689 -0.1768
 9377W        W25186  16.284   8.373   0.930 -0.0690  0.0825  0.3724
 9378W        W25187   5.794   8.591   0.381  0.1780  0.0298  0.0130
 9379W        W25188  15.642   1.150  12.597 -0.0219 -0.2227  0.1484
 9380W        W25189  17.089   5.712  13.076  0.1368 -0.3121 -0.0501
 9381W        W25190   2.225  16.427  15.124  0.4064 -0.3792 -0.2138
 9382W        W25191   3.361   5.495   3.143  0.1714  0.1827  0.0891
 9383W        W25192   0.237   1.831   1.066 -0.4477  0.0977  0.1283
 9384W        W25193   0.629   1.636   2.389  0.2961 -0.0303  0.1026
 9385W        W25194   5.182  16.814   1.045  0.1952  0.0360  0.0128
 9386W        W25195  17.476   7.887  11.474 -0.0198  0.1197  0.0528
 9387W        W25196   6.273   5.393   4.124 -0.2596 -0.0782 -0.0147
 9388W        W25197  12.978   2.699  10.899 -0.1399  0.0773 -0.2048
 9389W        W25198  10.933   5.144  13.628 -0.0564  0.2353 -0.2227
 9390W        W25199  12.670  14.222  15.686  0.1647 -0.2762 -0.0315
 9391W        W25200   8.016  14.612  11.642  0.0679 -0.5593 -0.1647
 9392W        W25201  17.835  10.625  15.466  0.0421  0.0174  0.0130
 9393W        W25202  18.104   2.354  13.369  0.0118  0.2752  0.0250
 9394W        W25203  15.315   7.149   0.088  0.3789 -0.3535  0.1267
 9395W        W25204  15.672   2.511  11.173  0.4421  0.1273  0.0560
 9396W        W25205   1.915  17.181  13.621  0.1172  0.4057 -0.1427
 9397W        W25206  18.121   2.540  12.092 -0.1015 -0.0283 -0.0685
 9398W        W25207   1.128   1.693   2.177 -0.1037 -0.1307  0.0276
 9399W        W25208   9.731   7.517  15.197 -0.0009 -0.0589 -0.0876
 9400W        W25209  15.942  11.097   3.873 -0.1606 -0.2669 -0.0787
 9401W        W25210  10.840  12.038   5.573  0.1588 -0.1455 -0.1745
 9402W        W25211  10.672  11.816  14.083 -0.1109 -0.0921 -0.2243
 9403W        W25212  15.497   9.027  13.932  0.2599 -0.2618 -0.2697
 9404W        W25213   6.194  13.633   0.390 -0.0323  0.0963 -0.1923
 9405W        W25214   0.457   4.827  12.258 -0.1975  0.1490  0.2835
 9406W        W25215  13.553  17.350  13.216  0.0886  0.1405  0.2911
 9407W        W25216  14.032   0.648  10.446 -0.1821 -0.1529 -0.3879
 9408W        W25217  13.470  17.425   1.900 -0.4031  0.1307  0.1165
 9409W        W25218   6.190   6.725  12.851  0.2420 -0.0311  0.0601
 9410W        W25219  17.412   4.742   2.983  0.1792 -0.2581  0.1310
 9411W        W25220   4.746   6.763  12.656 -0.0558 -0.2082 -0.1366
 9412W        W25221   0.202   4.299  10.042  0.3560  0.0419 -0.0569
 9413W        W25222   7.305  11.585  12.407  0.0807  0.0176  0.0853
 9414W        W25223   3.595  13.441  11.199 -0.1102  0.4024 -0.0130
 9415W        W25224   6.799  13.006   0.219 -0.1320 -0.0864 -0.1278
 9416W        W25225   4.697  17.166   4.019  0.0269 -0.0384 -0.0658
 9417W        W25226   6.555  14.913  14.747  0.1139  0.0522 -0.3748
 9418W        W25227  14.082   1.657  15.572 -0.0120  0.1707 -0.3665
 9419W        W25228   5.983   0.710  12.339 -0.2532 -0.1696 -0.0800
 9420W        W25229  12.727   7.453   4.227 -0.1102 -0.1632 -0.1013
 9421W        W25230   9.441  11.004   1.177  0.1623 -0.1621  0.0220
 9422W        W25231  11.264   0.080   4.215  0.3560 -0.1570  0.2631
 9423W        W25232   6.840  12.776   1.373 -0.0839 -0.2108 -0.2824
 9424W        W25233   7.765  13.197  15.179  0.1629 -0.0241  0.0449
 9425W        W25234  11.168  15.772   3.941  0.0416  0.1911  0.1694
 9426W        W25235   3.848   7.385  11.252  0.0528  0.0063 -0.2003
 9427W        W25236  12.284  14.384   4.095  0.0224 -0.0547 -0.2100
 9428W        W25237   5.795   0.203   0.183 -0.1647 -0.0765  0.3380
 9429W        W25238  14.915  15.311  12.749  0.1627  0.1406  0.0367
 9430W        W25239   6.698   2.509   3.980 -0.0555 -0.1779  0.2444
 9431W        W25240   6.671   7.423   1.666 -0.0060 -0.0501  0.0991
 9432W        W25241   3.410   7.674   4.665  0.0439  0.3931 -0.0156
 9433W        W25242  18.420   8.074  12.000  0.1227 -0.1194  0.1078
 9434W        W25243   7.080  16.852  12.202  0.0988 -0.0258 -0.2483
 9435W        W25244  16.015   2.955   0.823  0.2396 -0.1245 -0.0453
 9436W        W25245  11.693  17.327  12.474 -0.0481  0.1337  0.1128
 9437W        W25246  12.676  15.367  15.168  0.0384 -0.0315  0.1305
 9438W        W25247   9.855   5.355  11.503  0.3855 -0.0749 -0.0706
 9439W        W25248  11.398  14.153   3.353  0.0982  0.0776 -0.0057
 9440W        W25249  14.106  13.649  10.709 -0.0662  0.1338 -0.2457
 9441W        W25250   3.860   6.273  11.593  0.3200 -0.2182 -0.1419
 9442W        W25251   8.460  10.209  11.229  0.3821 -0.3935  0.0641
 9443W        W25252   4.844  18.418  11.487 -0.0109  0.2623 -0.2253
 9444W        W25253  12.117  15.557  14.298 -0.0700  0.2093 -0.0318
 9445W        W25254  17.897  12.240  11.635  0.2087  0.0353  0.2008
 9446W        W25255   4.329  15.667  14.896  0.2209  0.3390 -0.1419
 9447W        W25256   3.065  13.534   3.228 -0.0840  0.4204  0.1996
 9448W        W25257  13.395  13.618  15.159  0.1454 -0.2425  0.0246
 9449W        W25258   7.672  17.540   0.695  0.0893 -0.4406  0.5585
 9450W        W25259   2.052  15.774   3.426  0.1252 -0.1565  0.1971
 9451W        W25260   8.694  11.794  12.377 -0.1407  0.0854  0.1297
 9452W        W25261  15.305  10.758  12.965 -0.0362 -0.1821 -0.1715
 9453W        W25262  11.735   3.578  11.360  0.2353 -0.2385  0.0775
 9454W        W25263   8.802   9.993   1.399 -0.2362 -0.1306 -0.0293
 9455W        W25264   1.638  10.993   5.914 -0.2096  0.0069  0.1546
 9456W        W25265   0.220  11.000  15.012 -0.3102 -0.3227 -0.1555
 9457W        W25266   6.882  16.813  12.960  0.1149 -0.0695  0.4315
 9458W        W25267   6.723   7.165  13.575 -0.0770 -0.2838 -0.2257
 9459W        W25268   9.875  14.394   4.298  0.2656 -0.0964  0.0597
 9460W        W25269  13.060   8.565   4.130  0.0412 -0.3173  0.2383
 9461W        W25270   9.770   1.426  12.746 -0.0207  0.0241  0.2273
 9462W        W25271  17.756   9.774   4.293 -0.0520 -0.0769  0.2818
 9463W        W25272   0.766  11.573   4.458 -0.0188 -0.1488  0.0895
 9464W        W25273   2.793  18.148  11.896  0.1851  0.2746 -0.0079
 9465W        W25274   1.432   4.444  11.261 -0.2415  0.3083  0.0913
 9466W        W25275  18.112  16.312  15.709 -0.1455 -0.0695 -0.4615
 9467W        W25276   1.360  14.927   5.131  0.4926  0.1229 -0.1131
 9468W        W25277   0.467   9.078  11.767  0.1281 -0.0936  0.1678
 9469W        W25278   7.963   9.081   4.738 -0.2554  0.0415  0.2345
 9470W        W25279  12.480   0.993  15.014 -0.1106 -0.0133  0.1374
 9471W        W25280  18.425  12.641   4.035 -0.1028 -0.1293  0.1094
 9472W        W25281  13.740   5.016  13.964 -0.2670 -0.1041 -0.1368
 9473W        W25282  18.370  13.511  14.964 -0.0109  0.0075  0.3185
 9474W        W25283  17.433   0.756   3.859 -0.0542 -0.0475  0.1465
 9475W        W25284   0.922   8.738  12.607  0.0664 -0.0009  0.1040
 9476W        W25285   1.685   6.832   5.601  0.2274  0.1317 -0.1930
 9477W        W25286  12.667   7.509   3.576 -0.2118  0.0466  0.0197
 9478W        W25287   7.098  11.709  13.292  0.0269  0.0027  0.1562
 9479W        W25288   1.673  15.272  10.842  0.0153  0.0051  0.1196
 9480W        W25289   3.846   3.900   2.264  0.0824  0.1830 -0.0515
 9481W        W25290   9.721  15.701   1.659 -0.0277  0.3647  0.2873
 9482W        W25291  17.935  12.667  14.787 -0.0838  0.0148 -0.2186
 9483W        W25292   9.548  13.279  15.363 -0.2387 -0.0840  0.0342
 9484W        W25293   0.659   1.437   1.403 -0.0227  0.3544  0.1483
 9485W        W25294  18.165  16.375   4.466 -0.0231 -0.1720  0.1067
 9486W        W25295   5.610   8.115  11.400 -0.0116 -0.1556  0.1178
 9487W        W25296  11.263   4.799   0.687 -0.0260 -0.0549 -0.1768
 9488W        W25297  13.299  10.147  11.893  0.1983 -0.3224  0.1441
 9489W        W25298   6.375  13.853   4.400 -0.0815  0.0060  0.0880
 9490W        W25299  14.042  18.489   1.051  0.2763  0.1835 -0.3112
 9491W        W25300   8.416   2.881  12.483 -0.0478 -0.2595  0.0602
 9492W        W25301   7.199   4.782  14.289  0.0232  0.3560  0.3495
 9493W        W25302  14.426  16.333   2.756 -0.1165 -0.6029 -0.0327
 9494W        W25303  16.467   5.375   4.342 -0.0961 -0.1214  0.3377
 9495W        W25304  12.195  15.632  12.112 -0.0732 -0.0725  0.1569
 9496W        W25305  15.799   1.842  14.791 -0.2683  0.1490 -0.0173
 9497W        W25306   3.466   3.364   4.287  0.2463  0.2795 -0.3270
 9498W        W25307  15.102   2.653   5.224 -0.2668 -0.0756  0.0235
 9499W        W25308   8.871   1.837  10.833 -0.0241  0.2851 -0.0469
 9500W        W25309  15.292  17.309   4.527  0.0142 -0.0944  0.0203
 9501W        W25310  15.905  13.903   1.317  0.2471 -0.1221 -0.2811
 9502W        W25311   3.141  11.188   3.548 -0.3015  0.1867 -0.1903
 9503W        W25312   6.517   0.866  12.257 -0.0526 -0.0645  0.2265
 9504W        W25313   3.179  12.794  12.951 -0.2133 -0.1039  0.1195
 9505W        W25314   2.447   8.384   3.172  0.2072 -0.0579  0.0706
 9506W        W25315  16.387  13.569  15.605  0.1040  0.0804  0.3362
 9507W        W25316   3.117  16.705   3.574  0.2147 -0.3722 -0.0865
 9508W        W25317   4.997   0.121  11.891 -0.0785 -0.2477 -0.1048
 9509W        W25318   7.555  13.818  11.245  0.2877 -0.0389 -0.3185
 9510W        W25319  11.456  16.107   2.750  0.1807 -0.0566 -0.0759
 9511W        W25320  10.070   7.913  11.723 -0.2957  0.1270  0.0375
 9512W        W25321  16.257   4.628  12.581 -0.2166 -0.1822  0.1372
 9513W        W25322  14.016  12.423  15.209 -0.3890  0.0023  0.5118
 9514W        W25323   1.622  17.676  14.937 -0.2255  0.1190  0.3283
 9515W        W25324   4.459   4.307  11.256 -0.0848  0.0339 -0.0038
 9516W        W25325   7.368  12.706  13.874 -0.0146 -0.0332 -0.1838
 9517W        W25326  13.997   8.829  12.675  0.2131  0.4595  0.1458
 9518W        W25327   1.596  18.120   0.512  0.0556 -0.3842  0.1921
 9519W        W25328   1.025  12.362   1.226 -0.0832 -0.1797 -0.2557
 9520W        W25329  11.248   6.316   2.286  0.0297 -0.0704 -0.4034
 9521W        W25330   0.673   2.631  11.920  0.0271  0.2055  0.0216
 9522W        W25331  14.138  14.618   4.901  0.1306  0.0785 -0.1558
 9523W        W25332  12.198   8.149  15.500  0.1420  0.1572  0.0028
 9524W        W25333  10.346  17.909   1.163 -0.0465  0.2183 -0.1058
 9525W        W25334  16.124   4.672   2.196  0.1887  0.1199  0.1044
 9526W        W25335   7.710   0.137   1.422  0.2742  0.0801  0.0573
 9527W        W25336   5.190  13.223   3.630  0.1212  0.0998 -0.3210
 9528W        W25337  10.413  10.477   0.119 -0.0471  0.1821 -0.0688
 9529W        W25338   5.668  10.240   0.855  0.1229  0.1614 -0.2548
 9530W        W25339  12.343  16.747  12.920 -0.0002  0.2427  0.1631
 9531W        W25340  11.018   3.657   0.543  0.1636 -0.1434  0.1104
 9532W        W25341   7.128  12.687  15.666 -0.0451 -0.2362  0.1483
 9533W        W25342   7.030   1.313  13.450 -0.0980  0.1530 -0.2676
 9534W        W25343   5.668  13.588   4.608  0.1617 -0.1709 -0.0254
 9535W        W25344   3.098   8.688   4.054 -0.0308 -0.3722  0.0441
 9536W        W25345  18.364   3.508   4.538  0.1685  0.2356 -0.5378
 9537W        W25346   5.576   1.909  12.905 -0.1646  0.0123  0.3060
 9538W        W25347   1.782  13.801  14.910 -0.0412 -0.0813 -0.0896
 9539W        W25348   6.032  10.381  10.461  0.0303  0.0751  0.0310
 9540W        W25349   4.927   1.771  13.603 -0.4178 -0.0268  0.0160
 9541W        W25350   8.769   0.988   0.084 -0.1423  0.1283 -0.1315
 9542W        W25351  17.580   0.561   0.961  0.3293 -0.0477  0.1013
 9543W        W25352   3.753  13.782   2.558  0.0204 -0.1125  0.0639
 9544W        W25353   2.922  11.863  13.057  0.1127 -0.1037 -0.0210
 9545W        W25354  12.820   1.049   2.960 -0.0644 -0.0803  0.0875
 9546W        W25355  15.096   8.676  14.014  0.0894  0.3452  0.0812
 9547W        W25356  11.479   9.368   0.926 -0.0060 -0.0467 -0.0646
 9548W        W25357  15.467   1.748  10.246 -0.0163  0.1010 -0.0006
 9549W        W25358  12.665   0.708   2.263  0.3020  0.0227  0.3327
 9550W        W25359  15.046  12.006   3.764  0.0850  0.0901 -0.3080
 9551W        W25360   5.029  15.674  11.554 -0.1351  0.1264 -0.0286
 9552W        W25361   7.730   8.677  11.605 -0.0290 -0.0264 -0.0640
 9553W        W25362   0.688   9.713   0.155  0.0773 -0.0655 -0.4392
 9554W        W25363  12.720  10.012   4.996  0.2185 -0.4552 -0.4706
 9555W        W25364  18.500  15.052  13.962 -0.0596 -0.2373 -0.1412
 9556W        W25365   3.790  15.849   2.088 -0.0418  0.1109  0.2121
 9557W        W25366  16.686   8.521  11.901  0.2223 -0.1540 -0.0771
 9558W        W25367  15.541   3.238   4.715 -0.0878 -0.3618 -0.0189
 9559W        W25368   2.275   8.205   3.734 -0.1902  0.2311 -0.0939
 9560W        W25369  16.347   5.269   2.405 -0.2435 -0.2606 -0.0883
 9561W        W25370   0.840   6.745   1.752 -0.0252 -0.1846 -0.2680
 9562W        W25371  14.231   8.297   3.730 -0.0030  0.0988  0.1119
 9563W        W25372  14.053  18.212  13.184  0.3427  0.5482 -0.0208
 9564W        W25373  13.361   8.898   5.097 -0.1129 -0.2303  0.0886
 9565W        W25374  10.411   0.997   1.667  0.4046 -0.0449  0.2488
 9566W        W25375  12.222  12.123   1.756  0.1380 -0.0378  0.0116
 9567W        W25376   6.979   6.094  11.534 -0.2589  0.1082  0.0678
 9568W        W25377   4.504  13.041   1.104 -0.0450  0.0385 -0.0128
 9569W        W25378  17.243   2.930  11.323 -0.2466 -0.0691  0.2603
 9570W        W25379   0.194  15.380  14.103 -0.2713 -0.0590  0.0280
 9571W        W25380  11.323   2.948  14.991  0.1706 -0.0214  0.0065
 9572W        W25381  12.010  12.981   0.123 -0.2927 -0.1424 -0.3680
 9573W        W25382  15.273   1.855   4.540  0.3463  0.1095  0.2915
 9574W        W25383   8.324   7.166   0.094 -0.0355  0.1438  0.0655
 9575W        W25384  17.339   1.254  10.399 -0.2850  0.0116 -0.0079
 9576W        W25385  15.582   2.659  11.663 -0.0484  0.1053  0.0323
 9577W        W25386  14.353   7.877  14.254  0.4596  0.2091  0.4372
 9578W        W25387  11.442  11.874  10.833 -0.1390 -0.0788 -0.3351
 9579W        W25388  13.315   1.677  14.130 -0.2177  0.1499  0.0088
 9580W        W25389   6.304   3.152  11.606 -0.0093  0.2217 -0.0219
 9581W        W25390  18.432   6.132  12.032 -0.2530 -0.0743  0.0131
 9582W        W25391   3.537  11.466  13.336 -0.0919 -0.4204 -0.1677
 9583W        W25392   5.290  17.119  10.644 -0.2212  0.3597 -0.3622
 9584W        W25393  13.621   2.725  13.341  0.1752  0.2107  0.2376
 9585W        W25394   7.003  12.507   0.449 -0.2218 -0.0539 -0.1488
 9586W        W25395  13.385   9.717  12.160  0.0829 -0.2632 -0.1167
 9587W        W25396  10.661   5.543  13.377 -0.2817 -0.0003 -0.1138
 9588W        W25397  15.091  17.121   3.744  0.1331  0.2097  0.0929
 9589W        W25398   6.171   9.947   0.184 -0.2749  0.0740  0.1040
 9590W        W25399   7.424   5.965   0.362 -0.3222 -0.0630 -0.1139
 9591W        W25400  15.420  13.656   3.001  0.1730 -0.0728  0.0453
 9592W        W25401   9.075  16.352  15.224 -0.1600  0.0856  0.0261
 9593W        W25402   7.009   6.710   2.519 -0.0365  0.1685 -0.3605
 9594W        W25403   2.517  14.221   5.544  0.0207  0.0612  0.2110
 9595W        W25404  11.020   3.375   1.499  0.1143  0.2268 -0.3835
 9596W        W25405  17.687  16.996   3.723  0.1130  0.0871 -0.1132
 9597W        W25406  17.427  12.333  12.807 -0.2001 -0.0805  0.0234
 9598W        W25407   8.608  11.691   0.759 -0.0492  0.1663 -0.0164
 9599W        W25408   3.885  17.738   4.330 -0.1852  0.1411  0.1566
 9600W        W25409  17.351   7.966   3.610  0.0859  0.2693  0.2600
 9601W        W25410  15.429   3.262  12.077  0.0479  0.1473 -0.2531
 9602W        W25411  13.627   1.143   0.565 -0.1572  0.0098  0.1056
 9603W        W25412   1.876   2.721   4.435 -0.1643 -0.4320  0.1823
 9604W        W25413   8.614  15.417   3.790  0.0562  0.0345 -0.1498
 9605W        W25414   4.802  13.672  12.422  0.0454  0.0498  0.5338
 9606W        W25415   0.280   3.668   4.369  0.2424  0.0435 -0.0472
 9607W        W25416  10.760   2.241   2.808  0.1469 -0.1122  0.0015
 9608W        W25417   7.669  15.519   2.714 -0.0321 -0.1528  0.1391
 9609W        W25418  16.973  12.220  12.085 -0.0231 -0.0271  0.0682
 9610W        W25419  13.647   9.086   5.954 -0.2519  0.0310 -0.1693
 9611W        W25420  11.199   5.117   2.687  0.1157 -0.2024  0.0798
 9612W        W25421   5.447  15.656  15.683  0.1986  0.4308  0.1190
 9613W        W25422   9.696   0.115  12.901 -0.0825  0.2270 -0.0408
 9614W        W25423   8.887  17.019   1.120  0.2134  0.0944 -0.1314
 9615W        W25424   4.227  10.116   0.555 -0.3164 -0.0342  0.0847
 9616W        W25425   9.131   3.372   0.117  0.0506 -0.0645 -0.2358
 9617W        W25426   8.402   2.289   3.617  0.2472  0.2596 -0.1019
 9618W        W25427   7.350   2.398  13.560  0.0645 -0.3950  0.0192
 9619W        W25428   9.236   0.777  11.770  0.0300 -0.0767 -0.1753
 9620W        W25429  15.447   3.209  14.924  0.1748  0.4221  0.0581
 9621W        W25430   9.472   3.198  13.551  0.0416  0.2840 -0.3309
 9622W        W25431   6.622   9.225  14.606 -0.0165  0.2832  0.0397
 9623W        W25432   0.397  15.030  12.665 -0.3048  0.1822  0.1359
 9624W        W25433   3.712   9.856   2.344  0.1581  0.2826  0.0792
 9625W        W25434  18.213  10.543  14.492  0.2888  0.0177  0.1773
 9626W        W25435   3.132  13.961  14.849 -0.0689  0.1302  0.3868
 9627W        W25436  11.181   6.556  11.639 -0.0354 -0.0258  0.0672
 9628W        W25437   1.174   9.781   4.601 -0.0376  0.0596  0.0669
 9629W        W25438  10.844   0.197   4.425 -0.4562 -0.0317 -0.1291
 9630W        W25439   0.785   2.536   1.209  0.2321  0.0365  0.1323
 9631W        W25440   1.653  14.837   2.872 -0.0477  0.1178 -0.1620
 9632W        W25441  12.969  15.208   1.005 -0.2394 -0.0627 -0.2104
 9633W        W25442  15.676   7.853  13.509 -0.0049  0.1694  0.0285
 9634W        W25443   0.575  15.200   3.572  0.2882  0.1245  0.1060
 9635W        W25444  10.761   4.075   2.642  0.1232 -0.2182  0.2237
 9636W        W25445  12.282  12.013   5.293  0.0777 -0.3279  0.0502
 9637W        W25446   2.754   4.487  14.219 -0.1101  0.0735  0.4208
 9638W        W25447  16.028  16.524   3.006  0.0731  0.4123 -0.1977
 9639W        W25448   2.879   7.387   3.147 -0.1965  0.2167 -0.1184
 9640W        W25449   6.673   8.720   0.246  0.0166  0.3923  0.1958
 9641W        W25450  13.133   1.402  10.987  0.0565 -0.0971 -0.1887
 9642W        W25451  15.142   8.741   5.258  0.0638  0.0229  0.0553
 9643W        W25452   0.610   5.908  13.182 -0.2302  0.2104 -0.0159
 9644W        W25453   8.311   6.402   2.773  0.0831 -0.1355 -0.2550
 9645W        W25454  12.116  11.947   3.457 -0.0167 -0.1267 -0.0020
 9646W        W25455  14.764   8.796   6.150  0.1021  0.0522  0.0663
 9647W        W25456   2.173   5.242   0.399 -0.1601  0.0399  0.1618
 9648W        W25457   3.252   8.182   3.899 -0.4766  0.0394  0.3830
 9649W        W25458  15.148   4.948  13.724 -0.0432  0.0930 -0.3130
 9650W        W25459  13.614   5.464   3.737 -0.1348 -0.3211 -0.1085
 9651W        W25460   8.912   5.803  12.314  0.1843 -0.1199  0.0851
 9652W        W25461   1.386   1.151   4.043 -0.2820  0.4781 -0.2870
 9653W        W25462   8.249   1.941   2.181  0.1313  0.2058 -0.0375
 9654W        W25463   4.665  14.946   0.073  0.0642  0.0026  0.1944
 9655W        W25464   3.998  11.416   2.196  0.1431  0.0451 -0.1786
 9656W        W25465   5.467   1.000   4.969  0.1790  0.1220  0.0449
 9657W        W25466  12.219   5.725   2.032  0.0580 -0.3666 -0.0354
 9658W        W25467  14.844   7.993   0.105 -0.1271 -0.2074 -0.2427
 9659W        W25468   5.071   6.571   0.177  0.0953  0.1598  0.0359
 9660W        W25469  10.756   4.386   0.013  0.3420 -0.0866 -0.2240
 9661W        W25470  16.524   2.767   3.447 -0.1834 -0.2826 -0.1894
 9662W        W25471   9.777   8.576  14.334 -0.1695  0.0050  0.2084
 9663W        W25472  16.041   0.669   3.198  0.2520 -0.1096 -0.1417
 9664W        W25473  12.940   1.162   1.762  0.2389 -0.2057 -0.1512
 9665W        W25474  13.887  14.982  14.870 -0.1938  0.2765 -0.6541
 9666W        W25475   6.709   8.198  12.494 -0.3148  0.3663  0.1074
 9667W        W25476   2.932  15.605  15.468 -0.2164 -0.2804 -0.1603
 9668W        W25477  17.478   8.486   2.400 -0.1130 -0.0324 -0.2882
 9669W        W25478  18.129  12.847   2.431  0.0787  0.0211 -0.1063
 9670W        W25479   9.544   8.765  12.548 -0.3112 -0.1546  0.0779
 9671W        W25480   2.609  11.771  13.414  0.3422  0.1184  0.1232
 9672W        W25481  13.387   6.898   4.742  0.2958 -0.0564  0.0192
 9673W        W25482   1.047   8.774   1.058  0.2791  0.1171 -0.1676
 9674W        W25483   5.885   5.662  13.340  0.1946 -0.3301 -0.2508
 9675W        W25484   2.158  17.689  14.229 -0.4441  0.0147  0.1409
 9676W        W25485   0.865   9.406  11.997 -0.1272 -0.0376 -0.1306
 9677W        W25486  11.541   9.328  11.772 -0.4606 -0.2258 -0.0892
 9678W        W25487   1.483   4.150  13.395  0.0194 -0.2378 -0.0147
 9679W        W25488  10.189  13.775  12.475  0.1137  0.3061  0.2367
 9680W        W25489   4.770  13.595   1.878 -0.2172  0.3896  0.1356
 9681W        W25490  10.495   4.416   0.777  0.2575  0.3442  0.1548
 9682W        W25491   4.280   1.989   2.035 -0.1474 -0.1389 -0.0172
 9683W        W25492   9.557   7.888  11.301  0.1125  0.2070  0.0828
 9684W        W25493   9.641   0.615  14.359 -0.1115  0.1706 -0.0566
 9685W        W25494   4.038   6.917   0.693 -0.1005  0.3197 -0.1916
 9686W        W25495  12.331   8.378  11.165  0.5230  0.0964  0.1646
 9687W        W25496  14.800  11.068  14.270  0.1117 -0.2812 -0.0258
 9688W        W25497   1.832   5.946   1.169  0.0059  0.1250 -0.2114
 9689W        W25498  12.826  16.686  12.513  0.2870  0.3011 -0.0398
 9690W        W25499  14.757  10.899   1.712  0.1546 -0.2527 -0.2805
 9691W        W25500  12.576  16.658   0.720  0.0731  0.0684  0.2341
 9692W        W25501  17.677   8.391   5.020  0.0934 -0.1683 -0.0595
 9693W        W25502   9.327   4.866  14.195 -0.0036 -0.3517 -0.2102
 9694W        W25503   3.206   1.986   3.468  0.0852 -0.4378  0.1987
 9695W        W25504   1.689  13.789  12.005 -0.2357  0.1447 -0.2262
 9696W        W25505   7.933   5.713   2.855  0.0181 -0.1967 -0.0159
 9697W        W25506   6.048  15.708   3.054  0.0631 -0.1799 -0.3650
 9698W        W25507  12.671   3.045  15.393 -0.2185 -0.1375 -0.2315
 9699W        W25508   6.480  16.130  11.314  0.0201 -0.0679 -0.0609
 9700W        W25509   4.328  11.752  14.880  0.2434 -0.0705 -0.0802
 9701W        W25510   3.193  12.002   1.592  0.4062 -0.0027 -0.1802
 9702W        W25511   3.668   9.711  14.098 -0.1075  0.0660  0.0239
 9703W        W25512  16.012   6.631   2.245  0.2603 -0.1925  0.0101
 9704W        W25513  15.993  14.318   1.045  0.1078  0.1545 -0.1858
 9705W        W25514   3.414  10.085   2.842  0.2373  0.0879 -0.2730
 9706W        W25515   0.782  18.040  15.279 -0.2553 -0.1019 -0.1714
 9707W        W25516   9.215  16.555  14.350 -0.0173 -0.2076 -0.1952
 9708W        W25517  13.505   6.641   2.376 -0.3342 -0.2265  0.1590
 9709W        W25518   0.525   1.997  12.628 -0.1880  0.0231 -0.2932
 9710W        W25519   1.928   4.652   1.783 -0.1024 -0.0900  0.2199
 9711W        W25520  13.992  12.479   1.483  0.0674  0.2324 -0.1813
 9712W        W25521  18.433  16.757   3.770 -0.4060 -0.0148 -0.2985
 9713W        W25522   7.872  14.127  11.589  0.3149  0.1142 -0.3340
 9714W        W25523   0.758  11.265  11.257  0.2311  0.1516  0.3817
 9715W        W25524  15.057  10.390  13.269  0.1443 -0.1286 -0.1538
 9716W        W25525   5.038   0.658   1.922 -0.0083  0.0911 -0.0339
 9717W        W25526  12.918  12.123  14.678 -0.0881 -0.0905 -0.2776
 9718W        W25527  11.257   6.790  12.985 -0.2113  0.4026 -0.1862
 9719W        W25528  12.486  12.714   1.882 -0.0767 -0.0863  0.0986
 9720W        W25529  13.857   0.633   3.643 -0.1439  0.1174 -0.1034
 9721W        W25530   3.181   0.373   3.720 -0.2099 -0.1461 -0.3263
 9722W        W25531   1.851   0.557   4.662 -0.4096 -0.2263  0.1131
 9723W        W25532  14.442   0.727  12.978 -0.1709 -0.1243 -0.3249
 9724W        W25533  12.318   9.213  12.653  0.0442 -0.2686  0.3073
 9725W        W25534  10.543   6.014  13.481  0.0774  0.0068  0.0229
 9726W        W25535   3.713  18.103   3.782 -0.0968 -0.1591 -0.0455
 9727W        W25536   6.771  10.014  12.650 -0.2303  0.0342 -0.3159
 9728W        W25537  17.014  16.684   4.755 -0.0007  0.0625  0.2172
 9729W        W25538   7.803  16.051   0.650 -0.0972 -0.3300 -0.0493
 9730W        W25539  10.928   7.654   4.726 -0.1020 -0.0300 -0.0668
 9731W        W25540  14.900  17.627   3.347 -0.0474  0.0208 -0.1765
 9732W        W25541  12.750   4.351   0.990 -0.0008  0.2154 -0.1242
 9733W        W25542   8.533  16.431  10.698  0.0864  0.0531 -0.3902
 9734W        W25543  16.941  15.687  12.018 -0.1940  0.1425 -0.0232
 9735W        W25544  15.290   5.532  14.917  0.0574  0.0825 -0.2217
 9736W        W25545   0.386   9.582   3.573 -0.0323 -0.0914 -0.1361
 9737W        W25546  14.186   9.835  14.435  0.1020 -0.2710 -0.1199
 9738W        W25547   2.893   6.404  12.212 -0.1613  0.0955  0.1561
 9739W        W25548   9.327  13.246   1.525 -0.0136  0.3165 -0.3367
 9740W        W25549  10.632  11.405   0.776 -0.0434 -0.1646 -0.0511
 9741W        W25550  14.587   4.346  12.569  0.1167 -0.1943  0.1637
 9742W        W25551   2.184  15.897   0.129 -0.1704 -0.3878  0.2282
 9743W        W25552  14.724   0.596  12.344  0.0189  0.0616  0.1029
 9744W        W25553   1.691  16.879   3.631  0.1616 -0.1854  0.1941
 9745W        W25554  17.020   4.450  10.582  0.1691 -0.2542  0.3173
 9746W        W25555  11.890  14.967  10.094  0.2297 -0.0215 -0.1604
 9747W        W25556  13.110  15.601   0.661  0.0065  0.1114 -0.1028
 9748W        W25557  10.224  13.837   3.232 -0.1877  0.0807 -0.1617
 9749W        W25558   4.140   1.920  14.179 -0.1068  0.1110  0.0622
 9750W        W25559  17.896   1.806   3.418  0.1334  0.1171 -0.2475
 9751W        W25560   3.878   0.635  13.855 -0.0482  0.0789 -0.0524
 9752W        W25561   8.992   9.121  11.294 -0.1159 -0.1575  0.3310
 9753W        W25562   8.236   9.374   4.397  0.2775  0.1582 -0.1387
 9754W        W25563   1.087   6.287  14.607 -0.2139  0.1363  0.0168
 9755W        W25564  15.839  11.887  15.689  0.0139  0.1955 -0.1867
 9756W        W25565  15.111   3.678   0.800  0.0927  0.0843  0.1675
 9757W        W25566   5.396  13.676   3.597  0.4559  0.1932 -0.1437
 9758W        W25567   4.583  14.395  11.490 -0.2731 -0.1503 -0.1340
 9759W        W25568  10.983   9.408  12.471  0.2290  0.3412  0.0247
 9760W        W25569  16.016  13.007   2.590 -0.0427  0.0700 -0.0099
 9761W        W25570   0.081  10.909   6.037  0.0983  0.1950  0.2812
 9762W        W25571   1.101  11.788  12.737  0.0153 -0.4022  0.2146
 9763W        W25572   0.584   5.802   3.372  0.2641 -0.1267  0.0766
 9764W        W25573  15.697  16.027   1.022  0.0737  0.0883 -0.1829
 9765W        W25574   0.124   9.173  13.061  0.3062  0.0659  0.0694
 9766W        W25575   6.259  18.664  15.090  0.0648  0.0956 -0.1288
 9767W        W25576  13.581  17.907   4.460  0.1417 -0.0827  0.1971
 9768W        W25577  17.475   6.559  11.859  0.0371  0.1012 -0.2296
 9769W        W25578   9.843   8.312  10.899  0.1354  0.1072  0.0996
 9770W        W25579  10.615  18.089   4.066 -0.0908 -0.1839  0.1512
 9771W        W25580   1.237  11.148  13.384 -0.0637  0.0380  0.0398
 9772W        W25581   3.547   2.981  15.661  0.0902  0.0312 -0.0957
 9773W        W25582  15.997   1.890  11.692 -0.0040  0.0771 -0.7321
 9774W        W25583   3.263   2.610  10.985  0.0217 -0.2893 -0.0759
 9775W        W25584   2.875   2.991  11.197 -0.1458 -0.0682 -0.2595
 9776W        W25585   6.821   7.960  11.726  0.0736  0.2548 -0.1881
 9777W        W25586  11.337   7.622   2.990  0.4751  0.1208  0.4581
 9778W        W25587  18.134   8.630   6.155 -0.2790  0.0892 -0.0734
 9779W        W25588  13.783  17.138  14.590 -0.1943 -0.1393 -0.0627
 9780W        W25589  15.990   6.083  15.162  0.0362  0.0574  0.0509
 9781W        W25590   4.534   2.618  14.824 -0.1461  0.0303 -0.0129
 9782W        W25591  16.366   8.864   4.773 -0.2184  0.3164 -0.1299
 9783W        W25592   3.118   4.820   3.271 -0.2833 -0.0729  0.0852
 9784W        W25593   9.718   7.161  14.061  0.3076  0.2224  0.0139
 9785W        W25594  17.079   0.192   1.761 -0.1082  0.0815 -0.1885
 9786W        W25595  15.999   8.121  13.827 -0.2612  0.0335 -0.1309
 9787W        W25596   1.558  13.979  13.913 -0.0646 -0.1372  0.1008
 9788W        W25597  17.349   4.345  13.182 -0.2421 -0.1021 -0.0677
 9789W        W25598   9.573   8.770  13.216 -0.5147  0.2686  0.0652
 9790W        W25599  10.196   7.602   1.758 -0.0129 -0.3224 -0.1286
 9791W        W25600  14.061  15.824   0.498 -0.2114  0.4392  0.1679
 9792W        W25601  12.675   4.510  10.914  0.2448 -0.1828 -0.0656
 9793W        W25602   1.433   5.664   1.122 -0.1905 -0.0058 -0.0322
 9794W        W25603   9.276  16.764  15.484 -0.0477  0.0563  0.1067
 9795W        W25604   7.161  18.192   1.647 -0.1406  0.1949 -0.0167
 9796W        W25605  16.656   3.117  11.943 -0.0675  0.0712 -0.1387
 9797W        W25606   9.728  15.682   0.359  0.0864  0.2609  0.0233
 9798W        W25607  10.674   6.717   0.260 -0.3433 -0.1931  0.0351
 9799W        W25608   2.136  18.649  10.501 -0.1564 -0.2741  0.3528
 9800W        W25609  12.582  12.308  14.999 -0.1503 -0.1127 -0.1069
 9801W        W25610  11.783  12.175   1.507  0.0244  0.3049 -0.1793
 9802W        W25611   2.819   6.883   1.410 -0.3338 -0.1756  0.3191
 9803W        W25612   7.424   6.564  15.353  0.1367  0.2733  0.1145
 9804W        W25613  16.933  17.053   1.760 -0.0628  0.1387  0.1043
 9805W        W25614  10.501  15.585   4.761  0.0448 -0.4011  0.1590
 9806W        W25615   7.081   5.328   4.018 -0.3019 -0.0535 -0.2465
 9807W        W25616  18.388   4.984  13.222  0.3161 -0.0343 -0.0870
 9808W        W25617  10.055  17.379  10.896  0.2806 -0.1304  0.2685
 9809W        W25618   2.777  14.334  13.205 -0.1914  0.0163 -0.0290
 9810W        W25619   1.034   4.598  13.416 -0.1385  0.1423  0.1442
 9811W        W25620   8.560   6.859   2.543 -0.2197  0.0113 -0.4455
 9812W        W25621   3.623   5.085   3.313 -0.0392 -0.1502  0.1096
 9813W        W25622  17.265  17.569   1.768  0.3972 -0.0558 -0.0813
 9814W        W25623   0.181   9.025  13.588 -0.2027 -0.1416  0.1638
 9815W        W25624  13.307   3.029  12.555  0.2591  0.2884  0.1030
 9816W        W25625  13.214   5.093   9.931  0.2306 -0.0146  0.1905
 9817W        W25626   9.772  15.851  14.137  0.3159  0.0412 -0.1725
 9818W        W25627  13.277   7.858   5.109 -0.3078 -0.0690  0.0717
 9819W        W25628   6.562  15.458  14.824  0.0067 -0.1575  0.0931
 9820W        W25629   1.510   0.465  14.576  0.1274 -0.0950 -0.1735
 9821W        W25630   6.352   6.964  12.471  0.2145  0.2745 -0.1294
 9822W        W25631  13.140   7.400  11.725  0.0695 -0.2224  0.1738
 9823W        W25632   8.599  17.158   1.616 -0.0130 -0.3384 -0.1684
 9824W        W25633  16.768   9.378  10.435  0.0308 -0.0154 -0.0003
 9825W        W25634   4.032   5.963  14.741  0.2725 -0.0317  0.1672
 9826W        W25635  16.116  15.147  13.353 -0.1239  0.0153  0.2015
 9827W        W25636  12.025   9.366   5.994  0.0782 -0.1562  0.3070
 9828W        W25637   3.936  17.550   1.258 -0.0784 -0.0512  0.0428
 9829W        W25638   2.679  13.270  10.721 -0.0865 -0.3635 -0.0176
 9830W        W25639   4.571   2.075  13.799 -0.0456  0.0489  0.0381
 9831W        W25640  15.617   8.347   0.209  0.5470  0.0392 -0.0091
 9832W        W25641  14.046  10.950  13.974 -0.0065  0.0342  0.2306
 9833W        W25642   3.404   6.109   5.169 -0.1722  0.0918 -0.3328
 9834W        W25643   6.259  11.361  15.667  0.3156 -0.0719 -0.0985
 9835W        W25644   9.777  10.051  11.680  0.3959  0.2232  0.1998
 9836W        W25645  12.858   3.005  14.802  0.1002  0.1894  0.1631
 9837W        W25646  16.909   2.104  14.397  0.2110  0.2546 -0.1232
 9838W        W25647  11.830  16.809  14.885 -0.0183  0.3418 -0.1271
 9839W        W25648   2.942  14.046  12.424 -0.2749  0.0314 -0.0944
 9840W        W25649   4.707   7.148  12.152  0.2556  0.0236 -0.1209
 9841W        W25650  12.344   4.174   5.954 -0.1284 -0.4290 -0.2496
 9842W        W25651  15.660  13.613   1.998 -0.1334 -0.0575 -0.0931
 9843W        W25652  12.377  17.633  13.114 -0.0421  0.3023  0.1015
 9844W        W25653  13.951  18.541   3.404 -0.0143  0.0288  0.1441
 9845W        W25654  18.315  12.109  15.367  0.0996  0.0986  0.0654
 9846W        W25655  15.019  11.786  15.637 -0.1312 -0.1297  0.0489
 9847W        W25656  11.078   8.464  14.367 -0.1609  0.2578  0.1089
 9848W        W25657  15.397  12.088   0.639 -0.0055  0.0655 -0.0862
 9849W        W25658   6.156   6.690   2.129 -0.1252 -0.3452  0.0161
 9850W        W25659  15.931  16.660   3.585  0.0295 -0.3342 -0.1416
 9851W        W25660  16.267  16.178   0.236 -0.2365 -0.0712  0.0459
 9852W        W25661  11.102   0.235  15.608  0.0429  0.1549 -0.1589
 9853W        W25662   1.446  17.682   0.244 -0.1827 -0.1477 -0.1949
 9854W        W25663   7.409  16.923   3.814 -0.1374  0.2840  0.2445
 9855W        W25664   9.308   1.628   2.756 -0.1682  0.2220 -0.5818
 9856W        W25665  14.593   8.061   5.235  0.0451  0.3907 -0.4082
 9857W        W25666   0.076  12.639  10.938  0.0855  0.1680 -0.2130
 9858W        W25667  18.433   7.017   4.613 -0.0676  0.0391 -0.0181
 9859W        W25668   2.730   0.705  11.631 -0.2833 -0.0187  0.0032
 9860W        W25669  13.834   7.527  12.542 -0.0939 -0.0753 -0.0201
 9861W        W25670  12.225   3.770   5.194 -0.4856 -0.1175  0.2099
 9862W        W25671   9.661   4.884   3.889 -0.1752 -0.0398  0.0344
 9863W        W25672   1.940  16.802   1.725  0.1024  0.0113 -0.0912
 9864W        W25673   3.767   9.995  14.789 -0.0262 -0.1556  0.1445
 9865W        W25674   5.863   0.081  14.183 -0.2532 -0.0400 -0.0812
 9866W        W25675  10.765  16.892   4.968  0.0420 -0.3039  0.1053
 9867W        W25676   6.410   5.243  12.751 -0.0152 -0.0509  0.1950
 9868W        W25677   9.748   3.893   5.671 -0.1493  0.1825  0.0298
 9869W        W25678   8.301   6.728   1.138  0.1008 -0.0734  0.1153
 9870W        W25679   1.910  13.838  11.467  0.4468 -0.0066  0.1326
 9871W        W25680  10.565   0.216  13.577 -0.0934 -0.0070  0.0399
 9872W        W25681   1.401  10.661  11.758 -0.2617  0.0716 -0.2306
 9873W        W25682  12.439   8.859  15.057 -0.1057  0.0948  0.0924
 9874W        W25683  14.421  11.813   2.212  0.1797  0.2186  0.0704
 9875W        W25684   0.080   5.891   5.557 -0.1161 -0.0955 -0.1019
 9876W        W25685  13.525  16.950   0.722  0.2397 -0.2964  0.0967
 9877W        W25686   0.940   0.245  15.388  0.3059 -0.0044 -0.2596
 9878W        W25687  15.674  10.629   0.057  0.1519 -0.2066 -0.2226
 9879W        W25688  18.390   0.353   3.937  0.1763 -0.0655 -0.1648
 9880W        W25689  16.756   5.017   0.870  0.3628 -0.1810  0.1967
 9881W        W25690   2.026  16.597  12.848 -0.3816 -0.2420  0.0871
 9882W        W25691   5.525   4.617   5.108 -0.0370  0.2776  0.2154
 9883W        W25692  18.211   9.906  14.825 -0.0865 -0.3901  0.0331
 9884W        W25693  17.195  17.850   5.711 -0.3383 -0.1452 -0.4365
 9885W        W25694  16.208   3.167   3.357 -0.0724  0.2941 -0.1468
 9886W        W25695   3.181  15.323   2.042  0.3135  0.3241 -0.0200
 9887W        W25696   1.293  12.663   0.939 -0.1328 -0.1799 -0.2440
 9888W        W25697   7.289  15.356   9.652  0.1550 -0.1714  0.1093
 9889W        W25698   7.438   8.915   5.379 -0.1271 -0.0949  0.0640
 9890W        W25699   3.711   3.968  13.583  0.0088 -0.2243 -0.0300
 9891W        W25700   7.634   5.656  11.802 -0.0582 -0.0147 -0.1820
 9892W        W25701  17.267  17.951   0.476  0.3325 -0.2025 -0.0277
 9893W        W25702  15.837  14.767   3.802 -0.3397  0.0680  0.3905
 9894W        W25703   9.272   7.773   3.073 -0.1632 -0.1618  0.3526
 9895W        W25704   3.481   8.817   1.689  0.0446 -0.0705 -0.0206
 9896W        W25705  17.789  11.787  12.014 -0.0751  0.1806  0.4995
 9897W        W25706   7.354  13.742  14.829  0.1155 -0.1382 -0.0412
 9898W        W25707   1.305  10.469  12.752 -0.4184 -0.0458  0.1816
 9899W        W25708  10.124   8.679   3.663  0.0346  0.0347  0.0270
 9900W        W25709   2.690   8.496  14.704 -0.0321  0.2276  0.2399
 9901W        W25710   6.157  11.310  14.747 -0.2618 -0.3297 -0.1265
 9902W        W25711  14.851  12.022  15.161 -0.2729  0.1069  0.1160
 9903W        W25712   8.555  13.986   0.481  0.1393 -0.2580 -0.2234
 9904W        W25713   0.516   0.617   1.367 -0.3241 -0.0874  0.1830
 9905W        W25714  17.751   0.668   2.862 -0.1303  0.1820 -0.1524
 9906W        W25715  13.509  18.399   4.172 -0.1096 -0.0159 -0.0673
 9907W        W25716   8.172  18.282   5.329 -0.0132  0.6061  0.2803
 9908W        W25717  12.011  13.271  12.344 -0.0843  0.1617 -0.3151
 9909W        W25718   7.076   6.217   2.516  0.0297 -0.1348  0.0520
 9910W        W25719  16.169  13.187  13.176 -0.2022  0.1112  0.1275
 9911W        W25720  17.429  12.079   0.031 -0.1123  0.0788 -0.0983
 9912W        W25721  12.973   3.926  15.746  0.0276 -0.0495  0.0647
 9913W        W25722  12.178  15.319   4.381 -0.1076 -0.0297 -0.1518
 9914W        W25723   2.757   0.383  14.586  0.2446  0.1809  0.0816
 9915W        W25724   7.303  15.695   0.926 -0.0560  0.3299 -0.2489
 9916W        W25725   6.129   3.846   5.093 -0.0877  0.2010  0.0699
 9917W        W25726   2.677  18.356  12.720  0.2615  0.0847 -0.1417
 9918W        W25727  12.585  16.328  12.789  0.0371  0.0843 -0.1786
 9919W        W25728  18.195  12.745  15.263 -0.0502 -0.1257 -0.1904
 9920W        W25729  11.602   1.916  13.508 -0.0691  0.1317  0.0376
 9921W        W25730  17.526  14.400   5.612 -0.1441  0.1332  0.2159
 9922W        W25731  17.628  18.582  15.566  0.1118  0.2172  0.0197
 9923W        W25732  17.764  18.012   4.768  0.0771 -0.2244 -0.2583
 9924W        W25733   7.070   0.378   3.349  0.0991 -0.0072  0.2560
 9925W        W25734  13.516  10.648   2.017 -0.0877  0.2338 -0.0639
 9926W        W25735   2.494   4.459   5.272  0.0118 -0.1122 -0.2041
 9927W        W25736  13.113  13.410  11.083 -0.3072 -0.1426 -0.0343
 9928W        W25737   4.497   6.299   5.353 -0.3373 -0.0009  0.3187
 9929W        W25738   0.175  18.187  15.610 -0.1287 -0.0142  0.0252
 9930W        W25739  18.533  13.895   3.763  0.0280  0.0589  0.0382
 9931W        W25740  13.149  11.448  14.098  0.2036  0.2983  0.0275
 9932W        W25741   5.984   1.376  11.433 -0.0512 -0.0408 -0.0837
 9933W        W25742   5.696   3.633   0.051  0.1422  0.1358 -0.1491
 9934W        W25743   1.758  11.964  10.214  0.0339 -0.4730 -0.1098
 9935W        W25744   6.697   4.301   3.393 -0.0394 -0.0645  0.0199
 9936W        W25745  12.980  17.436  14.996 -0.1313  0.0604  0.0081
 9937W        W25746   5.226  11.117   5.327 -0.1768 -0.0776 -0.0135
 9938W        W25747  14.803  15.332  14.845  0.2912 -0.2555  0.1399
 9939W        W25748  11.222  12.552  14.303  0.0508  0.0381 -0.1616
 9940W        W25749   6.835   2.184  15.610 -0.0924 -0.1785 -0.2728
 9941W        W25750   4.052   2.840   9.814 -0.0270  0.0474 -0.0245
 9942W        W25751   9.980  10.538   1.855 -0.0718 -0.0259  0.1109
 9943W        W25752   7.893   4.783   1.280 -0.0369  0.2545 -0.0352
 9944W        W25753   1.126  16.573  10.942 -0.0081  0.2188  0.3460
 9945W        W25754   4.444  15.960   3.227  0.1514  0.0091 -0.1400
 9946W        W25755   6.099   5.326  13.776  0.2949  0.1407 -0.1334
 9947W        W25756  11.631  17.102  12.934 -0.0194 -0.1156 -0.3597
 9948W        W25757   4.678   8.918  13.106 -0.2793 -0.0977 -0.2614
 9949W        W25758   6.036   1.198  12.485  0.0287  0.3002  0.2181
 9950W        W25759   2.531   4.406  12.977 -0.0242 -0.2299  0.3484
 9951W        W25760  18.078  11.676   3.967 -0.0728 -0.3699 -0.0932
 9952W        W25761  12.392  13.572   3.931  0.5134 -0.0194 -0.4260
 9953W        W25762   8.433  13.801   4.078 -0.0028  0.2344  0.0241
 9954W        W25763  11.698  15.070  11.473 -0.1941  0.2475  0.1000
 9955W        W25764  11.363   4.676   4.404 -0.1101 -0.0459 -0.0041
 9956W        W25765   0.529  14.671  11.257  0.1974 -0.0414 -0.2742
 9957W        W25766  12.497  14.421  10.424  0.1697  0.1808  0.1304
 9958W        W25767   3.380   7.415  13.490  0.1261 -0.1388 -0.1423
 9959W        W25768  15.328  13.382   3.681  0.1213 -0.1753 -0.0872
 9960W        W25769  15.239   1.663  14.843  0.2726  0.0895 -0.1146
 9961W        W25770   1.655   6.593  13.156 -0.2402  0.0238  0.1740
 9962W        W25771   2.193   9.586  13.500  0.1382  0.2398 -0.2100
 9963W        W25772  13.787  13.927  12.134  0.2085  0.4288 -0.1756
 9964W        W25773  15.132   7.576   2.914  0.0023 -0.2180  0.0904
 9965W        W25774  17.532   6.276   0.459 -0.3697 -0.2745  0.2045
 9966W        W25775  11.845  14.524   1.359  0.4023 -0.1334  0.2333
 9967W        W25776   5.970   5.776   4.243 -0.5075  0.0573 -0.1747
 9968W        W25777   0.263  14.551  12.685 -0.1509  0.0932  0.0403
 9969W        W25778   7.172   9.984   3.582 -0.1879 -0.2076  0.2275
 9970W        W25779   8.314  15.713   4.099 -0.2395 -0.1031  0.0376
 9971W        W25780  12.662  12.454  11.158  0.1013  0.0382 -0.1092
 9972W        W25781   9.640   5.346   2.090 -0.0116  0.0269 -0.0158
 9973W        W25782  11.395   7.739   0.543  0.2642 -0.2193 -0.2469
 9974W        W25783   5.840   3.337   1.393  0.0392  0.3739 -0.1517
 9975W        W25784  17.131   7.305   4.691  0.1859 -0.1479 -0.2428
 9976W        W25785   4.444  12.914  10.952 -0.0946 -0.0447 -0.0704
 9977W        W25786   2.953   3.909  15.670 -0.1155 -0.1650 -0.0248
 9978W        W25787  18.251   9.482  14.543 -0.1967 -0.0240 -0.0736
 9979W        W25788   4.462  13.257  12.288  0.1358  0.0976  0.0950
 9980W        W25789   0.423   7.967  14.555 -0.2190 -0.2090 -0.0753
 9981W        W25790  13.824   0.704   0.813 -0.0564  0.1488  0.1089
 9982W        W25791  15.146  14.052  14.639  0.0368  0.0103 -0.6550
 9983W        W25792  14.350  10.349  13.731  0.1463 -0.1426  0.1384
 9984W        W25793   7.235  14.377   4.730  0.0296 -0.0854 -0.0290
 9985W        W25794  17.274   5.380  11.617 -0.0725  0.0903 -0.2160
 9986W        W25795   4.150   3.265   1.791 -0.1611  0.0148  0.4013
 9987W        W25796  12.269   6.667  15.667  0.0024 -0.2342  0.0347
 9988W        W25797  13.439  15.875  11.441 -0.0376  0.1170 -0.0685
 9989W        W25798  10.600  16.977  12.696 -0.0079 -0.0246  0.3263
 9990W        W25799  15.871   4.814  13.403  0.3509 -0.3447  0.0202
 9991W        W25800   1.364   8.812  11.490  0.1184  0.3085  0.0076
 9992W        W25801   5.509  10.848   3.464 -0.3454  0.0521  0.0813
 9993W        W25802  13.547   3.521   1.439  0.2916 -0.0772  0.3277
 9994W        W25803   9.950   7.086   1.551  0.0892 -0.1535 -0.1270
 9995W        W25804  18.396   1.325   4.565  0.0973  0.2151  0.1304
 9996W        W25805  16.131  18.286  10.799 -0.0331 -0.0195  0.0218
 9997W        W25806  16.292  16.963   3.897 -0.2160 -0.0668  0.0535
 9998W        W25807  12.107   8.515  13.009  0.0419 -0.0257  0.3638
 9999W        W25808   2.858  17.349  10.421  0.2438 -0.0111  0.1002
10000W        W25809   4.340  12.585   0.781  0.1427 -0.4004  0.2297
10001W        W25810   8.726   3.541  15.633 -0.1530 -0.1919  0.2611
10002W        W25811   1.161  17.712  10.293 -0.0836  0.1665  0.2361
10003W        W25812   6.672  15.081   1.295  0.1666  0.0558 -0.1970
10004W        W25813  18.236   3.482   2.265 -0.2157  0.0586  0.1387
10005W        W25814  14.067  17.835   4.352  0.1893  0.1014  0.1083
10006W        W25815  16.538  16.605  11.631  0.3566 -0.1176  0.0945
10007W        W25816  16.923  12.699  15.330  0.0191 -0.0671 -0.3386
10008W        W25817   1.674  15.821  14.045  0.3294 -0.0452 -0.0652
10009W        W25818   4.065   4.359   4.765 -0.1054 -0.0621 -0.0214
10010W        W25819   3.091  10.558   3.659 -0.0046 -0.4716  0.0464
10011W        W25820   0.334   9.468  14.559 -0.1380  0.1025  0.3201
10012W        W25821  11.253   1.578   0.175 -0.0825 -0.0167  0.1444
10013W        W25822   1.304  13.215   1.793  0.0613  0.0934 -0.0791
10014W        W25823   3.225  15.750  11.544  0.0752 -0.4940 -0.1504
10015W        W25824  17.650  18.094   2.011 -0.1159  0.1932 -0.1005
10016W        W25825   8.924  13.040  13.787  0.4203 -0.0652 -0.2363
10017W        W25826   3.133   8.638   4.542  0.1545 -0.0237 -0.1179
10018W        W25827  10.951   1.823   0.663  0.1881 -0.1163  0.0518
10019W        W25828   8.489   0.500  10.649 -0.1318 -0.0623 -0.0618
10020W        W25829   1.088   2.920   2.050  0.0153  0.2945 -0.0073
10021W        W25830   3.618   9.248  13.069  0.0755  0.1970 -0.3672
10022W        W25831   4.631   0.908  12.421 -0.2477 -0.0761 -0.1356
10023W        W25832  13.561  14.484  15.620  0.1081 -0.0222 -0.0619
10024W        W25833   0.750   0.699   5.507 -0.0032 -0.0059 -0.0198
10025W        W25834  17.802  15.250  11.736 -0.3791  0.0563 -0.2113
10026W        W25835  15.588  18.026  13.719 -0.0930  0.0043 -0.0465
10027W        W25836  11.095   5.092   4.122  0.3962  0.1513 -0.0180
10028W        W25837  13.644  13.110   0.771 -0.0354  0.0178 -0.0449
10029W        W25838   2.698   1.956   3.024 -0.0851 -0.1120  0.1247
10030W        W25839  16.159  16.042  12.778 -0.2556 -0.3434 -0.0840
10031W        W25840  12.645  13.675  11.016  0.0555 -0.0929 -0.1563
10032W        W25841   4.204   7.086  13.875  0.3476  0.1007  0.2991
10033W        W25842  15.912   8.779  11.463  0.2585  0.0828 -0.0812
10034W        W25843   5.342  13.803   4.980 -0.0017  0.1675  0.3382
10035W        W25844   6.432   3.193  13.965 -0.2043 -0.3738  0.1042
10036W        W25845  13.153  13.323   1.601 -0.4017 -0.2750  0.2021
10037W        W25846  12.182   1.078  14.522  0.1236 -0.0445 -0.0363
10038W        W25847  16.891  12.918   0.076 -0.2595 -0.0055  0.2133
10039W        W25848   0.452   8.820  13.214 -0.0607  0.0789  0.0019
10040W        W25849  12.498  16.625   9.739  0.5094 -0.4163  0.4582
10041W        W25850  10.600  16.191  13.095  0.0148 -0.0013 -0.3371
10042W        W25851   2.250  16.010   1.580 -0.0424  0.4250 -0.0482
10043W        W25852   6.389   6.030  12.613 -0.3106 -0.0379  0.0031
10044W        W25853  15.960   4.358  11.120  0.1766  0.3028  0.1537
10045W        W25854  16.588  14.473  11.673 -0.1786  0.0895 -0.2004
10046W        W25855  13.150   3.337   2.190 -0.0089 -0.1395  0.0175
10047W        W25856  11.770  11.985   1.954  0.0324  0.1392  0.0350
10048W        W25857   4.600  17.084  11.324 -0.4307  0.0944 -0.2526
10049W        W25858   8.490   6.815   5.283  0.1650 -0.1181  0.0572
10050W        W25859   2.855  12.321   2.373 -0.4482  0.4270 -0.0896
10051W        W25860   1.974   2.137   1.533 -0.1589 -0.1316  0.2673
10052W        W25861   5.578   2.761  13.431  0.0200 -0.2492  0.4360
10053W        W25862   3.753   1.688  11.690 -0.2571 -0.3145 -0.1269
10054W        W25863  16.179  10.754  11.259 -0.1732 -0.0687 -0.1083
10055W        W25864  11.558   1.292  14.573  0.1509 -0.1079  0.1257
10056W        W25865   8.003  10.602   3.962  0.0197  0.2857 -0.1238
10057W        W25866   6.927  10.295  15.411  0.0977 -0.0220  0.4727
10058W        W25867   7.934   3.986  11.672 -0.1089  0.1250  0.0774
10059W        W25868   8.150  12.890   2.414 -0.2088  0.1037 -0.3448
10060W        W25869   0.500   8.887  12.749 -0.0700  0.0780 -0.1044
10061W        W25870   6.231  16.651   4.870  0.4340 -0.0112 -0.0015
10062W        W25871   3.135   1.396   0.496 -0.0241  0.0608  0.2100
10063W        W25872  14.011   0.391  12.837 -0.1940 -0.1411  0.1053
10064W        W25873  16.428   1.575  11.666  0.0758 -0.2726 -0.2347
10065W        W25874  17.410   8.596   3.705 -0.0591 -0.0607 -0.0534
10066W        W25875   0.215  18.097   0.356 -0.0508  0.7167  0.2029
10067W        W25876  12.801   4.229   5.638  0.1836 -0.3007 -0.1031
10068W        W25877   0.670  16.887   3.538 -0.1597  0.3763 -0.2361
10069W        W25878   1.192  14.367  14.138  0.0991 -0.1811  0.2369
10070W        W25879   4.458  11.342  13.720  0.1359 -0.0233 -0.1459
10071W        W25880   7.939  15.450  12.959 -0.0363  0.4054  0.0046
10072W        W25881   3.593  17.772   5.260 -0.1826  0.6212  0.3319
10073W        W25882   1.677   2.157  12.570 -0.1302  0.0730  0.1143
10074W        W25883  15.505   4.450  12.548 -0.1646 -0.2260 -0.0182
10075W        W25884   5.132   5.457   6.298 -0.2275 -0.2375 -0.1242
10076W        W25885   1.611  17.201   1.864  0.0014  0.0234 -0.0483
10077W        W25886  17.435   3.166   4.628  0.0615  0.0388  0.0984
10078W        W25887   9.372  15.597   3.009 -0.1964 -0.1466  0.1939
10079W        W25888  16.613   2.582   4.040  0.0440  0.2147 -0.0767
10080W        W25889   1.764   4.029   0.579 -0.1174  0.1052  0.0291
10081W        W25890  12.141   1.956  14.775  0.2183  0.1673  0.0388
10082W        W25891   0.350  11.446  15.344 -0.1697 -0.2580  0.3062
10083W        W25892   7.811   4.761   5.699 -0.0099  0.0153 -0.0801
10084W        W25893   8.402   4.060  10.644 -0.0623 -0.1569 -0.3659
10085W        W25894   3.819   2.163  11.561  0.0490  0.4256 -0.0120
10086W        W25895   9.683  10.599  15.625 -0.3238  0.1648 -0.3394
10087W        W25896  10.057   9.412  11.386  0.0295 -0.1604  0.1292
10088W        W25897   4.603   4.413  15.598  0.1018  0.1450  0.1528
10089W        W25898  12.355   6.254  12.810 -0.1087 -0.3561  0.1043
10090W        W25899   5.533   0.372   4.898 -0.0298 -0.1173  0.1098
10091W        W25900   8.867  14.163   3.907 -0.0687 -0.5237 -0.1575
10092W        W25901  10.301  11.006  12.765  0.2512  0.0053 -0.1090
10093W        W25902   2.284  10.602   0.001  0.4011 -0.1679  0.2895
10094W        W25903  13.914   7.689  12.047  0.0887  0.1485 -0.1813
10095W        W25904  14.663  11.488  11.042  0.0367 -0.0415 -0.0708
10096W        W25905   3.655   8.389  13.021 -0.1558 -0.0235 -0.0975
10097W        W25906   9.865   6.459  13.393  0.3889 -0.1983  0.0840
10098W        W25907   6.141   6.930   1.611 -0.1206  0.0209  0.0519
10099W        W25908  10.430   6.485  15.589 -0.2323 -0.3638  0.5084
10100W        W25909  18.463   2.369   3.302 -0.3568 -0.0833 -0.2637
10101W        W25910  10.383  16.444  14.122 -0.0433 -0.0137  0.3907
10102W        W25911  13.156   3.913   3.754  0.4892 -0.4316 -0.3467
10103W        W25912   3.299   4.703  14.216  0.1212 -0.0497  0.5254
10104W        W25913   1.490   6.075   0.733  0.2475  0.0634  0.1572
10105W        W25914  13.865  10.707  12.769 -0.1738  0.0601 -0.0432
10106W        W25915   3.139  10.866  11.262 -0.1563 -0.3214  0.0549
10107W        W25916   0.198   2.008  13.485 -0.2167 -0.1175  0.0755
10108W        W25917   9.280  10.617   1.436  0.0329 -0.0392  0.1664
10109W        W25918  10.211  13.142   0.560  0.1469  0.1212 -0.0577
10110W        W25919   0.852  15.681   5.476 -0.2969  0.2509  0.0697
10111W        W25920  12.894   7.072   1.793  0.0400 -0.0595  0.1001
10112W        W25921   9.351  15.395   0.483  0.2619 -0.1579 -0.0221
10113W        W25922   5.481  11.282  15.064 -0.0569 -0.0137  0.2121
10114W        W25923   8.215   6.440  12.382  0.1990 -0.0384  0.3323
10115W        W25924  10.816  10.705   1.277  0.2120 -0.1366 -0.3834
10116W        W25925  13.583   9.434  13.107 -0.1629  0.2201 -0.0630
10117W        W25926   0.024   5.488  13.847  0.2237  0.2095  0.1530
10118W        W25927   3.573   0.382  12.534 -0.2285 -0.1943 -0.0100
10119W        W25928  16.103   0.643   3.723  0.0529 -0.2317  0.2414
10120W        W25929   8.494  18.645   5.119  0.2702  0.3249  0.0540
10121W        W25930  17.430  12.639   3.054 -0.2750 -0.1416 -0.1012
10122W        W25931  14.677  17.121   3.393  0.0989  0.1789 -0.1075
10123W        W25932   1.927  12.046   3.986  0.0440  0.2761 -0.1819
10124W        W25933  14.468   1.798   1.693  0.0713 -0.1352  0.1418
10125W        W25934   1.271   2.927   4.074  0.2062  0.0267 -0.0983
10126W        W25935   8.179  16.501  11.756  0.2081  0.5418 -0.0133
10127W        W25936  12.744   2.468  11.340  0.1821 -0.1853 -0.2681
10128W        W25937   6.840   8.443  12.043  0.0364 -0.0261  0.0988
10129W        W25938   9.934  18.626  15.012  0.0227  0.4576 -0.0575
10130W        W25939   2.839  14.512   3.072 -0.1260  0.2629  0.1398
10131W        W25940  11.220  11.742  11.862  0.0289 -0.2636 -0.0865
10132W        W25941   1.826   2.873   3.884 -0.0981 -0.0738 -0.0336
10133W        W25942  13.140   4.199  13.584 -0.1832  0.3487  0.1306
10134W        W25943   5.559  10.520  15.722  0.1287 -0.1848  0.2353
10135W        W25944   4.575   3.768   4.349  0.2913 -0.0877 -0.0632
10136W        W25945   7.452  16.399   5.160  0.2468 -0.0822  0.0310
10137W        W25946  14.554   8.979  10.990 -0.1068 -0.5045  0.0373
10138W        W25947   0.266   3.583  11.831 -0.3902  0.0936  0.4727
10139W        W25948   0.098  11.399  15.717 -0.0682  0.3735  0.0898
10140W        W25949   4.895   5.211   4.642 -0.0279 -0.0071  0.1292
10141W        W25950  15.072  11.298  14.795  0.1748  0.0271 -0.0609
10142W        W25951   1.615   5.928   3.759  0.2930 -0.0641 -0.5053
10143W        W25952  13.747  12.618   3.083 -0.0092  0.1300 -0.1470
10144W        W25953   8.337   9.846   1.793 -0.1419 -0.2637 -0.2037
10145W        W25954   4.730   8.368  11.422 -0.2707 -0.1007  0.0920
10146W        W25955   7.524   6.110   2.330 -0.1606  0.0885  0.0688
10147W        W25956  12.877  14.409  11.832  0.3209  0.0280  0.1893
10148W        W25957   9.210   2.470   2.866  0.0956 -0.0431  0.2942
10149W        W25958   8.081  15.089   2.757 -0.2350 -0.0040 -0.3349
10150W        W25959   3.028  12.637   3.083  0.0561  0.0598  0.1464
10151W        W25960   1.078   6.044   1.065  0.1265  0.0746 -0.5444
10152W        W25961   3.287   8.037  12.769 -0.2418  0.1682 -0.0031
10153W        W25962  18.185   9.504  12.616  0.2618  0.0458  0.0615
10154W        W25963   2.446   7.058   4.891  0.0098  0.0217  0.3089
10155W        W25964   0.235   8.045   5.903 -0.0571  0.2258 -0.2124
10156W        W25965  15.722  17.497  13.176 -0.1398  0.3083 -0.1906
10157W        W25966   1.048   5.784   0.221  0.0488  0.0762  0.0084
10158W        W25967   2.363   6.196  15.530 -0.0187  0.0376  0.1508
10159W        W25968   3.157  13.658   2.776  0.0621 -0.0205 -0.0137
10160W        W25969  18.592   9.530   3.286 -0.1200  0.0240  0.0354
10161W        W25970  16.299   6.730  13.976 -0.0138  0.0520 -0.3516
10162W        W25971   7.224   7.871   3.108 -0.1115 -0.0016 -0.0768
10163W        W25972   3.110   7.373   1.327  0.3441  0.0006  0.0525
10164W        W25973   3.551  14.043   3.755 -0.0119  0.2737  0.2682
10165W        W25974  11.608   6.543  14.664 -0.3961  0.1113 -0.1053
10166W        W25975  16.014  16.746  12.529 -0.1394  0.1359  0.0262
10167W        W25976  13.661   2.616   3.393 -0.2427  0.2699  0.0937
10168W        W25977  11.784   3.924   1.218 -0.0185 -0.0766  0.1603
10169W        W25978   0.452  11.377   0.469  0.0745  0.1379  0.0749
10170W        W25979  16.069   6.048   0.725  0.0606  0.3781  0.2569
10171W        W25980   2.599   3.996   2.963  0.3670 -0.1697  0.3183
10172W        W25981   6.473   1.707   1.792  0.2241  0.0062 -0.1768
10173W        W25982   5.345   2.190  12.047 -0.1507  0.3032  0.0879
10174W        W25983   0.825  16.785  11.340 -0.3770  0.0156  0.4102
10175W        W25984   9.491   9.315  12.478  0.4476  0.0033  0.2634
10176W        W25985   5.067  14.355  15.471 -0.0770 -0.2028  0.1723
10177W        W25986   4.420   8.333   3.146 -0.0974 -0.2756 -0.0629
10178W        W25987  16.102  10.525  14.419  0.3278  0.4110 -0.2799
10179W        W25988   0.099   4.642  11.869  0.1157 -0.1006  0.0852
10180W        W25989   2.025   3.135   5.418 -0.1750  0.0320 -0.2751
10181W        W25990  17.961  10.576  10.836 -0.0378  0.1809  0.2821
10182W        W25991   1.786   3.921   4.901  0.1062 -0.0822  0.0371
10183W        W25992  10.970  17.005   1.600  0.0565  0.0353  0.1450
10184W        W25993  14.708  15.416   4.509  0.0897  0.0197 -0.2227
10185W        W25994   1.793   3.253  14.819  0.1398 -0.0180 -0.2115
10186W        W25995  12.625   9.421   2.551 -0.1329 -0.0735  0.0870
10187W        W25996   9.159   4.316   1.892  0.2981  0.0046 -0.3974
10188W        W25997  17.253   8.420   5.544  0.0725  0.1155 -0.5448
10189W        W25998   5.907   5.329  11.197  0.1952 -0.0371 -0.1971
10190W        W25999  10.294   1.256   3.622 -0.1083  0.1608 -0.2677
10191W        W26000  12.327   6.373  11.663  0.0236  0.1087 -0.0146
10192W        W26001   2.949   9.107  13.634 -0.0858  0.2810  0.1379
10193W        W26002   7.033  11.276   0.654  0.0410  0.1125 -0.1729
10194W        W26003   1.974   9.739   0.464  0.0778 -0.0088  0.1232
10195W        W26004  16.953  10.201  12.088  0.0639 -0.0468 -0.2367
10196W        W26005   6.814   5.699   2.318  0.1204 -0.0118  0.1364
10197W        W26006   1.546  11.927   3.180 -0.1090 -0.1947 -0.2549
10198W        W26007   2.880  17.573  10.980  0.1421  0.0369 -0.3242
10199W        W26008  15.713  11.742   0.524 -0.0853  0.2200  0.0410
10200W        W26009  17.486   1.889   3.123 -0.2037 -0.2248 -0.0240
10201W        W26010  16.190   1.969   3.552  0.2192 -0.0577 -0.1443
10202W        W26011   6.786   5.230  14.142  0.1545 -0.0872 -0.1621
10203W        W26012  12.299   0.196   1.308 -0.1226  0.0418 -0.1974
10204W        W26013   9.461  14.283   5.658 -0.0893 -0.0285 -0.1706
10205W        W26014  14.288  15.673   3.808 -0.0747 -0.1201 -0.3320
10206W        W26015  18.261  14.200  13.771 -0.1774 -0.0259 -0.0518
10207W        W26016  11.244   1.902  14.602 -0.1357 -0.1770  0.1184
10208W        W26017   4.531   9.496  15.747 -0.4938 -0.1499  0.1501
10209W        W26018   2.951   2.744  12.914 -0.2209  0.1447 -0.1726
10210W        W26019   8.227   5.693  13.494 -0.0767  0.2738  0.1225
10211W        W26020  12.966  13.088   4.476  0.0235  0.1087  0.2206
10212W        W26021  11.382   6.031  14.684 -0.1100 -0.1111  0.1278
10213W        W26022   5.205   9.563  14.899 -0.1215 -0.1430  0.1329
10214W        W26023   4.293  12.719   3.825  0.2714  0.1615  0.1639
10215W        W26024  15.534   5.624   0.157  0.3187  0.3223  0.0394
10216W        W26025  13.665   8.845  11.339  0.0132 -0.2246  0.1692
10217W        W26026  10.281   3.660   3.186 -0.2947 -0.3226  0.0341
10218W        W26027  11.724  10.278  13.175 -0.1886  0.0119  0.0621
10219W        W26028   6.361   2.798  14.271 -0.0079  0.0857  0.0279
10220W        W26029   3.636   8.676   4.708 -0.1612  0.0613 -0.1168
10221W        W26030  15.421   1.469   3.676 -0.2326  0.2905 -0.0684
10222W        W26031   0.904   6.683   0.866  0.0384  0.1511  0.1984
10223W        W26032  17.093   6.838   4.497  0.2495 -0.1814 -0.2996
10224W        W26033  16.928  13.402  14.496 -0.2990 -0.3285 -0.1818
10225W        W26034  11.831   2.744  12.438 -0.3461  0.2673  0.1997
10226W        W26035  14.412   9.921   0.304 -0.0998 -0.0344  0.1442
10227W        W26036   9.117   6.122   3.866 -0.0348 -0.1915 -0.2540
10228W        W26037   3.970   2.360   0.715 -0.1273 -0.1246 -0.1927
10229W        W26038   7.636  16.499   0.431  0.0998 -0.0906  0.0313
10230W        W26039   6.851   3.944  10.289  0.1117 -0.0695  0.0297
10231W        W26040  15.675   3.863   4.697 -0.0912  0.0272  0.0946
10232W        W26041  18.008  12.615   3.218  0.3062  0.0885  0.4532
10233W        W26042  16.056  11.472   3.000 -0.0357  0.0674  0.0905
10234W        W26043   2.495   7.305   1.771 -0.0201 -0.1610  0.0849
10235W        W26044   6.488   8.157   1.501  0.2696 -0.1515 -0.2776
10236W        W26045  16.417  17.944   2.864 -0.0616 -0.0605 -0.3111
10237W        W26046  15.212   1.308  14.047 -0.0694  0.0695 -0.1403
10238W        W26047  12.237  15.865   0.182  0.2933  0.0747 -0.1263
10239W        W26048  13.636   4.906  12.560 -0.2383 -0.1092 -0.1348
10240W        W26049   8.136   4.656  13.928  0.0194 -0.0251  0.1332
10241W        W26050  15.608  10.481  14.721 -0.0653 -0.0005 -0.0457
10242W        W26051  15.186   3.628   4.787  0.1624  0.0738 -0.1462
10243W        W26052  12.578   3.232  14.418  0.1719 -0.2002  0.3399
10244W        W26053  10.911  10.779   3.193  0.0149  0.3016  0.0734
10245W        W26054   2.789   8.760  15.562 -0.0480  0.1132  0.0479
10246W        W26055   6.618   5.216   5.346  0.2205 -0.1100  0.1701
10247W        W26056   5.620  12.689  12.285 -0.1235  0.0648  0.3149
10248W        W26057   0.086  17.839   9.482  0.2077 -0.1174 -0.0174
10249W        W26058  13.435  17.562  12.777 -0.0004 -0.1591 -0.0300
10250W        W26059  16.306  17.870  14.828 -0.2177  0.2332 -0.0550
10251W        W26060  16.224  15.850   4.109 -0.1838 -0.1116  0.0828
10252W        W26061  15.498   2.488  15.430  0.0168 -0.0059  0.0022
10253W        W26062  13.226   5.545   3.450 -0.1138  0.2172  0.1185
10254W        W26063   6.230   1.444   3.125 -0.2946  0.0616  0.3108
10255W        W26064  18.536   9.444   3.846  0.0221  0.1317 -0.5924
10256W        W26065  11.083   3.033  11.734  0.0785 -0.1201 -0.1765
10257W        W26066   1.283  15.683  14.520  0.0063 -0.2156 -0.1534
10258W        W26067  17.157   2.871  10.723 -0.2709  0.1880  0.1260
10259W        W26068  11.401  17.152  14.890  0.0603  0.0658 -0.2714
10260W        W26069   6.319   7.930  15.657  0.2103  0.0830 -0.2141
10261W        W26070   5.307  11.774   4.469  0.0549  0.1514 -0.1988
10262W        W26071  12.332   0.410   0.621 -0.0131  0.3234  0.0743
10263W        W26072   8.782  12.925   2.624  0.2201  0.1000  0.0456
10264W        W26073  14.563   2.460  15.671  0.0170 -0.0762 -0.1565
10265W        W26074   5.301  10.146   5.325  0.1544  0.0540 -0.2761
10266W        W26075  14.449  14.877  15.520  0.0410  0.1369 -0.1760
10267W        W26076  12.026   7.150   0.054 -0.0796 -0.2474  0.0525
10268W        W26077   3.960   5.773   0.498  0.0791  0.0362  0.0438
10269W        W26078   0.648  15.638  11.882  0.2371  0.0423  0.0052
10270W        W26079   0.975   2.391   4.098 -0.1834  0.3098 -0.1304
10271W        W26080   7.788   9.506   0.001 -0.0122 -0.0002  0.1612
10272W        W26081   0.794  10.681  11.398  0.2612 -0.0578  0.0985
10273W        W26082   5.697   0.439  14.542  0.0975 -0.0565 -0.1590
10274W        W26083   7.115  10.155  11.750  0.1794 -0.2932 -0.2070
10275W        W26084   4.456   5.247  11.432 -0.2003  0.0287 -0.2493
10276W        W26085  15.599  18.564   0.600  0.2446  0.2335 -0.0616
10277W        W26086   9.342   0.439   2.566 -0.0326  0.1517  0.2209
10278W        W26087   9.359   4.786  12.344  0.1252  0.0477 -0.1652
10279W        W26088   4.708  16.027   2.691  0.1202 -0.0847  0.1981
10280W        W26089  15.457   2.297   1.851 -0.1504 -0.0111  0.0806
10281W        W26090   3.416  15.327   0.239  0.4698 -0.0974 -0.4711
10282W        W26091   1.315  14.885   1.365 -0.0897 -0.0239 -0.1399
10283W        W26092  15.623   6.543   3.057  0.1827  0.2015 -0.4014
10284W        W26093  17.038  14.907   2.395  0.0438 -0.1869  0.2173
10285W        W26094  12.489  12.839  15.083  0.0326 -0.3478 -0.0461
10286W        W26095  14.587  14.438  12.886  0.0445  0.1803 -0.0786
10287W        W26096   3.669   9.627   3.696 -0.0162  0.3569 -0.0966
10288W        W26097   5.084  17.050   3.705  0.0071 -0.0737 -0.1078
10289W        W26098  11.122  11.626  11.115  0.1713  0.1087  0.1216
10290W        W26099  12.163  17.178   4.078  0.0773 -0.1355  0.2307
10291W        W26100  16.046   2.670  13.596  0.2088  0.2112 -0.0247
10292W        W26101   9.534   5.233  12.544  0.0558 -0.1412  0.0365
10293W        W26102   8.989   3.947  10.794 -0.2987 -0.3441  0.0722
10294W        W26103  11.140  14.261  12.851  0.2920 -0.1914 -0.0476
10295W        W26104  14.496   8.768   4.716  0.0286  0.4069  0.2262
10296W        W26105  13.403   1.873  11.109  0.2423 -0.3466  0.0542
10297W        W26106  15.272  16.522  13.902  0.0519 -0.0405 -0.0034
10298W        W26107   5.491   8.897  11.534  0.2042 -0.2019 -0.5578
10299W        W26108   7.522  13.061  14.786  0.1931  0.0506  0.0304
10300W        W26109  17.000   0.195  14.339 -0.3316 -0.0502  0.1283
10301W        W26110  11.325  15.518  14.890  0.0842  0.0842  0.0527
10302W        W26111  16.729  16.959   1.289 -0.0551 -0.0286  0.1248
10303W        W26112   7.746  13.519  11.567 -0.0027  0.1375  0.0930
10304W        W26113   2.980  16.024  11.998  0.1329  0.3291 -0.0473
10305W        W26114   9.895   1.191  10.817  0.1129 -0.0768  0.3720
10306W        W26115  12.102  10.978  11.106  0.0479 -0.0762  0.2393
10307W        W26116   7.653   2.855   1.139  0.1914 -0.0137 -0.1332
10308W        W26117   5.112  16.706   3.234  0.2010 -0.1002  0.2255
10309W        W26118   3.858   8.755   3.427  0.1327 -0.0346  0.2444
10310W        W26119  14.961  13.360   1.234  0.2924  0.0082 -0.0016
10311W        W26120  15.595  14.902  11.921  0.0648 -0.1200 -0.1812
10312W        W26121   8.603  11.227   3.636 -0.3219  0.0721 -0.3020
10313W        W26122   5.570   3.228  12.115  0.1141  0.1278 -0.1301
10314W        W26123   6.694  16.716  14.231 -0.0945 -0.1238  0.0117
10315W        W26124  10.586   5.302  10.436 -0.1409 -0.5013 -0.0198
10316W        W26125  16.875   4.156   3.900  0.0377 -0.0029 -0.0688
10317W        W26126   9.786  11.099  14.646 -0.0694 -0.0461 -0.0157
10318W        W26127   0.013  17.783   0.811  0.1386  0.1478 -0.3473
10319W        W26128  16.229   4.765   0.835  0.0346 -0.1077 -0.2918
10320W        W26129  13.425  10.218  14.907  0.1674 -0.0777  0.0139
10321W        W26130   2.112  14.174  11.785  0.2418 -0.0128  0.0398
10322W        W26131   2.611   5.256  14.459  0.2109  0.3579  0.2557
10323W        W26132   6.048  14.885  11.304 -0.0608 -0.1623  0.1010
10324W        W26133  11.335   6.277  11.139 -0.0658 -0.0725 -0.2775
10325W        W26134  10.058   2.174   5.445  0.0561  0.0716  0.0160
10326W        W26135  14.649  10.890   2.751  0.1677  0.0147  0.1240
10327W        W26136  16.406  18.220   1.418  0.2835  0.2191 -0.0843
10328W        W26137  17.354   6.510   3.178  0.0398 -0.1950  0.0554
10329W        W26138  10.833  12.575  12.438 -0.0173  0.0538  0.2144
10330W        W26139   8.525  10.046  14.328 -0.1665 -0.3521 -0.0264
10331W        W26140  17.082  16.869   0.969  0.0931 -0.1344 -0.0552
10332W        W26141   9.633  11.278   2.368 -0.0172  0.0747 -0.2626
10333W        W26142  11.714   8.499   1.240 -0.1039  0.1884 -0.2053
10334W        W26143  10.411  17.663  10.631 -0.0781  0.2254  0.0876
10335W        W26144  10.459  14.106  13.788  0.0208  0.4540  0.1993
10336W        W26145  17.619   0.721   4.405 -0.0118  0.3198  0.2747
10337W        W26146  12.837  13.197  15.040 -0.0984 -0.4931  0.1671
10338W        W26147   8.457   0.893  11.155 -0.0843  0.2632  0.0254
10339W        W26148  10.685   6.670   4.815 -0.0639 -0.3173  0.1364
10340W        W26149   4.772  12.643   2.876  0.0253 -0.1236 -0.0535
10341W        W26150  16.952  13.083  10.947  0.1064  0.3299 -0.1269
10342W        W26151  11.306  11.680   9.925  0.1960 -0.3647  0.3420
10343W        W26152   1.185   4.177   1.160  0.0321  0.0429 -0.1227
10344W        W26153   0.275   5.977  11.698  0.2356  0.1441  0.1491
10345W        W26154   8.022  17.745   2.185 -0.0087  0.0028 -0.0783
10346W        W26155   7.878  13.908  13.901  0.4404  0.0329 -0.0429
10347W        W26156  18.397  18.027   5.555 -0.1551  0.0948 -0.2278
10348W        W26157   8.188  12.031   5.009 -0.0203 -0.2570 -0.2185
10349W        W26158   3.144   6.076   4.191 -0.0914 -0.0095  0.3810
10350W        W26159   9.641  15.655  14.679 -0.2847  0.1416  0.1594
10351W        W26160   1.786   8.528  14.314  0.0671 -0.0131  0.0139
10352W        W26161  15.261   5.427  11.260 -0.0453 -0.2852 -0.0444
10353W        W26162   8.983   5.205   3.891 -0.3119 -0.1421  0.0642
10354W        W26163   5.826  12.340   2.657  0.3288  0.1185  0.1535
10355W        W26164  16.228   9.054  14.765 -0.2416  0.1410  0.2277
10356W        W26165   3.480  11.202  11.013  0.0185  0.1337  0.2893
10357W        W26166  14.968  15.083   3.332  0.1656  0.2930 -0.1565
10358W        W26167   0.886   7.118   1.143 -0.0203  0.0128 -0.0711
10359W        W26168  11.299  10.802   2.520  0.2750  0.1142  0.2430
10360W        W26169  10.460   2.575   3.624  0.1051  0.0263 -0.0630
10361W        W26170   7.963  11.908   1.239 -0.0516  0.2454  0.0820
10362W        W26171  17.532  15.274  12.670  0.0088 -0.1685 -0.0362
10363W        W26172  14.163  17.709  11.073 -0.1658 -0.2381 -0.0757
10364W        W26173  10.531  12.882   3.113 -0.0162 -0.0929  0.1640
10365W        W26174  16.173   1.303  15.484 -0.1184 -0.0524  0.0601
10366W        W26175   1.090   0.294   0.148  0.0836  0.0496 -0.0094
10367W        W26176  18.143   4.637  14.713 -0.1835 -0.1052 -0.1862
10368W        W26177   0.842  16.757  13.608  0.2998  0.0787  0.2297
10369W        W26178   9.530   5.080  14.913 -0.0574  0.1264 -0.0427
10370W        W26179   7.236  12.667   3.630 -0.2638  0.2547  0.2013
10371W        W26180  14.849  13.937  11.150 -0.2258 -0.0227  0.1421
10372W        W26181   3.027  13.682  14.374  0.0183 -0.1476 -0.0294
10373W        W26182  14.018   2.635   1.535 -0.4074 -0.0694 -0.1050
10374W        W26183   3.265   9.946  11.838  0.3214 -0.0321  0.0812
10375W        W26184  17.679  16.780  15.537 -0.2580 -0.0231  0.1956
10376W        W26185   2.466   8.138   4.575 -0.0600 -0.2639  0.0187
10377W        W26186   7.485   6.682   0.089 -0.0073  0.2082  0.0482
10378W        W26187  15.618   6.527  11.645  0.1596 -0.1061 -0.0374
10379W        W26188  10.800  17.244  13.658  0.2770  0.1725 -0.0329
10380W        W26189  14.309   8.686   1.765  0.1712  0.4775 -0.0870
10381W        W26190  12.330  18.388   1.117 -0.2467 -0.0073 -0.3225
10382W        W26191   0.020  13.564   0.979 -0.1578  0.0382  0.1119
10383W        W26192  14.414   2.043  15.362 -0.0118 -0.1169  0.3720
10384W        W26193   2.160  11.078  15.532  0.0381  0.2427  0.0619
10385W        W26194   1.946  11.022   2.153  0.0776 -0.1143  0.0108
10386W        W26195  15.641   1.908  14.105  0.0905 -0.0641 -0.3352
10387W        W26196  13.887  12.407  13.756  0.2357  0.3412 -0.0211
10388W        W26197  12.464  17.573   1.019 -0.1244 -0.0047  0.2532
10389W        W26198  12.319   9.965   5.340  0.0484  0.1079 -0.2422
10390W        W26199   2.170  18.403   3.370  0.0168  0.0272 -0.2805
10391W        W26200   5.663   6.396  11.225  0.2667 -0.1348  0.0852
10392W        W26201   6.641   1.801  11.897  0.0772 -0.1526 -0.1480
10393W        W26202  10.019   1.322   5.211  0.0129 -0.2331 -0.5760
10394W        W26203  10.388   7.032   3.149 -0.0034  0.2560 -0.2061
10395W        W26204  13.519   9.158  13.626 -0.3282  0.1160  0.2377
10396W        W26205   5.547   7.106   3.840  0.2572 -0.0695  0.1293
10397W        W26206  13.757  14.688   0.567  0.0059  0.0845 -0.3027
10398W        W26207  12.640   0.613   2.737 -0.0615 -0.3825  0.0796
10399W        W26208   0.901   7.554  14.361  0.3332  0.0034 -0.1824
10400W        W26209   1.699   4.288   2.067 -0.1460 -0.0135  0.1221
10401W        W26210  10.685  14.550  14.522  0.3836  0.0741  0.2153
10402W        W26211   5.225   8.861   4.090 -0.2669  0.0481  0.1599
10403W        W26212   6.692   2.120   3.654  0.0947 -0.0745 -0.5364
10404W        W26213  16.966   9.603   2.034  0.0243 -0.1155 -0.0129
10405W        W26214   0.475   3.813   2.993 -0.2734 -0.1794 -0.0660
10406W        W26215   3.160  12.114  11.736 -0.1714  0.1234 -0.1242
10407W        W26216   3.341   3.661   1.106 -0.1975  0.0281 -0.2572
10408W        W26217   1.836   4.846   4.548  0.3096  0.0254 -0.1453
10409W        W26218   0.494   4.969  11.175 -0.1629  0.0015  0.0694
10410W        W26219  15.036   5.846   1.426 -0.2959  0.2816 -0.2117
10411W        W26220   4.170  15.775   1.102  0.0937  0.2945 -0.0551
10412W        W26221   7.218   4.806   2.235  0.0961 -0.2554 -0.0261
10413W        W26222  10.915  15.526  13.895  0.0088 -0.0405 -0.2049
10414W        W26223   9.111  13.630  12.119  0.0659 -0.0189  0.2097
10415W        W26224  18.511  16.794   2.032 -0.0355 -0.0188 -0.0934
10416W        W26225   7.694  11.007  13.856  0.0834  0.1352  0.0348
10417W        W26226   6.718   7.900   1.863  0.1655  0.0537  0.0887
10418W        W26227  13.201   0.621  11.209 -0.0879  0.0844 -0.0226
10419W        W26228   8.217  12.921  11.004 -0.3018  0.1752  0.2918
10420W        W26229  13.144   0.133  15.366  0.3381  0.0312  0.2894
10421W        W26230   8.045  15.073   4.731 -0.0256  0.0395 -0.0179
10422W        W26231  12.002   8.992   3.311 -0.1021 -0.0240 -0.0105
10423W        W26232   0.218  16.957   2.364  0.0550 -0.0945 -0.2182
10424W        W26233   1.368   0.126   5.391 -0.1003  0.0489  0.1726
10425W        W26234  14.391   8.457  10.731  0.2831  0.0506  0.2390
10426W        W26235  18.107   8.716   4.896 -0.1083 -0.0646  0.0955
10427W        W26236   8.133   1.519  14.555  0.3083 -0.1078 -0.2772
10428W        W26237   9.103  15.424   4.734  0.1102  0.4393  0.0542
10429W        W26238  12.614   1.235  12.550  0.3092  0.2864 -0.0180
10430W        W26239   3.615   3.770   3.674 -0.0534  0.3350 -0.1583
10431W        W26240   5.085  14.443  14.380  0.2802  0.0986 -0.0379
10432W        W26241  15.931   2.812  13.145 -0.1542 -0.0768 -0.0182
10433W        W26242   4.495   4.912  15.583 -0.0316 -0.1041 -0.0638
10434W        W26243   7.490  11.769  12.896  0.0493  0.1984 -0.0990
10435W        W26244   8.259   3.228  15.399 -0.0519  0.3305  0.0959
10436W        W26245  13.275   5.843   5.843  0.0080 -0.2204 -0.0790
10437W        W26246   1.517  12.510  14.856 -0.1298  0.4462 -0.1018
10438W        W26247   9.241   3.495  10.778  0.0010 -0.0974  0.3723
10439W        W26248   8.732   7.844  13.927  0.1575 -0.0903 -0.4180
10440W        W26249  14.835  15.092  10.754 -0.0573 -0.0324 -0.1450
10441W        W26250  16.964   5.489   0.105 -0.0115  0.2493 -0.0587
10442W        W26251   1.248   0.692   5.251 -0.0597 -0.0378  0.1472
10443W        W26252  11.527  13.709   0.553  0.0308 -0.2746  0.1447
10444W        W26253   7.749   4.770   3.450  0.1135 -0.0648  0.1067
10445W        W26254   6.409   1.681  11.405  0.0260 -0.3257  0.0878
10446W        W26255  17.344  10.945  13.720  0.1436  0.1231 -0.0027
10447W        W26256   6.333  14.917  14.028 -0.1193  0.0635 -0.1312
10448W        W26257  16.455  10.469  13.873  0.0201  0.1906  0.0283
10449W        W26258   1.268  13.623   3.702 -0.3761  0.1803 -0.1634
10450W        W26259   2.645   0.370   5.763  0.2153 -0.1253  0.1496
10451W        W26260  13.047   7.260  11.025  0.2501  0.1013 -0.0922
10452W        W26261  13.201  14.833   3.876  0.0277 -0.1224 -0.0588
10453W        W26262  11.837  13.981   0.252  0.2029  0.1824 -0.1811
10454W        W26263  16.946   8.014   1.633  0.0717 -0.0356 -0.0549
10455W        W26264   2.712  11.195  14.287  0.0674 -0.1094  0.0707
10456W        W26265   2.171  14.991   0.605  0.3459  0.1096 -0.2268
10457W        W26266  16.839   6.538   4.248  0.2680 -0.0713 -0.2454
10458W        W26267  16.443   0.465   1.492 -0.2997  0.0676  0.1157
10459W        W26268   2.274   8.308   2.328 -0.2629  0.0279  0.3732
10460W        W26269   6.395   9.082   2.167  0.1459  0.2358 -0.1127
10461W        W26270   1.181  12.666   4.021 -0.1692 -0.0856 -0.0982
10462W        W26271   7.382  10.424  10.503  0.2151  0.0011 -0.2866
10463W        W26272   1.445   0.099   2.781  0.1632  0.1469 -0.1366
10464W        W26273  10.990  17.606   1.305 -0.0946 -0.2919  0.0484
10465W        W26274  11.284   0.202  14.739  0.2542 -0.1277  0.5939
10466W        W26275   1.289   4.058   4.813  0.0365  0.0054 -0.0447
10467W        W26276   8.079  14.237   0.605 -0.3592  0.0187  0.0695
10468W        W26277   2.933  18.141   3.981 -0.2536  0.2788  0.0579
10469W        W26278   0.875  17.302   5.026 -0.1022 -0.0412 -0.1131
10470W        W26279  17.910   8.782  13.467 -0.0495  0.1833  0.2322
10471W        W26280  17.951   2.460  14.378 -0.2971  0.2387 -0.0256
10472W        W26281   2.974  13.266   2.388  0.0812 -0.0792  0.1793
10473W        W26282   5.713  10.477   5.381  0.0739 -0.1109  0.2519
10474W        W26283  13.192   0.036   3.254 -0.0239  0.6415  0.1692
10475W        W26284   6.068  18.439  13.706  0.1495 -0.0019  0.0203
10476W        W26285  17.506  15.125   2.434  0.0802 -0.1244  0.4647
10477W        W26286  13.169   2.094   4.982  0.1388 -0.0157  0.4089
10478W        W26287  13.654  14.226   0.319  0.1445 -0.3965  0.0482
10479W        W26288   4.631   9.889   2.638  0.1361  0.0910  0.2308
10480W        W26289   2.723  12.938   5.287  0.0523  0.0609  0.1407
10481W        W26290  11.635  16.701   4.743  0.0000 -0.3453 -0.3825
10482W        W26291   2.877  14.548  12.292 -0.0993  0.2639 -0.0270
10483W        W26292  14.091   9.884   0.909  0.1260  0.1870  0.0415
10484W        W26293  12.563   6.759  12.045  0.1321 -0.1343  0.1177
10485W        W26294   2.881  15.538   0.270 -0.2302 -0.0529 -0.3412
10486W        W26295  15.352   4.998   5.063 -0.1398  0.0890 -0.0885
10487W        W26296   9.615   7.634  11.705 -0.0336  0.0924  0.2489
10488W        W26297   2.094   1.375   0.295  0.2230  0.1821 -0.0109
10489W        W26298  16.029  15.246  11.016  0.0114 -0.1851  0.1189
10490W        W26299   1.507  10.901  10.782  0.0756 -0.1130  0.1934
10491W        W26300  14.306   5.638  15.132  0.2103 -0.2959 -0.2069
10492W        W26301   8.909   7.218   1.788  0.1317  0.3054 -0.0964
10493W        W26302  15.239  10.849  12.433  0.0572  0.1761  0.1365
10494W        W26303  15.821   5.150  12.595  0.0223 -0.0820 -0.0985
10495W        W26304   5.764  14.564   3.517 -0.1326  0.3944  0.2488
10496W        W26305   3.389   1.878   2.163  0.0903  0.1778 -0.1604
10497W        W26306   4.165  10.624  15.633  0.0027  0.0241  0.3387
10498W        W26307   7.482  13.102  12.822  0.0866  0.0976 -0.0666
10499W        W26308  18.242  17.019  14.563  0.0384 -0.0029 -0.1198
10500W        W26309  10.019  13.009   3.227  0.0046  0.0946  0.1608
10501W        W26310  13.268  16.621  10.855  0.4613  0.1665  0.1378
10502W        W26311   1.224   9.010   1.473  0.0325 -0.1849 -0.2915
10503W        W26312  14.485  10.739  14.031 -0.4328  0.0953  0.2673
10504W        W26313  10.692  18.520   4.809 -0.0484 -0.2314  0.0438
10505W        W26314   3.294  13.031   5.320  0.0306  0.1215 -0.1442
10506W        W26315  16.219  10.026  11.171  0.0280  0.0342  0.2175
10507W        W26316   2.268   6.459   4.901 -0.2251 -0.1620 -0.1303
10508W        W26317   1.819   1.377   3.635  0.0075 -0.0466  0.2943
10509W        W26318   6.133   1.820   2.756 -0.3877  0.1929 -0.0117
10510W        W26319   5.060  18.540  15.698 -0.2450 -0.2214 -0.3122
10511W        W26320  11.622  16.402  11.343  0.1411  0.0667  0.1793
10512W        W26321  17.721   9.277   0.395 -0.0031  0.0019 -0.7520
10513W        W26322  12.943   4.275  11.230 -0.1758 -0.1730 -0.0773
10514W        W26323  16.634  11.216  14.844  0.0703 -0.1860 -0.2721
10515W        W26324   3.514   7.719  14.361 -0.0026 -0.0169 -0.1964
10516W        W26325   3.051   9.375  14.646  0.1172  0.0386  0.0169
10517W        W26326   4.437  11.800   3.916 -0.0265 -0.3356 -0.3850
10518W        W26327  18.218   6.929   5.646 -0.0472  0.1190 -0.0985
10519W        W26328   6.146   0.148  11.132 -0.0238  0.1019  0.4191
10520W        W26329  15.657   9.270   5.526  0.1159  0.0060  0.1798
10521W        W26330   9.130   4.749   0.619  0.1776  0.2735 -0.1604
10522W        W26331  12.515  13.950  14.792  0.2639  0.0605  0.2011
10523W        W26332  13.425  15.005   3.039  0.1537 -0.0048 -0.1602
10524W        W26333   7.199  15.689  15.582 -0.0716 -0.0317 -0.1666
10525W        W26334   1.808   5.929  13.317  0.0251 -0.1075  0.0950
10526W        W26335  12.751   0.435  15.241 -0.0667  0.0895  0.1030
10527W        W26336   1.549  16.688   2.030 -0.4685  0.3544 -0.3110
10528W        W26337   0.878   4.010   3.688 -0.2446  0.1610  0.2621
10529W        W26338  10.113  11.366   5.660  0.0661 -0.0762  0.0034
10530W        W26339   7.196  17.782  15.135  0.0627 -0.1737 -0.0964
10531W        W26340  11.932   9.247   5.115 -0.0144 -0.0057  0.0552
10532W        W26341   2.105   4.751  11.952 -0.2497 -0.2532 -0.0205
10533W        W26342  12.302   1.775  11.765 -0.1432  0.0510 -0.3142
10534W        W26343  10.565  17.074   2.639 -0.3106  0.1149 -0.2206
10535W        W26344   1.792  17.222  14.719  0.1347 -0.0538  0.2803
10536W        W26345   1.029   8.286   1.809 -0.0910  0.0426 -0.1385
10537W        W26346   9.898  15.646   4.021  0.0297  0.1339 -0.2703
10538W        W26347   0.504   0.335   2.776  0.4198  0.2642  0.2715
10539W        W26348   4.168  15.534   2.315 -0.0553  0.0459  0.0339
10540W        W26349  10.115  11.126  15.518  0.1313  0.3152 -0.0813
10541W        W26350   8.936   0.221   2.271  0.0689  0.0398  0.0447
10542W        W26351  13.111   3.367  11.552 -0.1726  0.2836  0.3390
10543W        W26352   4.484   6.656   2.933  0.1108  0.1580 -0.1439
10544W        W26353  11.860  10.738  10.684  0.1790 -0.1299 -0.0797
10545W        W26354  10.476  15.594  15.283 -0.2907 -0.0967  0.0793
10546W        W26355   4.765   6.528   1.074  0.4371  0.0119  0.0311
10547W        W26356  15.110   9.196   5.579 -0.1476 -0.0388  0.1270
10548W        W26357   5.090   5.860  11.149  0.0701  0.1221 -0.0550
10549W        W26358   5.616   4.557   0.945 -0.0720 -0.2162 -0.0073
10550W        W26359   9.890  14.175  14.638 -0.1435  0.0068 -0.3589
10551W        W26360   2.603   8.850  14.093 -0.1099 -0.1059  0.1617
10552W        W26361   3.366  18.285  10.067  0.2395  0.2280  0.3242
10553W        W26362  15.507   9.786   5.000  0.1941 -0.3820 -0.1452
10554W        W26363  14.205   4.800   2.867  0.0044  0.2482  0.2430
10555W        W26364  15.994   5.284   4.625  0.1005  0.0732  0.1390
10556W        W26365   5.772   8.520   2.594  0.1588  0.2138  0.0962
10557W        W26366  13.372   9.942  14.121  0.0060  0.1252 -0.0599
10558W        W26367  14.378   6.252   2.634  0.1280  0.5684  0.1993
10559W        W26368   7.878   2.859   1.534  0.2149  0.0145 -0.1965
10560W        W26369  13.005   9.119   4.152 -0.2504  0.0784  0.2824
10561W        W26370   3.975  15.947  13.806 -0.4515  0.0610  0.3302
10562W        W26371  14.697   3.436   5.055  0.1135 -0.3454  0.0854
10563W        W26372  17.733   4.350   2.907  0.0014 -0.0811 -0.3069
10564W        W26373  16.772   8.215  13.256 -0.2273  0.1661 -0.0005
10565W        W26374   0.310  12.111   2.264 -0.1565 -0.1706 -0.0111
10566W        W26375   2.031  11.173   2.619 -0.2196 -0.1539 -0.2997
10567W        W26376   3.704   8.352  13.643 -0.1628 -0.2366  0.1269
10568W        W26377  12.876  16.212  10.856 -0.1088  0.1918  0.0066
10569W        W26378  16.285  18.168   1.875  0.2809 -0.1681 -0.0135
10570W        W26379  14.820   7.448  13.833  0.4275 -0.2420 -0.0235
10571W        W26380  13.710  11.723  15.096  0.1414 -0.1155 -0.1274
10572W        W26381  18.133  11.980  11.209  0.1103 -0.0926  0.0706
10573W        W26382   7.534   8.829   0.399 -0.0622  0.2968  0.0601
10574W        W26383  15.924   0.188   4.011  0.0154  0.0757  0.1513
10575W        W26384  10.340  18.170   1.582 -0.0746  0.1845 -0.2216
10576W        W26385   3.579   3.660  14.966 -0.3210  0.0144  0.3192
10577W        W26386   3.820  18.450  13.945 -0.2178 -0.2051  0.2316
10578W        W26387   5.803   4.172   2.083  0.1568 -0.4088  0.0447
10579W        W26388   3.271   9.043   4.736  0.2952  0.0666  0.0471
10580W        W26389   1.966  18.471   0.571 -0.0271  0.0477  0.1084
10581W        W26390   3.031   1.182  14.912 -0.0315 -0.3157  0.0120
10582W        W26391   8.771  17.945  12.921  0.0682 -0.2088  0.0121
10583W        W26392   9.748  12.913   2.482  0.0176  0.3257  0.2310
10584W        W26393   5.238  12.876   2.780 -0.0796 -0.0033  0.1002
10585W        W26394   9.272   0.903  12.263 -0.0312 -0.2280  0.2236
10586W        W26395  11.911   1.262   3.631  0.1762  0.0310  0.3359
10587W        W26396   2.017  18.484  15.392 -0.2289 -0.0465  0.0976
10588W        W26397  13.765   4.888  15.643 -0.3085  0.0445  0.1455
10589W        W26398  16.251  12.632   2.208  0.2264  0.2275 -0.1944
10590W        W26399  12.046   4.353   2.055 -0.1751  0.0009 -0.1032
10591W        W26400  18.661  17.885  13.779  0.0274 -0.4186 -0.1545
10592W        W26401   4.570  16.903   0.153 -0.0893 -0.2981 -0.1473
10593W        W26402  17.020   6.855   2.950 -0.1928  0.0749  0.0580
10594W        W26403  17.400  15.087   0.414  0.1579  0.0566  0.1211
10595W        W26404   6.351   7.688   2.223 -0.3006 -0.1236  0.2654
10596W        W26405   0.905   9.906   0.887 -0.0041 -0.0450  0.1740
10597W        W26406  14.103   1.367   3.982  0.0970  0.0594 -0.1795
10598W        W26407  18.625  10.516   4.700 -0.0694 -0.1283 -0.0888
10599W        W26408  14.006  10.988  13.270  0.1979  0.2900 -0.4012
10600W        W26409   4.618   5.964  12.374  0.0546  0.0503 -0.2504
10601W        W26410  10.325   7.221   2.057  0.0242 -0.2167  0.3001
10602W        W26411  14.449   1.757   0.512 -0.0237 -0.1341  0.2287
10603W        W26412  12.442   9.602   1.249 -0.1687 -0.1238  0.0345
10604W        W26413   0.911  15.586  11.406 -0.2207 -0.0840  0.2465
10605W        W26414  14.698   0.872  14.651 -0.2581  0.3627 -0.2213
10606W        W26415   6.916  10.507   2.330  0.0408  0.0764  0.4124
10607W        W26416  15.974   7.719  14.568  0.2321  0.1556  0.0310
10608W        W26417   0.786   7.275  13.907 -0.1017  0.0924 -0.1532
10609W        W26418  12.285  15.115   2.072  0.1787 -0.0118 -0.2464
10610W        W26419  17.581   1.162   1.905  0.3189  0.0285  0.0755
10611W        W26420  18.408  10.426  12.742  0.0803  0.0315  0.1062
10612W        W26421   4.890  12.992  14.754 -0.1943 -0.1812  0.3768
10613W        W26422  15.009  15.475  15.536  0.0498 -0.1404 -0.0493
10614W        W26423  15.205  11.150   2.530 -0.2032  0.0992 -0.2458
10615W        W26424   8.084   3.492   3.991 -0.2107 -0.0211  0.0964
10616W        W26425  10.693  15.669  10.311  0.2263  0.0231  0.1303
10617W        W26426   2.532   8.084   2.788 -0.1498 -0.0424  0.0507
10618W        W26427   8.225   2.721   2.260 -0.3861 -0.0198 -0.1060
10619W        W26428   9.915   7.967   4.540  0.0097  0.0879 -0.1616
10620W        W26429   3.687  10.445   2.159  0.0465 -0.4758  0.0363
10621W        W26430   9.675  13.894   2.368 -0.4443  0.2948 -0.1133
10622W        W26431   8.004  10.656  14.621 -0.0583 -0.1741  0.0536
10623W        W26432  18.261  14.130   0.321 -0.0380  0.0026  0.0531
10624W        W26433  13.397  17.165  14.301  0.0288 -0.0359  0.1428
10625W        W26434   2.587   3.342  11.598  0.0898 -0.0922  0.2845
10626W        W26435   1.273  13.235   0.284  0.1171 -0.0482  0.1694
10627W        W26436   5.943   6.559   4.665  0.1879 -0.0292  0.1844
10628W        W26437  18.550   1.943   1.466  0.1149 -0.0774  0.0946
10629W        W26438   4.838  11.133  12.726 -0.0653  0.0830 -0.1095
10630W        W26439   9.397   1.195   4.630 -0.2322  0.2039  0.2980
10631W        W26440   0.217  17.729   3.377 -0.0392  0.0471  0.1553
10632W        W26441   3.560   2.683   2.356  0.5994  0.2057 -0.3269
10633W        W26442   3.612  10.824  11.496  0.4633  0.0443  0.0542
10634W        W26443  16.810   3.100  11.463  0.1060  0.0330 -0.0923
10635W        W26444   8.146   8.246  12.321  0.3455  0.0895 -0.0639
10636W        W26445   0.962  11.100   5.035  0.0771 -0.0114  0.1509
10637W        W26446  14.955   9.715   0.155  0.3831 -0.0331 -0.4342
10638W        W26447   9.708  18.480   1.951  0.2744  0.2306  0.3410
10639W        W26448   4.906   7.802   0.343 -0.1097  0.0713 -0.2312
10640W        W26449  17.264  18.239   4.734 -0.0944 -0.5241  0.1604
10641W        W26450   2.752   0.257   4.590 -0.0056  0.0139  0.0963
10642W        W26451  11.027   5.057   1.902  0.0845  0.3578 -0.0526
10643W        W26452   0.229   2.235  14.557  0.1033 -0.0708  0.2941
10644W        W26453  17.980  15.807   4.275 -0.0767 -0.0907  0.0124
10645W        W26454   5.975   5.553   0.228 -0.1825 -0.1086  0.1463
10646W        W26455  15.510   3.204  10.793 -0.4406  0.2166 -0.0012
10647W        W26456  18.094   3.264  10.755  0.0936 -0.3937 -0.1374
10648W        W26457   5.136   0.517   4.327  0.1926  0.0578 -0.0991
10649W        W26458  13.336   0.147   3.963 -0.1305 -0.1600  0.3844
10650W        W26459   3.084  15.672   5.055  0.1072  0.0804  0.2350
10651W        W26460   1.579  10.743   1.921  0.1461  0.1862 -0.0545
10652W        W26461   2.564   9.168   0.098 -0.0859 -0.1525 -0.1189
10653W        W26462  16.487   4.662  14.955 -0.0824 -0.0657 -0.2242
10654W        W26463  15.955  16.606  15.312 -0.0330  0.2134 -0.1994
10655W        W26464  16.947   1.623  14.625  0.0694 -0.0600  0.2134
10656W        W26465   2.917   8.363   2.942 -0.2775  0.0598  0.1961
10657W        W26466   3.835  17.179  14.692 -0.0267  0.0038 -0.0898
10658W        W26467  10.532  13.672   4.178 -0.1052  0.1651 -0.1014
10659W        W26468   4.095   8.171   5.304  0.0101 -0.0855  0.1178
10660W        W26469  17.058  10.924   5.175 -0.0422  0.0189  0.4841
10661W        W26470  16.540   3.246  15.375 -0.2363  0.2415 -0.1665
10662W        W26471   8.348   2.293   4.171 -0.0283 -0.2575 -0.1643
10663W        W26472   7.097  13.991   3.460  0.0833  0.2485  0.1883
10664W        W26473   2.877   8.958   1.051  0.0299  0.1693  0.2618
10665W        W26474  13.910   0.604  14.119 -0.0456 -0.2356  0.0408
10666W        W26475   4.572   1.969  10.911  0.1241  0.1519  0.2103
10667W        W26476   4.296   1.391  10.039  0.0909  0.0734  0.1895
10668W        W26477  15.879  10.808   0.463  0.2624 -0.2121 -0.1234
10669W        W26478  18.136  12.882   4.745 -0.0123 -0.1052 -0.0080
10670W        W26479  17.989  13.176   2.089  0.3688 -0.0311 -0.1561
10671W        W26480   2.607  10.539   3.139 -0.0136 -0.1587 -0.3245
10672W        W26481   9.256   8.428   5.642 -0.2343  0.2709 -0.2309
10673W        W26482  15.934  13.347  11.283  0.1000 -0.0881  0.1147
10674W        W26483  15.636  14.737  10.907 -0.1324 -0.0874 -0.0853
10675W        W26484   1.766  15.732  11.031 -0.1776  0.0134 -0.1069
10676W        W26485  14.954  17.158  13.375  0.1445 -0.0820 -0.3563
10677W        W26486  11.507  11.294   4.729  0.0669 -0.1011  0.1896
10678W        W26487  15.587   9.033   2.192  0.0851  0.0412  0.1945
10679W        W26488  15.486   0.587   0.501 -0.1921  0.0387  0.4887
10680W        W26489   8.260   2.376   1.876  0.0721  0.0932 -0.0774
10681W        W26490  12.164   8.852   4.375  0.2399  0.2638  0.3848
10682W        W26491  12.023   4.422   0.337  0.1346 -0.0089 -0.0820
10683W        W26492  14.042  17.139   2.469  0.2508  0.0823 -0.0498
10684W        W26493   1.329   1.567  12.165  0.4017  0.0414  0.2254
10685W        W26494   9.982   5.149   1.292 -0.3388  0.1437 -0.1002
10686W        W26495  16.021   2.830  11.943 -0.0136  0.0554  0.2283
10687W        W26496   4.316   5.614   3.107 -0.0066  0.0135 -0.1719
10688W        W26497   3.361   4.233  12.363  0.1004  0.0675  0.0038
10689W        W26498   1.582  12.561   3.165  0.1093 -0.1595 -0.0361
10690W        W26499   6.550  11.869  11.002 -0.0552  0.1946  0.2327
10691W        W26500  11.321   8.711   3.451 -0.4070  0.0048 -0.1392
10692W        W26501   2.945  16.923   0.645  0.0528  0.2654 -0.2306
10693W        W26502   4.891   3.329  13.862 -0.0756  0.0415 -0.1582
10694W        W26503   7.192  12.142  10.500  0.1282 -0.0401 -0.0716
10695W        W26504   6.867  13.049   4.665 -0.2774 -0.2439 -0.2460
10696W        W26505  11.871   1.468   2.706  0.3735 -0.0705  0.0596
10697W        W26506  10.269  13.206   3.945 -0.2416 -0.0807  0.1755
10698W        W26507   4.302  10.223  13.958  0.0952 -0.3957  0.0890
10699W        W26508  13.289  13.930   1.872 -0.0361  0.1743 -0.0584
10700W        W26509   8.533   8.921   4.324  0.1273  0.1983 -0.0354
10701W        W26510  18.137  12.598   1.364 -0.1116 -0.2210  0.1094
10702W        W26511  14.041   0.345   1.191  0.2536 -0.1492 -0.1217
10703W        W26512   8.924   2.690  14.714 -0.1413  0.1062 -0.0529
10704W        W26513  16.161   0.786   1.052 -0.0891 -0.0831 -0.1766
10705W        W26514   2.617  16.597  15.555 -0.1520 -0.3041 -0.0889
10706W        W26515  15.933   3.448   0.885 -0.0584  0.0010  0.1235
10707W        W26516   2.644  12.969  12.897 -0.1961  0.4703 -0.4603
10708W        W26517   9.907   0.475   1.715 -0.0448 -0.0206 -0.3598
10709W        W26518  12.735  17.274   1.421  0.1101  0.2411  0.0253
10710W        W26519  18.155  12.510  10.918  0.1343  0.1731  0.4073
10711W        W26520  13.110   5.348  12.499  0.2681 -0.2750  0.3195
10712W        W26521  14.158   8.289  13.997 -0.2018 -0.1031 -0.2317
10713W        W26522   8.505  17.530  13.869 -0.0021 -0.1157 -0.2055
10714W        W26523  10.760  13.830   3.296 -0.1534 -0.0419 -0.1044
10715W        W26524  11.697   8.215  15.733 -0.2963 -0.3968 -0.1991
10716W        W26525   8.153  12.760  13.273  0.0370  0.1809 -0.1243
10717W        W26526  16.855   1.788  11.469 -0.0445  0.2318  0.1325
10718W        W26527   4.125   3.790   0.406 -0.0369 -0.1196  0.1090
10719W        W26528  13.347  14.377   3.743 -0.0167 -0.1961 -0.0019
10720W        W26529  11.238   4.604  15.228  0.0346  0.0149 -0.0201
10721W        W26530  14.297  18.043  13.585 -0.2750  0.1871 -0.2432
10722W        W26531  13.737  16.907   3.744  0.0324  0.1563  0.2519
10723W        W26532   5.343   6.042  12.961 -0.2335  0.0560 -0.0878
10724W        W26533   6.298   1.975  12.252  0.0906  0.3518  0.2191
10725W        W26534  13.556   0.761  13.684  0.1767 -0.0440 -0.0932
10726W        W26535   6.195  10.902  14.041  0.0293  0.0110 -0.2588
10727W        W26536  17.470  14.452  12.735 -0.0273  0.0260 -0.0717
10728W        W26537   4.371   0.449   3.055  0.0251  0.2012 -0.1934
10729W        W26538  14.483   9.243   0.777 -0.1143  0.3446 -0.0445
10730W        W26539  17.355   6.394   2.362 -0.1656 -0.1118  0.1529
10731W        W26540  10.359   0.369  11.141  0.2862 -0.0408 -0.2350
10732W        W26541   8.754   1.752   5.051 -0.2254  0.1164 -0.1351
10733W        W26542   4.284   7.958   1.881 -0.0121 -0.3122  0.0551
10734W        W26543   9.913  12.954  13.973 -0.3757  0.0614 -0.0069
10735W        W26544   1.122  12.187   3.869  0.0299 -0.0353  0.1643
10736W        W26545   0.039   3.722   3.143  0.4151 -0.0767  0.2048
10737W        W26546   3.676  16.550  11.229 -0.1032 -0.1471 -0.0662
10738W        W26547   5.323   2.352  11.206 -0.0574 -0.1132 -0.1311
10739W        W26548   1.246  12.986   3.116  0.2791 -0.0656 -0.2321
10740W        W26549   6.078  18.211  12.342  0.0768 -0.1192  0.0562
10741W        W26550   6.355  13.643   5.798 -0.3356 -0.0851  0.3688
10742W        W26551  13.513   4.951   4.702 -0.5487  0.0066 -0.0444
10743W        W26552   9.832  11.233   3.689  0.0692  0.1530  0.0500
10744W        W26553   7.981  11.135  10.032 -0.1758  0.0721 -0.2068
10745W        W26554   4.581  14.698   5.486  0.3468  0.2185 -0.1900
10746W        W26555  10.356   4.305   4.245 -0.1792 -0.0293 -0.3445
10747W        W26556   9.136  13.904   0.464 -0.5142 -0.2538 -0.0432
10748W        W26557   4.852  12.250  11.358  0.2211 -0.0389  0.0061
10749W        W26558  11.711  10.585  15.240  0.2438  0.0843 -0.0591
10750W        W26559  12.947   0.143   2.826  0.0433  0.0684  0.0134
10751W        W26560   8.787   6.778   4.082 -0.0313 -0.1999 -0.1236
10752W        W26561  15.778   4.941  14.181  0.0022 -0.0581 -0.2784
10753W        W26562  18.134  11.570  11.595  0.0482  0.1232 -0.1074
10754W        W26563  18.067  18.415   0.574 -0.2987  0.3120 -0.4163
10755W        W26564   8.899   4.170   3.148  0.0711  0.1006  0.1581
10756W        W26565   4.925   1.402   0.097  0.0349  0.0446  0.2918
10757W        W26566  16.064   7.087  15.409 -0.2827  0.0558  0.0842
10758W        W26567  13.941  17.655  12.887 -0.2945  0.0098 -0.1949
10759W        W26568   8.676   2.059  13.759  0.0675 -0.0643 -0.2554
10760W        W26569   4.947   4.913  15.293 -0.0729  0.3747 -0.1936
10761W        W26570  12.279   7.204  12.829 -0.0504 -0.0734 -0.0319
10762W        W26571   6.579   5.457   0.677 -0.0471  0.2647  0.0569
10763W        W26572   2.688  14.392   6.398 -0.1004  0.0204  0.1171
10764W        W26573  16.693   2.780   2.097 -0.2680  0.2957  0.0645
10765W        W26574  15.526   8.403  12.253 -0.1168 -0.1782 -0.1493
10766W        W26575   3.054  12.574   5.411  0.1716 -0.2209 -0.0282
10767W        W26576  13.107  15.848   3.602 -0.0186  0.0066  0.2352
10768W        W26577   6.459   5.980  10.787 -0.0001 -0.5214  0.0639
10769W        W26578  13.454  14.536   9.461  0.1753  0.0412  0.0951
10770W        W26579  18.271   6.575   4.813  0.0278  0.0701  0.0490
10771W        W26580  15.926  16.931   1.181 -0.0521  0.0938 -0.0912
10772W        W26581   9.809   8.354   1.364  0.2882 -0.1291 -0.1786
10773W        W26582  11.159  15.824  11.807  0.1367 -0.0117  0.2371
10774W        W26583   7.479  10.997   3.497  0.0838 -0.0697 -0.2454
10775W        W26584   3.166  15.407   3.839  0.0997  0.0807 -0.1793
10776W        W26585   9.511   8.514  15.469  0.2179 -0.0570 -0.2008
10777W        W26586   0.566   5.562  15.176  0.0644  0.0953  0.1504
10778W        W26587  17.298  17.611   0.861 -0.2314 -0.1091  0.2365
10779W        W26588   5.196   3.467  15.720  0.2350  0.2307 -0.1340
10780W        W26589   2.093  17.320  11.077  0.0816  0.1017 -0.3523
10781W        W26590   4.182   9.627   0.380  0.3158 -0.0827 -0.2388
10782W        W26591   9.112   8.799   0.987  0.0214 -0.0043 -0.0395
10783W        W26592   6.616  10.656   0.972  0.1655 -0.1219  0.1544
10784W        W26593   9.072  14.180  15.430 -0.1038  0.2515  0.2654
10785W        W26594   0.360  11.749   0.814 -0.2175 -0.2542  0.0607
10786W        W26595   5.338   3.709  13.331  0.1292  0.1317  0.3725
10787W        W26596  12.321  17.965   0.744  0.3627  0.1054 -0.1242
10788W        W26597   1.260   9.509   5.730 -0.0200 -0.0284  0.0462
10789W        W26598   1.866   9.165  15.175  0.1879  0.1854 -0.0680
10790W        W26599  11.528  14.529  11.509  0.0012  0.1430 -0.1505
10791W        W26600   1.818   2.968   3.372 -0.2537 -0.0510 -0.0874
10792W        W26601  12.021   4.901   0.158 -0.0025 -0.0736 -0.3796
10793W        W26602  17.487  12.165   4.478  0.1262 -0.3168 -0.1220
10794W        W26603  11.353   2.658   1.812  0.0086 -0.1226 -0.0917
10795W        W26604   4.904   3.430  14.410 -0.1363 -0.0052 -0.0085
10796W        W26605  10.102   4.913  12.136  0.0001 -0.1385 -0.1836
10797W        W26606  14.802   2.955   1.835 -0.3847 -0.2071  0.2942
10798W        W26607  14.577  11.566   3.716 -0.2273  0.0799 -0.0170
10799W        W26608   5.213  11.023   4.611  0.1510 -0.0554 -0.0299
10800W        W26609   7.520  17.799   4.160 -0.0298  0.0708 -0.0334
10801W        W26610  18.427  17.302   3.086  0.1154  0.0834  0.0539
10802W        W26611  10.510  16.264   3.825  0.0113 -0.1652  0.0965
10803W        W26612   1.206   0.299  10.772  0.0613 -0.0785 -0.1194
10804W        W26613   6.997   0.360  11.098  0.0277  0.2772  0.0200
10805W        W26614  10.176  18.291   3.975  0.1851 -0.0061 -0.0317
10806W        W26615   0.493  15.079   4.231  0.0809 -0.1238 -0.2110
10807W        W26616  16.061  17.403  11.869 -0.0683  0.3047  0.0269
10808W        W26617   7.507   4.596  15.563 -0.1661  0.3914  0.2161
10809W        W26618   8.447   6.397  13.643 -0.1740 -0.0971 -0.0767
10810W        W26619  15.817  15.168  14.385 -0.1057  0.0994 -0.0741
10811W        W26620   5.750   8.800   4.154 -0.1580 -0.0777 -0.4236
10812W        W26621   8.659   8.750   5.289 -0.1574 -0.0759  0.2345
10813W        W26622   5.175   1.203   5.457  0.1042  0.0544  0.1150
10814W        W26623  15.282  12.134   4.481 -0.0574  0.0366  0.2012
10815W        W26624  17.799   1.254  14.069  0.1256 -0.1862 -0.0940
10816W        W26625   1.119  18.582   4.151 -0.1090  0.0096  0.2271
10817W        W26626  14.389   3.598  15.622  0.0179 -0.1362 -0.3595
10818W        W26627   8.099   4.657  10.964 -0.0650  0.1203  0.2227
10819W        W26628   9.596   1.226  12.029 -0.0823 -0.0626 -0.1339
10820W        W26629  13.079   5.150  15.086  0.0588  0.1793 -0.0025
10821W        W26630  15.373   7.682  15.042  0.0599 -0.1030  0.0129
10822W        W26631   5.184   2.532  11.687  0.0076  0.1166  0.1208
10823W        W26632   6.104   1.741   0.706  0.2180  0.0587  0.3275
10824W        W26633   5.383   7.436   1.177  0.2024  0.0135  0.0371
10825W        W26634   9.477  15.609   4.308  0.0956  0.0121 -0.0334
10826W        W26635  13.507   1.756  13.598  0.0794  0.1299  0.4343
10827W        W26636   6.168   7.757   0.965 -0.0933 -0.1001 -0.2377
10828W        W26637  11.912  12.211   0.766  0.1067 -0.1787 -0.0951
10829W        W26638  10.521  13.932   1.411  0.1360 -0.0008 -0.3976
10830W        W26639  15.178  17.414   2.238 -0.2327  0.2000 -0.2490
10831W        W26640  12.091   9.030  14.703  0.0288  0.1759  0.2298
10832W        W26641  12.265   2.691  11.950 -0.0108 -0.3044 -0.2252
10833W        W26642   0.107   4.590   1.393 -0.2547 -0.0828 -0.0253
10834W        W26643   3.738   0.351   3.747  0.0774  0.0752 -0.1627
10835W        W26644   8.844  15.693  13.267 -0.4672  0.1848 -0.1301
10836W        W26645   2.402  14.321  14.184 -0.0887  0.5644 -0.0105
10837W        W26646   9.618  12.480   0.020 -0.1230 -0.2213 -0.1911
10838W        W26647  16.816  10.368  15.084  0.0857  0.0893  0.1506
10839W        W26648   2.377   3.754   1.863 -0.2421 -0.0283 -0.3679
10840W        W26649  16.190   3.889  13.807  0.0820 -0.1360 -0.1165
10841W        W26650  11.128  17.858   5.208  0.1891 -0.3750 -0.3996
10842W        W26651  17.275   5.112   1.027  0.2252 -0.0669 -0.0493
10843W        W26652   2.701  11.005  11.483  0.4045  0.2552  0.3739
10844W        W26653   5.829  13.363   0.152 -0.2108  0.1782  0.1850
10845W        W26654   3.211  13.192   4.007  0.0280 -0.0200  0.0773
10846W        W26655  10.671  15.108  13.720 -0.0910  0.0492 -0.0090
10847W        W26656  13.362   6.556   0.501  0.2309  0.0501 -0.1706
10848W        W26657   4.598   4.826   5.659  0.1811 -0.3454  0.2696
10849W        W26658   7.042  16.008  14.600 -0.0629 -0.0440 -0.2984
10850W        W26659   3.950   5.906  12.657 -0.0130  0.2967 -0.0503
10851W        W26660  14.904  11.174  12.152 -0.1319 -0.1238 -0.3818
10852W        W26661  15.847   5.054   0.638 -0.1108 -0.0013  0.0877
10853W        W26662   4.055   6.442   5.239 -0.0388  0.0117  0.0775
10854W        W26663  14.411  16.979   0.307 -0.0388  0.1882 -0.2088
10855W        W26664   0.522  11.998  12.261  0.2424 -0.1705  0.1777
10856W        W26665   4.039  17.957   5.212 -0.2705 -0.0845 -0.1853
10857W        W26666   5.632  16.785  10.807 -0.1872 -0.2679  0.1493
10858W        W26667   1.359  14.311  12.237 -0.1675  0.4025  0.0452
10859W        W26668   3.762   0.816   4.503 -0.3510 -0.2826  0.2965
10860W        W26669   8.348   1.180  12.228 -0.1246  0.2389 -0.2820
10861W        W26670   0.750  12.546  14.264  0.0585 -0.2273  0.0977
10862W        W26671  16.350  10.979   1.551  0.0646 -0.0319 -0.1383
10863W        W26672  14.696  16.602   0.659  0.0785  0.0384  0.0998
10864W        W26673   4.809   2.454   0.782  0.1358  0.0717  0.0348
10865W        W26674  17.036   3.499  11.719 -0.0358  0.0542  0.4803
10866W        W26675  16.343   9.590  13.967  0.2047 -0.6027 -0.2811
10867W        W26676  15.781  10.949   5.117 -0.0188  0.1873  0.1992
10868W        W26677   0.565  12.262   9.931  0.1155 -0.1860  0.1518
10869W        W26678  11.015   5.273  13.111  0.0853  0.2749  0.0237
10870W        W26679  15.536   9.331  13.405 -0.1320 -0.2574  0.2764
10871W        W26680   6.676   4.604   2.457  0.2257  0.4406  0.0251
10872W        W26681  11.288  12.349  12.353  0.2015  0.0608  0.0534
10873W        W26682  17.054  15.908  14.138  0.3021  0.1376 -0.0337
10874W        W26683  15.254  10.166  13.931  0.0196 -0.1218  0.1801
10875W        W26684   6.514  16.568   2.290  0.1456 -0.0810  0.1042
10876W        W26685   2.582  10.258   5.181 -0.3186 -0.0040  0.0708
10877W        W26686  17.809   2.066  14.634  0.1260 -0.1063  0.0532
10878W        W26687   4.375  17.112   4.972 -0.0218  0.1286  0.2321
10879W        W26688   5.898  13.767   3.485 -0.0130  0.0585  0.5376
10880W        W26689  14.573   9.544  15.523 -0.1400 -0.0151 -0.1243
10881W        W26690  11.514   9.797   0.718 -0.1952 -0.1912  0.1133
10882W        W26691  14.327  11.403  11.515 -0.0345  0.1350 -0.0989
10883W        W26692   0.965  17.639   0.384  0.0176  0.0457  0.5292
10884W        W26693   1.923  11.681   1.045  0.2538 -0.0674 -0.0335
10885W        W26694  15.808   3.121   0.369 -0.1365  0.0746 -0.0432
10886W        W26695  14.734   2.162  11.342 -0.1552  0.0616  0.3341
10887W        W26696  16.872  16.865   2.246  0.2620 -0.0391  0.0475
10888W        W26697  13.832   2.539   9.830  0.0360  0.0612 -0.2412
10889W        W26698  10.735   4.665  15.356  0.1373 -0.1715 -0.1231
10890W        W26699   5.814   9.460  15.325 -0.0190  0.0753 -0.0272
10891W        W26700  13.973  16.234   2.712 -0.2166 -0.1650  0.1681
10892W        W26701   4.980  11.449   2.395 -0.2101  0.0406  0.0757
10893W        W26702  12.164   0.945   3.937 -0.2524  0.0637  0.0670
10894W        W26703   9.518  14.398  15.492  0.1506 -0.3077  0.0580
10895W        W26704   5.084  16.151   2.394 -0.0066  0.0367 -0.0567
10896W        W26705   3.397   6.970   1.383  0.2431  0.1273  0.2654
10897W        W26706   2.467   5.528  10.320 -0.1486  0.0434  0.1303
10898W        W26707   0.914   0.215   5.650 -0.0520 -0.0750  0.1175
10899W        W26708   5.019   8.171   3.835  0.1266  0.2182 -0.1405
10900W        W26709   5.474   4.180  12.148 -0.2350 -0.2743 -0.1078
10901W        W26710   3.061  10.845   3.199 -0.1751 -0.0924 -0.0463
10902W        W26711   4.177   7.072   4.097 -0.1890 -0.0681  0.0881
10903W        W26712   6.270   5.498  11.930  0.0455 -0.2990  0.0198
10904W        W26713  17.704  12.342  14.070 -0.2769 -0.0696  0.2840
10905W        W26714  14.914  17.019   0.391  0.3037 -0.0945  0.0175
10906W        W26715   8.142   8.276   2.406  0.0541  0.3405 -0.0956
10907W        W26716   2.638  10.776  15.390  0.0595  0.0894  0.1757
10908W        W26717  17.880   5.887   0.462  0.2986 -0.2239  0.1498
10909W        W26718  14.940   6.180   2.405  0.0069  0.3298  0.5169
10910W        W26719   3.445   7.141  15.444 -0.0557 -0.1752  0.0630
10911W        W26720   3.430   4.174   0.898 -0.2129 -0.2189 -0.0288
10912W        W26721  18.529   4.180  12.547  0.1446 -0.0216  0.1839
10913W        W26722  14.816  10.815  15.602 -0.2012 -0.0078 -0.0929
10914W        W26723  16.500   1.086   4.772  0.2045  0.2954  0.1543
10915W        W26724   5.416   2.927  12.541  0.2873  0.0088  0.0195
10916W        W26725   2.639  15.073   3.656  0.2604 -0.0677  0.0304
10917W        W26726  14.489   9.501  10.975 -0.0596  0.0629 -0.3560
10918W        W26727  11.413   9.659   1.820  0.2971  0.2065 -0.0911
10919W        W26728  14.136  16.613  15.235  0.2709 -0.0152  0.1491
10920W        W26729  17.132  15.450   4.241 -0.1860  0.0479 -0.0294
10921W        W26730   3.830  18.336  10.026 -0.2333  0.4302  0.0567
10922W        W26731   6.674  12.798  12.197  0.3324 -0.3245  0.0804
10923W        W26732   2.456   1.867   1.787 -0.1228 -0.0748 -0.1105
10924W        W26733  11.472  14.620   4.522 -0.2672 -0.0193  0.1691
10925W        W26734  11.452  14.143   4.394  0.3856 -0.3375  0.1903
10926W        W26735   3.378  18.555  14.369  0.3497  0.2096  0.0757
10927W        W26736   1.557   3.404   3.605  0.2724  0.2215  0.0400
10928W        W26737  12.202  10.630  15.315 -0.0206  0.1961 -0.1800
10929W        W26738   0.268  15.515  14.626  0.0057 -0.4245  0.0068
10930W        W26739  12.041   7.091   5.524  0.0365  0.0300  0.0378
10931W        W26740   6.791   1.301   3.340 -0.2887 -0.0285 -0.1886
10932W        W26741   2.950   6.047   1.257  0.2235  0.4535 -0.0268
10933W        W26742  14.773   7.051  12.584 -0.0042  0.0746  0.0873
10934W        W26743   8.160  16.105  15.437  0.1360 -0.2253  0.0800
10935W        W26744  10.038   7.948   5.026  0.3075  0.0856 -0.0954
10936W        W26745   3.004  11.525  12.437 -0.0084 -0.1024 -0.3072
10937W        W26746   7.824  13.901  12.092  0.0825 -0.0601 -0.0054
10938W        W26747   7.178  11.576   1.946  0.3365 -0.1444  0.2252
10939W        W26748   2.052   1.155  11.007  0.1225 -0.1665  0.0331
10940W        W26749  13.601  10.982   2.814 -0.1819 -0.0838  0.2488
10941W        W26750   7.945  16.205   3.493  0.0840 -0.0362  0.1218
10942W        W26751   4.148  14.697   4.726 -0.0874 -0.0023 -0.0966
10943W        W26752   9.387   2.704  11.553  0.1452 -0.0196 -0.0795
10944W        W26753  10.775   4.041  13.192  0.4720  0.0350  0.0031
10945W        W26754  12.010  17.248  11.554  0.2654  0.0470 -0.2321
10946W        W26755  16.461  12.489  11.448 -0.0658  0.2997  0.0199
10947W        W26756  10.629  17.138  10.083  0.0127 -0.1410  0.1662
10948W        W26757   0.530   4.888   5.078 -0.1707 -0.4899 -0.3650
10949W        W26758  12.327   5.248   3.963  0.1129 -0.2383  0.2186
10950W        W26759  12.789  17.629  10.812 -0.2554 -0.0679  0.3518
10951W        W26760   0.258  12.539  13.244 -0.2057 -0.0546 -0.2585
10952W        W26761   5.054  11.929  15.432  0.1743  0.0722 -0.0195
10953W        W26762   9.374   3.978   4.949 -0.0850 -0.0057  0.0934
10954W        W26763   8.892  10.341   0.025  0.1320 -0.1686 -0.0977
10955W        W26764  12.611   9.601  13.052  0.1062 -0.1056  0.1179
10956W        W26765   1.664   7.290   5.860 -0.6342 -0.0266 -0.2451
10957W        W26766  16.974   6.385  14.309 -0.0013  0.2932  0.0461
10958W        W26767  14.923   1.697  12.951 -0.0916 -0.2334 -0.1691
10959W        W26768   4.462  16.308   9.729  0.1976 -0.0570 -0.0872
10960W        W26769   9.592   1.961   2.355  0.0500 -0.2065  0.2558
10961W        W26770  11.837   7.991  12.750  0.0894 -0.0183  0.2755
10962W        W26771   7.779   5.416  13.259 -0.2168 -0.3623 -0.2724
10963W        W26772   8.025   7.339   0.503  0.3362  0.2378  0.1398
10964W        W26773  13.803  17.053   1.923  0.2794 -0.0394 -0.0526
10965W        W26774  14.363  14.962   3.202 -0.2204  0.2226  0.0046
10966W        W26775   5.946   1.479  14.139 -0.0925 -0.2169 -0.1060
10967W        W26776   1.237  15.570   5.856 -0.3736 -0.1251 -0.0262
10968W        W26777  15.319  10.142   5.346  0.3440 -0.0244 -0.0059
10969W        W26778  13.625   8.614   4.268 -0.4688 -0.0375  0.1339
10970W        W26779  17.336  16.144  12.888 -0.0113 -0.1484  0.1369
10971W        W26780  11.699  13.761   3.239  0.1440 -0.2293  0.2316
10972W        W26781   6.494  11.171  15.245 -0.0335 -0.0043  0.1618
10973W        W26782  12.857  17.825   4.555  0.1777 -0.2636  0.0799
10974W        W26783   5.394  16.351  15.642 -0.0530  0.0995 -0.0578
10975W        W26784  12.136   7.598  15.607 -0.1981 -0.0544  0.2998
10976W        W26785   6.014   7.142   4.461 -0.1187 -0.0536 -0.1798
10977W        W26786   8.999  17.564   2.481 -0.1239 -0.0338 -0.0529
10978W        W26787   9.542   8.978  15.050 -0.4306  0.1709 -0.0331
10979W        W26788   3.050  15.163  15.128  0.1612  0.2281 -0.0349
10980W        W26789  17.486   4.516   0.256  0.3189  0.2174  0.1809
10981W        W26790   5.878  13.914  10.230 -0.0144 -0.0953 -0.5467
10982W        W26791   9.293   4.281  13.190 -0.1217 -0.1346 -0.0484
10983W        W26792  13.920   1.628   4.668 -0.4199 -0.1186  0.4713
10984W        W26793   8.979  18.460  14.625  0.0270  0.0200  0.2625
10985W        W26794   9.248   0.065   3.504  0.4992  0.2044  0.0639
10986W        W26795  16.419  11.672   2.634  0.0086  0.2182  0.2373
10987W        W26796  16.149   3.182  13.730 -0.2629  0.2459 -0.2004
10988W        W26797  16.720   7.688  11.502 -0.1836 -0.0815  0.0914
10989W        W26798  14.731  11.166   5.081 -0.0116 -0.0868  0.2020
10990W        W26799  10.632  12.299   4.172 -0.2022 -0.4553 -0.3288
10991W        W26800   9.808  14.599  11.846 -0.2113 -0.0638  0.0504
10992W        W26801  16.762  10.539   3.979 -0.0834 -0.1549 -0.0990
10993W        W26802   2.158   1.455  13.761  0.4310 -0.2518  0.0041
10994W        W26803   5.559   4.666  15.730  0.1405 -0.0256  0.1377
10995W        W26804   8.832  13.089  14.712  0.0975  0.3331  0.0290
10996W        W26805  13.154  16.338   2.815  0.2152 -0.0093  0.2128
10997W        W26806   2.446  16.444   1.886 -0.2118  0.3848  0.1244
10998W        W26807  16.938  18.596   2.162 -0.0478  0.1770  0.0590
10999W        W26808  15.033  14.278   3.294  0.1975 -0.0730  0.0391
11000W        W26809  10.681   2.665  14.264 -0.1227  0.4930 -0.0076
11001W        W26810   6.288  12.282  12.813  0.0569  0.2483  0.2118
11002W        W26811  13.357   7.284   5.084 -0.4863 -0.2018 -0.1547
11003W        W26812   9.370  12.407   4.630  0.0727  0.2301  0.0947
11004W        W26813  12.809   8.434  14.095  0.0969  0.1435 -0.1519
11005W        W26814   6.314  11.967   3.309 -0.3428 -0.1259  0.1185
11006W        W26815  15.469   8.756  10.981  0.1766 -0.0031  0.2056
11007W        W26816   7.579   7.932  14.671  0.2472 -0.0315  0.0088
11008W        W26817  14.641   1.295  12.936 -0.0696  0.1703  0.0914
11009W        W26818  12.697   2.381  14.114  0.3843  0.2520  0.0538
11010W        W26819  16.245  13.881  12.363 -0.1435  0.2179  0.1213
11011W        W26820   1.268   2.264  14.544 -0.4076 -0.1879 -0.1155
11012W        W26821  16.793  18.335   4.895 -0.0293 -0.2903  0.0880
11013W        W26822   9.363  13.955  13.225 -0.0912  0.2191  0.0503
11014W        W26823   0.918   8.931  14.791  0.0462  0.0104  0.1444
11015W        W26824  18.034  17.401   3.546  0.3779 -0.1906 -0.0542
11016W        W26825   3.655   9.290   0.877 -0.1614 -0.2360 -0.1232
11017W        W26826  16.526   5.824   0.836  0.1950 -0.2093 -0.0318
11018W        W26827   6.095  17.530   2.272  0.2015  0.1283 -0.0567
11019W        W26828  13.607  17.583  13.708  0.0137 -0.2259  0.0160
11020W        W26829  12.899   5.799   4.444 -0.1089  0.0178 -0.1516
11021W        W26830  14.261   8.089   4.791  0.0936  0.0375 -0.1195
11022W        W26831  12.014   5.917   4.758 -0.4693  0.2326 -0.0070
11023W        W26832  13.353   5.895   5.277  0.1285 -0.1024 -0.1886
11024W        W26833  13.124  13.418   0.580  0.1617  0.0706 -0.2662
11025W        W26834   1.846   1.877  11.656  0.0697 -0.3778  0.0100
11026W        W26835   9.719   9.541  13.169 -0.1148 -0.0146 -0.0315
11027W        W26836   5.035  15.822  15.514  0.0467 -0.0522  0.0333
11028W        W26837   2.624   4.859  13.905  0.0765  0.1524 -0.1647
11029W        W26838   9.465  17.679   0.559 -0.2656  0.0214  0.0315
11030W        W26839  14.116   6.810   1.834  0.4010  0.0115 -0.0228
11031W        W26840   3.174   1.212  10.798 -0.1245 -0.1652  0.0373
11032W        W26841   1.889  18.664   0.080  0.3917  0.1264 -0.0803
11033W        W26842   6.949   3.717   4.187 -0.2716  0.2762 -0.0457
11034W        W26843  16.100   5.796   4.172 -0.5169 -0.0282 -0.0527
11035W        W26844   8.584  13.788   9.586  0.0572  0.0348  0.1374
11036W        W26845  11.511   6.382   0.128  0.0846 -0.3978 -0.1715
11037W        W26846   6.360  13.486  14.103  0.0479 -0.1905 -0.0006
11038W        W26847   1.784  14.037   2.661  0.1122  0.0129 -0.0879
11039W        W26848   9.047   9.952   4.660 -0.0235  0.1251 -0.3966
11040W        W26849   0.739  17.675   5.344 -0.0994 -0.1973  0.3177
11041W        W26850   6.545  13.651  12.918  0.0970 -0.2228  0.2174
11042W        W26851  16.814  11.252  11.773 -0.0213 -0.0014 -0.1661
11043W        W26852   5.995   2.949  13.848  0.1939 -0.1411 -0.3707
11044W        W26853   9.231  17.100  14.047  0.0836  0.0443 -0.3028
11045W        W26854   5.739   4.517   2.664 -0.2040 -0.2378 -0.1023
11046W        W26855  11.791   1.346  15.384 -0.1134 -0.2686  0.0618
11047W        W26856   1.001   9.186   3.428 -0.0313 -0.0996  0.2305
11048W        W26857  17.468  14.996   1.216  0.0288  0.2862  0.2316
11049W        W26858   8.964  12.549  10.116  0.0149 -0.2670 -0.0574
11050W        W26859   5.865  14.414  13.232  0.0256  0.0957  0.1268
11051W        W26860   5.369  14.218   0.671  0.0511 -0.1309  0.1232
11052W        W26861   7.072  17.585   0.079  0.0657  0.1069  0.1374
11053W        W26862   8.550   3.265  11.577  0.2005  0.5688 -0.2730
11054W        W26863   4.898   2.732  13.151  0.2579  0.0207  0.2031
11055W        W26864   4.952  10.934  11.055  0.0543  0.0911 -0.0761
11056W        W26865   6.206   0.521   1.157  0.3541  0.0542 -0.1144
11057W        W26866   2.703  11.793   0.844  0.1751 -0.0645 -0.0938
11058W        W26867  14.230   5.244  11.281 -0.1001  0.0677 -0.0432
11059W        W26868  16.755  12.877   1.470  0.0494  0.2067 -0.0370
11060W        W26869  16.529   3.920   2.582 -0.3594 -0.1379 -0.0180
11061W        W26870   7.196   1.085   0.261  0.1310  0.0041 -0.0611
11062W        W26871  15.865   5.936   2.234 -0.3257  0.2062  0.0474
11063W        W26872   3.464  12.467  11.957 -0.1176  0.0219 -0.1763
11064W        W26873   0.241  18.587   9.921 -0.3873  0.2265 -0.3259
11065W        W26874  14.795  11.022  13.655 -0.0328 -0.1600 -0.1528
11066W        W26875  12.659  11.908   4.881  0.1227  0.1011 -0.1059
11067W        W26876   3.319   3.247  15.124 -0.1418 -0.0255  0.0563
11068W        W26877   2.402   6.796   1.048  0.0949 -0.0367  0.1977
11069W        W26878   1.869   8.080  11.709 -0.0862 -0.4010  0.1242
11070W        W26879  12.236   2.315  13.121  0.3055 -0.3341  0.1478
11071W        W26880  17.894   7.645  12.364 -0.1102  0.3348 -0.1180
11072W        W26881  10.656   4.953  12.982  0.0823 -0.0229  0.1047
11073W        W26882   5.011   3.183   3.450  0.1934  0.1429  0.1361
11074W        W26883  17.623  15.558   5.035 -0.0163 -0.4079  0.4150
11075W        W26884   6.586   5.681   0.195  0.1584  0.0360  0.1976
11076W        W26885  11.481   9.235  11.286 -0.0533  0.1612 -0.2057
11077W        W26886  13.643   5.021  14.952  0.0960  0.1238 -0.3449
11078W        W26887   4.407   4.971   0.880  0.1820 -0.1442 -0.3279
11079W        W26888   2.887   1.187   1.931 -0.2711 -0.2521  0.1414
11080W        W26889  14.321  13.235   2.611  0.0157 -0.0026 -0.0390
11081W        W26890   7.449  10.005  15.696  0.2489 -0.0763 -0.0193
11082W        W26891  16.691  11.139  13.083 -0.1969 -0.1194  0.3248
11083W        W26892   2.045  15.930  15.156 -0.1056 -0.0050  0.4729
11084W        W26893   1.379   4.436  15.537 -0.1488 -0.0431  0.1374
11085W        W26894  12.846  12.935   2.904  0.1109  0.1135  0.0614
11086W        W26895  16.405   5.270   3.296  0.2292 -0.1105 -0.0534
11087W        W26896   1.217   5.723  14.578 -0.2475 -0.0054  0.0040
11088W        W26897  10.565  13.527  12.752  0.3638 -0.2472 -0.1346
11089W        W26898  15.829  11.554  11.404  0.0990 -0.2187 -0.0400
11090W        W26899  16.031   6.748   3.268 -0.1689 -0.1911 -0.0939
11091W        W26900   8.106  10.963  14.160  0.0307 -0.2109 -0.1917
11092W        W26901  12.638   8.860  13.928  0.2928  0.0012 -0.2409
11093W        W26902   4.745  10.417   2.805  0.1497  0.1864 -0.0483
11094W        W26903  16.798  15.279  15.623  0.0786 -0.0487 -0.1999
11095W        W26904   2.416   2.870  11.518 -0.1535 -0.1724 -0.2050
11096W        W26905  10.261   3.895   2.454 -0.2851 -0.0334 -0.1359
11097W        W26906   1.818   5.569  12.962  0.2545  0.2229 -0.3606
11098W        W26907   6.069   5.682  12.408 -0.1716 -0.0160 -0.0631
11099W        W26908   8.114  15.546   2.890  0.0703 -0.2437  0.1116
11100W        W26909   0.719   4.958  14.562  0.0528  0.3809 -0.0246
11101W        W26910  11.263  16.197   3.199 -0.4459 -0.2813  0.3016
11102W        W26911   5.603  13.902   1.591  0.0208 -0.0619 -0.4243
11103W        W26912   6.696  13.215   1.210 -0.0982 -0.0424  0.1077
11104W        W26913  12.476   3.758   5.728 -0.1335  0.0163 -0.1089
11105W        W26914  17.499   0.085  11.390 -0.1442  0.1515  0.0389
11106W        W26915   4.535   0.009   2.186 -0.3187  0.0457 -0.0991
11107W        W26916  12.668   4.117  11.628 -0.1687 -0.1446 -0.0296
11108W        W26917   0.432  12.380   3.263 -0.3220  0.0835  0.0779
11109W        W26918  13.809   2.349  12.486 -0.0790 -0.1092  0.0161
11110W        W26919  10.449   3.584   0.410 -0.0523  0.5987  0.1748
11111W        W26920   5.878   9.108   4.947  0.2102  0.1149 -0.0203
11112W        W26921  14.168   8.304   5.393 -0.0486  0.1363 -0.1533
11113W        W26922  11.362  13.773  15.136  0.0442 -0.0339 -0.0732
11114W        W26923   7.095   8.837  15.627 -0.0998  0.1756 -0.1020
11115W        W26924  16.363   5.868   2.138  0.0227 -0.2192  0.1868
11116W        W26925   6.439  11.346  14.284  0.1270 -0.2642  0.2479
11117W        W26926   7.542   1.064  13.766 -0.4506  0.1549  0.0827
11118W        W26927   1.819  14.957  11.239  0.1387 -0.2630  0.1454
11119W        W26928  13.049  11.494  11.855 -0.1711 -0.1800 -0.0864
11120W        W26929  10.805  16.838  10.849 -0.1416  0.0123  0.1102
11121W        W26930  11.298  17.160   2.672  0.4133  0.1348  0.1192
11122W        W26931   9.020  18.363  12.682  0.4242 -0.1559  0.1163
11123W        W26932  16.150   2.111  10.814 -0.1153 -0.2445 -0.2154
11124W        W26933   3.783  11.670  14.848 -0.0153  0.1219  0.2698
11125W        W26934  14.776   0.126  12.278  0.0555  0.2086 -0.1645
11126W        W26935   8.479   1.440  13.232 -0.2079 -0.2514 -0.1872
11127W        W26936  11.765   3.419   5.090 -0.2360 -0.3121 -0.3068
11128W        W26937   3.508  15.649   4.583  0.1726  0.0576 -0.2746
11129W        W26938   7.548   0.009  14.844  0.1382  0.1132  0.1192
11130W        W26939  12.555  12.274   2.186  0.0735 -0.5750 -0.1463
11131W        W26940  16.744   0.143  11.994 -0.2022 -0.1716 -0.0208
11132W        W26941   8.517  15.692  11.291 -0.0430 -0.1121  0.1274
11133W        W26942   0.668  13.622  15.598 -0.0467 -0.1116  0.1069
11134W        W26943   2.189  11.215   3.920 -0.0077 -0.1614 -0.1209
11135W        W26944  17.149   4.461   4.921  0.0298 -0.0416 -0.0724
11136W        W26945   2.476  16.815   6.115  0.3791 -0.1382 -0.0680
11137W        W26946   8.932   4.146   2.324 -0.0057  0.1433 -0.2321
11138W        W26947  16.541  13.874  14.136  0.3917 -0.0754  0.0201
11139W        W26948   8.791   6.557   1.611  0.0256 -0.2463  0.0802
11140W        W26949   6.424  10.954  11.270  0.0388 -0.1195  0.0623
11141W        W26950  11.089   9.137   3.276 -0.0859  0.0301 -0.1379
11142W        W26951   9.797   6.489   0.720 -0.0152 -0.0546  0.0179
11143W        W26952   3.519  11.574  14.372 -0.1761 -0.3837 -0.0217
11144W        W26953   5.523  15.093   5.596 -0.4802  0.1248 -0.1339
11145W        W26954  15.453   2.320  12.443 -0.4485 -0.1201  0.1197
11146W        W26955  12.674  18.392  13.696 -0.2159 -0.3494  0.1630
11147W        W26956   0.147  15.196   1.816 -0.2388 -0.1219  0.1824
11148W        W26957  15.559   9.383  14.447  0.0341 -0.3364 -0.1956
11149W        W26958   0.525  15.032  12.184  0.2167  0.1930 -0.0400
11150W        W26959  11.337   8.345  11.956 -0.0966 -0.0013  0.2320
11151W        W26960   4.128  17.250  11.358 -0.3087  0.0049 -0.2840
11152W        W26961   8.488  16.219  11.211  0.3728  0.1430  0.2827
11153W        W26962  13.932  15.539   0.084  0.1903 -0.2225  0.0170
11154W        W26963  15.692   5.981   4.476  0.1782 -0.1571  0.0451
11155W        W26964   2.890  15.152   1.201  0.1985 -0.0014 -0.1890
11156W        W26965   1.532  17.812  13.118 -0.1032  0.1755  0.1272
11157W        W26966   6.430  17.512   2.763  0.2466 -0.0035  0.3365
11158W        W26967   4.081   8.661   6.351  0.1699 -0.0029 -0.2270
11159W        W26968  12.510   2.614   1.743  0.0869 -0.0001  0.5546
11160W        W26969   1.885   3.659   5.417  0.1373 -0.0953 -0.0319
11161W        W26970   1.222   3.823  15.116 -0.0716 -0.0261 -0.1602
11162W        W26971   2.793   6.451   0.875  0.0877 -0.0172  0.0194
11163W        W26972   6.428   7.625  11.841 -0.0073  0.0051 -0.0265
11164W        W26973   3.607  13.228   1.202  0.1248  0.0706  0.1275
11165W        W26974   2.255   0.627   3.783  0.0079  0.4863  0.0049
11166W        W26975   4.749  15.731   4.597  0.0867  0.0196 -0.0725
11167W        W26976   4.468  11.508   1.896  0.0004  0.2401  0.2479
11168W        W26977   5.479  18.043   2.976 -0.1911 -0.0519  0.2472
11169W        W26978  15.810   4.496  11.545 -0.0940 -0.1404 -0.2964
11170W        W26979   6.809   8.164   1.106 -0.0309  0.3324 -0.1623
11171W        W26980   2.754  15.148   1.706 -0.1963  0.3810 -0.0710
11172W        W26981  11.171  12.992   4.747  0.0217 -0.0564 -0.0775
11173W        W26982  15.897   0.916   2.036 -0.0017 -0.1963 -0.1467
11174W        W26983   9.213   6.267   1.912  0.2066 -0.3521 -0.1504
11175W        W26984   7.179  14.873   0.969  0.0023  0.4188 -0.2164
11176W        W26985   0.804  14.458   5.858  0.1133  0.1093 -0.0880
11177W        W26986  12.816  11.337   4.744 -0.1522 -0.1603  0.1130
11178W        W26987   4.005   8.659   4.995 -0.1141 -0.0048 -0.0593
11179W        W26988   7.824  15.008   4.205  0.0268  0.1336 -0.1066
11180W        W26989   2.425   3.068   5.051  0.0760 -0.0820  0.0747
11181W        W26990   5.046   3.531  12.887 -0.1801 -0.0298 -0.0013
11182W        W26991   9.202   8.787   3.411 -0.1662 -0.0296 -0.0107
11183W        W26992   8.385   8.303  14.666  0.0246 -0.0484  0.1246
11184W        W26993   8.865   6.695   5.732  0.2793 -0.0074 -0.0173
11185W        W26994  18.309   7.000   1.890 -0.3074  0.0241  0.1567
11186W        W26995   3.477  13.048   9.992 -0.1029 -0.0009 -0.4089
11187W        W26996   4.173   1.556  11.468  0.0684  0.2942 -0.1441
11188W        W26997  18.122  11.195   0.661 -0.1312 -0.0299 -0.1815
11189W        W26998   6.906  10.397   5.223 -0.2026  0.2533  0.0710
11190W        W26999  13.519  16.162  12.868  0.2621 -0.1633  0.0186
11191W        W27000  16.777   5.243   2.617 -0.2807  0.0507 -0.1285
11192W        W27001   2.071   7.794  12.987 -0.0081  0.2558  0.1924
11193W        W27002  11.075   3.932  10.766 -0.0689  0.2191 -0.0644
11194W        W27003   0.380   7.207   0.685 -0.0765 -0.2456 -0.1777
11195W        W27004  17.325  11.000  11.800  0.1656 -0.0925  0.2292
11196W        W27005  15.590   4.810   1.053 -0.1851  0.1075  0.1207
11197W        W27006   3.335  12.270  14.931  0.0685 -0.2970 -0.1960
11198W        W27007  11.638  13.858  10.767  0.0510  0.0224 -0.2716
11199W        W27008  13.455   2.540   4.955  0.1001  0.1488  0.1296
11200W        W27009   1.185   7.786   0.422 -0.1848 -0.3660 -0.2197
11201W        W27010   3.837  17.237   1.680  0.2036 -0.1583  0.1530
11202W        W27011  13.909   3.171   1.424  0.0107 -0.0258  0.0385
11203W        W27012   8.981   5.443   2.838 -0.3897  0.0200 -0.1568
11204W        W27013   9.283   8.430  14.235 -0.0276 -0.0541 -0.1422
11205W        W27014  18.118  15.033  14.260 -0.2208  0.1253 -0.3174
11206W        W27015  14.435   9.185  12.899 -0.2701  0.0679  0.0787
11207W        W27016  13.067   0.553   2.529 -0.1894  0.3064 -0.1262
11208W        W27017  13.362  11.086  13.152 -0.1573  0.0758  0.0446
11209W        W27018   0.622   0.119   4.225 -0.1038  0.0287 -0.1100
11210W        W27019  11.787  16.589   1.447  0.0543  0.0350  0.2350
11211W        W27020  16.470   4.558  11.187  0.0364  0.1306  0.0068
11212W        W27021   2.770  12.820   2.187  0.2109 -0.1732 -0.3028
11213W        W27022  14.982  10.779   2.186  0.1846 -0.0971 -0.0881
11214W        W27023   0.119   3.379   0.396 -0.0876 -0.2954 -0.1820
11215W        W27024   4.556  18.473   4.699 -0.1390 -0.2282 -0.1086
11216W        W27025  16.848  10.778   0.090 -0.0843 -0.0601 -0.4649
11217W        W27026  13.658   7.333   5.630 -0.1053 -0.1493 -0.1336
11218W        W27027  12.537  14.220  15.190  0.0222  0.2599 -0.0854
11219W        W27028  10.263   8.734   4.264  0.3618  0.0253 -0.0509
11220W        W27029  14.602  13.364  11.549  0.0879  0.1286  0.1492
11221W        W27030   8.633   8.068  13.112 -0.2554  0.1427 -0.2863
11222W        W27031   8.725  14.458   1.671 -0.2995 -0.0072  0.0660
11223W        W27032  16.485   8.418   3.310 -0.0258  0.0218 -0.0079
11224W        W27033   4.717   5.910  11.561 -0.0594  0.4984 -0.1240
11225W        W27034   6.574   1.997   4.147 -0.0184 -0.2553 -0.0480
11226W        W27035  13.765  14.181   3.947  0.1545  0.0634  0.0774
11227W        W27036   6.228  11.048  11.799 -0.0142 -0.1104 -0.0308
11228W        W27037   9.650   2.383   0.532 -0.0235 -0.0773  0.5581
11229W        W27038  16.492   4.684  14.164  0.0808  0.0315  0.0344
11230W        W27039  13.681  16.141  15.473 -0.2808  0.1149 -0.3915
11231W        W27040  13.715   0.588  10.908  0.2523  0.1487 -0.0168
11232W        W27041  12.688   1.338   2.216  0.4002 -0.0671  0.0466
11233W        W27042  15.419  16.089   0.165  0.0357 -0.1558 -0.0309
11234W        W27043   6.889  12.443  11.933  0.0004 -0.2643  0.1048
11235W        W27044   1.789  16.460  10.225 -0.1447 -0.1733  0.1277
11236W        W27045   1.503  14.240  14.582 -0.2171  0.1012 -0.1637
11237W        W27046  18.362   7.917   1.003  0.1046  0.2027  0.2006
11238W        W27047   6.235  10.129  10.832 -0.1348  0.3254  0.0027
11239W        W27048   2.813   9.926  12.207 -0.1412  0.0428 -0.2770
11240W        W27049   2.620  15.113   5.832 -0.2545  0.0253  0.0481
11241W        W27050   1.986   8.077   2.794 -0.0312 -0.1250 -0.1829
11242W        W27051   8.927  14.803   5.051  0.1180 -0.3177 -0.0112
11243W        W27052  15.280   7.015   1.860  0.4185  0.3397 -0.0921
11244W        W27053   8.179   9.637   3.966 -0.0194 -0.0213  0.3693
11245W        W27054  17.875   2.758  15.478  0.3543 -0.3653 -0.0155
11246W        W27055   6.677  13.986   1.819  0.0691  0.4515  0.2793
11247W        W27056   5.878   6.890  14.075 -0.1284  0.0644  0.0942
11248W        W27057   7.479   9.594   3.900  0.3783  0.0385 -0.0329
11249W        W27058  18.288   4.483  13.858 -0.2835 -0.0812  0.2705
11250W        W27059   7.320  13.007   0.332 -0.1261  0.2977  0.0071
11251W        W27060  10.402  12.732  12.751  0.0051  0.3152 -0.2021
11252W        W27061   9.945   5.418  14.021 -0.3374  0.0264 -0.0961
11253W        W27062   6.177   8.453   4.170 -0.0160 -0.0318 -0.0279
11254W        W27063   7.685  16.002  10.739  0.0562  0.0105  0.2787
11255W        W27064  13.168   4.609  13.291 -0.1689  0.0557  0.2194
11256W        W27065  13.099   0.913  13.765  0.1796  0.1194 -0.0456
11257W        W27066   0.475  16.739  15.305  0.1796 -0.0916  0.0377
11258W        W27067   7.063   2.343  10.364  0.3376 -0.2573 -0.0341
11259W        W27068  12.652   6.262  10.123  0.0630 -0.1183 -0.0008
11260W        W27069   2.118  15.153  12.145 -0.0686  0.1817  0.0903
11261W        W27070  16.747  12.782   5.055  0.3056  0.1317  0.1122
11262W        W27071   9.286   7.589   2.215  0.0973 -0.1730  0.3098
11263W        W27072   7.018   4.268   2.268 -0.0400  0.0784  0.1700
11264W        W27073  16.000   5.476  14.613 -0.3969 -0.2635 -0.2662
11265W        W27074  17.919   4.886  15.545 -0.0123 -0.1869 -0.0090
11266W        W27075  17.217   3.925   3.460  0.1129 -0.0103  0.1736
11267W        W27076  14.560   9.690   0.918  0.0519  0.2143  0.1121
11268W        W27077  14.625  16.217  14.968 -0.2475  0.0526 -0.1088
11269W        W27078  13.569  15.162   0.019  0.2694  0.1785  0.0376
11270W        W27079  15.840   3.007   2.980  0.1482  0.0152 -0.2441
11271W        W27080   9.492   6.219  13.789 -0.1931  0.1747  0.1575
11272W        W27081   9.481  17.161   1.852 -0.0902 -0.2094  0.1961
11273W        W27082   9.198  12.694  13.365  0.2684  0.0749 -0.4023
11274W        W27083   9.348   7.045  11.690 -0.1483 -0.3452 -0.2625
11275W        W27084   7.104   1.079   2.210 -0.0689  0.1318 -0.2881
11276W        W27085   9.393  16.076  14.956  0.0891 -0.2392  0.0871
11277W        W27086  15.327   6.834   4.056 -0.2375 -0.2144  0.0472
11278W        W27087  13.450   2.162   0.891  0.0106  0.1263 -0.3269
11279W        W27088  10.686   9.195   0.494 -0.1364  0.3526  0.0599
11280W        W27089   4.277   8.787  11.582  0.1899  0.2054 -0.4208
11281W        W27090   3.236   2.811   4.371 -0.1431 -0.2011 -0.0497
11282W        W27091   1.523   3.826   4.373  0.0503 -0.0203 -0.0552
11283W        W27092   4.463   4.105   2.316  0.0100 -0.2003 -0.0569
11284W        W27093  14.769  16.274   3.220  0.2642 -0.1823 -0.2890
11285W        W27094   0.850   7.048  14.376  0.0433 -0.2037 -0.0265
11286W        W27095  10.094  10.273  13.345 -0.0198 -0.3365  0.0165
11287W        W27096  13.586   4.083   4.236 -0.2889 -0.2087  0.0478
11288W        W27097  11.934  18.590  15.292  0.0139 -0.2321 -0.0042
11289W        W27098  16.100  15.014   2.764  0.1577  0.1109  0.3705
11290W        W27099  11.536   5.995   3.133  0.1535 -0.2865 -0.2024
11291W        W27100  13.187   2.497  14.236 -0.3488 -0.1850  0.1035
11292W        W27101  17.194  16.779   2.910  0.1588  0.3587  0.0514
11293W        W27102   2.743  10.373   4.188 -0.0934 -0.0183  0.0741
11294W        W27103   9.108  16.025   0.988 -0.0005  0.0714  0.0688
11295W        W27104   5.149  13.314  15.150 -0.0540  0.1143  0.2047
11296W        W27105  16.913  17.759  12.135 -0.3346 -0.1385 -0.2214
11297W        W27106   6.665   0.177   3.080  0.0316  0.1896  0.6429
11298W        W27107  17.003  11.404   1.032 -0.0035  0.2346 -0.0358
11299W        W27108  11.701   5.595  13.304  0.0783 -0.2514 -0.1255
11300W        W27109  16.330  12.305   4.809  0.2579  0.1718  0.2964
11301W        W27110   8.746   3.984   0.385  0.0285 -0.0143 -0.2352
11302W        W27111   2.341   9.791  12.057  0.1020  0.0079  0.1829
11303W        W27112   1.048  13.513  13.792 -0.1969 -0.0751 -0.2533
11304W        W27113  15.280   1.145   0.058 -0.2075  0.0011  0.3039
11305W        W27114   2.722   0.805   1.062  0.0373  0.3651 -0.1327
11306W        W27115  14.306  12.304  13.437  0.1914 -0.2135 -0.1292
11307W        W27116   1.898   8.191   5.180 -0.0835 -0.1241 -0.1794
11308W        W27117   0.169   7.310   2.571 -0.1501  0.1448 -0.0471
11309W        W27118  17.380  11.974  11.819 -0.1017  0.0327 -0.0314
11310W        W27119  13.985   6.981   4.577  0.0510  0.2226  0.1892
11311W        W27120   4.218  17.182   5.552  0.1593 -0.0001  0.4158
11312W        W27121  10.169   2.219  14.903  0.1060 -0.1405 -0.0280
11313W        W27122  17.597   6.228   2.804 -0.0306 -0.1928 -0.1471
11314W        W27123   1.774   1.070   4.446 -0.0236 -0.1462 -0.1365
11315W        W27124  11.895   3.472   4.071  0.0512 -0.2219  0.2002
11316W        W27125  12.513   5.120   2.633  0.0680  0.1387 -0.0818
11317W        W27126   3.123   0.070   3.249  0.2673  0.0725  0.1855
11318W        W27127  10.550   9.014  11.337 -0.1370  0.5936 -0.1101
11319W        W27128  12.442  12.629  12.971 -0.1318  0.1369 -0.1415
11320W        W27129  14.358   9.184   6.046  0.1847  0.1025  0.3112
11321W        W27130  17.113   1.193   2.163  0.0165 -0.0506 -0.1761
11322W        W27131  17.007   1.298  15.031  0.2642 -0.1318 -0.1500
11323W        W27132  14.393  17.814  13.041  0.0185  0.3460  0.0001
11324W        W27133  11.621  11.429  14.245  0.1355  0.1600 -0.0523
11325W        W27134  14.500   8.669  12.647  0.0180  0.2172 -0.2347
11326W        W27135  17.115   6.305  11.147  0.2037 -0.0786  0.0454
11327W        W27136   1.327  16.795   4.271 -0.0540  0.0261 -0.0702
11328W        W27137  18.521  10.887   0.955 -0.0998  0.0443 -0.1983
11329W        W27138   2.923   6.549   3.405  0.0912 -0.0801 -0.2543
11330W        W27139   5.329   9.956   3.594 -0.1306  0.0144 -0.0247
11331W        W27140   0.685   5.978   1.986  0.1387  0.2663 -0.2337
11332W        W27141   5.678   7.048  14.490 -0.2683  0.0458 -0.0748
11333W        W27142  17.799  15.337  13.068  0.2578  0.1030  0.4748
11334W        W27143  16.066   3.661   4.147 -0.2714  0.0482 -0.2513
11335W        W27144  17.421  18.191   1.014 -0.1087 -0.0923 -0.1733
11336W        W27145  17.820   0.721   1.991 -0.2521  0.1447 -0.5118
11337W        W27146   6.306  14.926   2.669 -0.3048  0.1346 -0.0579
11338W        W27147  12.522   3.434  12.136 -0.1185 -0.1333  0.2966
11339W        W27148  16.833   3.821   1.263 -0.0140 -0.4444 -0.1388
11340W        W27149  11.920  16.433  15.675 -0.3351 -0.0488  0.2205
11341W        W27150  15.015   4.096  12.545 -0.0849  0.0703 -0.3008
11342W        W27151  13.583   2.791   1.292  0.2635 -0.0990 -0.0090
11343W        W27152   6.027   7.227   3.459 -0.2162  0.1359  0.0098
11344W        W27153   1.886   2.058  15.385  0.0639  0.0233  0.1154
11345W        W27154   5.171   0.422  10.503 -0.1123  0.1798 -0.1929
11346W        W27155   3.878   4.677  12.966  0.0770 -0.1238  0.1585
11347W        W27156   4.716  18.063   1.044  0.3528 -0.0168 -0.2255
11348W        W27157   1.920  11.007   0.267  0.2177 -0.1163 -0.0844
11349W        W27158  18.292  13.996  12.160  0.1185  0.3351  0.1797
11350W        W27159  12.844  14.863   3.008  0.0058  0.0782 -0.0603
11351W        W27160  13.038  10.671   5.137 -0.0354 -0.2097  0.0398
11352W        W27161  14.678   3.061  13.932  0.0186  0.1497  0.0550
11353W        W27162   7.255   1.996  15.394  0.1467 -0.0598  0.3308
11354W        W27163  17.171  16.670   1.428 -0.3258 -0.0542 -0.0808
11355W        W27164   8.644  12.469  13.316  0.1419 -0.0776  0.1021
11356W        W27165  10.359   6.923   2.701 -0.0798 -0.1888  0.0908
11357W        W27166   8.266  12.196  11.677 -0.0772 -0.4137  0.0988
11358W        W27167  14.766   4.635   2.977 -0.1480 -0.1005 -0.2578
11359W        W27168   7.964   7.888  11.973 -0.2060  0.1200 -0.3801
11360W        W27169   3.318   9.780  11.276 -0.1534  0.1307  0.0939
11361W        W27170   0.645  12.897   4.871  0.3219  0.1553 -0.2398
11362W        W27171   4.628  12.219  12.025  0.1798 -0.2135  0.0228
11363W        W27172   1.779   6.457  15.437  0.1467 -0.1145  0.2703
11364W        W27173   7.937  11.178  11.400  0.1533  0.0075  0.1385
11365W        W27174  17.663  16.250   2.755 -0.0317  0.4859  0.2320
11366W        W27175  12.077  14.307  12.271  0.1544 -0.1260  0.4414
11367W        W27176  12.185  17.554   0.413  0.0115  0.1167 -0.0743
11368W        W27177   5.023   3.951  13.613  0.0518 -0.3231 -0.1114
11369W        W27178  16.476  13.567   3.074 -0.2243  0.0893 -0.1295
11370W        W27179   5.925  13.766   1.195 -0.3753  0.1581  0.1492
11371W        W27180   1.827   6.478   6.554 -0.0093  0.1568 -0.2426
11372W        W27181  13.052  10.717  15.705  0.2000  0.0544  0.1687
11373W        W27182  10.711   6.620  11.835 -0.0462 -0.0247  0.0691
11374W        W27183  10.843   8.438   2.343 -0.3923 -0.0480 -0.0503
11375W        W27184  15.643  15.808   1.535  0.1734 -0.0123 -0.0061
11376W        W27185   6.823  18.235   5.819 -0.2255  0.1773  0.0222
11377W        W27186   1.762   9.793  11.353  0.1112 -0.1136 -0.3594
11378W        W27187   2.204  10.446  12.735 -0.1102  0.2101 -0.0280
11379W        W27188  15.335   0.831   1.621  0.0284 -0.2181  0.1167
11380W        W27189  14.670  14.553  11.118  0.1704  0.2098 -0.1990
11381W        W27190   7.756  14.694   2.630 -0.2108  0.0226 -0.0299
11382W        W27191  14.191  10.400   0.581 -0.1149 -0.2945  0.0854
11383W        W27192   9.649   3.638   3.559  0.0849  0.0044  0.1396
11384W        W27193   1.977   3.115  12.874 -0.0380 -0.0866 -0.2119
11385W        W27194  11.922   1.460  11.834  0.0991  0.2882  0.1597
11386W        W27195   5.479   6.003   0.821  0.0884  0.1267  0.1284
11387W        W27196   0.366   3.068  13.390  0.1283 -0.0169  0.0672
11388W        W27197   8.735  17.024  13.704 -0.0605  0.1575 -0.2848
11389W        W27198  14.385  15.274  10.627 -0.0793 -0.3274  0.0268
11390W        W27199  15.402   4.931  12.391 -0.0734  0.2366 -0.3040
11391W        W27200   0.394   0.788  10.950  0.1142  0.0463 -0.0319
11392W        W27201  17.170  16.716  10.038  0.2463  0.0019  0.0215
11393W        W27202  15.800   6.015   0.271  0.2688 -0.2452  0.1870
11394W        W27203  17.612  13.248   1.039  0.1431  0.0036  0.1891
11395W        W27204  15.182   4.031   1.239  0.0151 -0.3521  0.1887
11396W        W27205   5.480   7.368   3.421 -0.2497 -0.1566 -0.0399
11397W        W27206   0.110  13.436   4.032  0.3201  0.0217 -0.1431
11398W        W27207  14.913   9.934   3.214  0.2919  0.2936 -0.0976
11399W        W27208   0.128  16.800  10.651  0.3076 -0.0682 -0.0132
11400W        W27209   2.963   1.772  14.876  0.0415  0.0145  0.0353
11401W        W27210  14.298  16.633  13.717 -0.1825  0.2110  0.2138
11402W        W27211  14.090   4.267  12.403  0.0571 -0.1621 -0.4061
11403W        W27212  14.048   9.579  12.917  0.1271  0.3035 -0.2101
11404W        W27213  14.233   7.564   4.641  0.1839 -0.0686 -0.0020
11405W        W27214   7.409  13.918  11.729  0.0080  0.1997 -0.1895
11406W        W27215  14.378   0.716  11.860  0.1765  0.1587  0.1370
11407W        W27216  16.536   6.813  15.254  0.0839 -0.1844  0.1378
11408W        W27217   3.564  18.308   3.059 -0.1803  0.7213  0.0417
11409W        W27218   6.333  15.842  13.874 -0.0737 -0.0686 -0.2565
11410W        W27219  11.002   0.875   2.967  0.2244 -0.0571  0.0502
11411W        W27220   9.719   1.562   4.857  0.1887  0.1287  0.2588
11412W        W27221  16.098   6.409  11.517  0.1088  0.0549  0.0834
11413W        W27222  11.990   5.475   1.693  0.2704 -0.0998 -0.2409
11414W        W27223   5.637  10.672  12.814  0.0857 -0.0569  0.0791
11415W        W27224  15.923  16.748   0.709 -0.3720 -0.0009 -0.0397
11416W        W27225   7.995   3.164  12.330 -0.0432 -0.0187  0.0384
11417W        W27226  12.264   6.462  10.409 -0.1372  0.0779  0.2626
11418W        W27227  15.570  17.388   2.576 -0.0703  0.2127  0.0534
11419W        W27228   3.885   7.012   1.541  0.0276  0.2182 -0.1178
11420W        W27229   1.686  14.700   5.648 -0.2660  0.2755  0.0719
11421W        W27230  10.042   3.405   2.780  0.2352 -0.0688  0.2775
11422W        W27231  11.253  18.647  13.398  0.1003  0.2508  0.0055
11423W        W27232  10.522   0.486   0.639  0.1861 -0.1480  0.0140
11424W        W27233  10.537   4.355  14.487 -0.1988  0.1611 -0.0396
11425W        W27234   0.978  15.135   1.068  0.2727 -0.0106  0.0558
11426W        W27235  16.681  13.370   0.176  0.1301 -0.0891 -0.3826
11427W        W27236  14.515  10.893  15.231 -0.0324  0.0731  0.0688
11428W        W27237   0.745  11.104   4.531 -0.0556  0.2409 -0.1125
11429W        W27238   5.247  15.059  14.261 -0.1121  0.0563 -0.1179
11430W        W27239  16.812   7.207   2.634 -0.0810  0.1821 -0.1794
11431W        W27240   9.520  15.758   9.987  0.1239 -0.1719  0.1669
11432W        W27241   9.953   3.292   3.294 -0.0546 -0.3576  0.1197
11433W        W27242  14.127  15.338  13.278 -0.0213 -0.1001  0.2088
11434W        W27243   0.014   9.752   4.231  0.2845  0.0679 -0.1275
11435W        W27244  10.022   7.529  11.341 -0.1198 -0.0585  0.0482
11436W        W27245  13.107  12.175  10.649 -0.0426 -0.1592  0.0093
11437W        W27246  11.976   4.959  13.383  0.2170  0.0024  0.1036
11438W        W27247  12.649  13.843   2.725  0.3337 -0.1815  0.1412
11439W        W27248   7.774  11.611   4.181  0.0974  0.1410 -0.0180
11440W        W27249  13.630   9.886  14.558  0.1999 -0.0500 -0.0973
11441W        W27250  12.509   3.708  13.096 -0.1194 -0.0354  0.1278
11442W        W27251  16.655  15.966  12.763  0.5052  0.1576  0.1436
11443W        W27252   8.808   2.050   5.420 -0.1961 -0.2920 -0.1154
11444W        W27253  17.703  16.900   3.194  0.1226 -0.2612 -0.2166
11445W        W27254   2.752  13.466   3.781  0.0161  0.0890  0.2043
11446W        W27255   9.994  11.757  13.330  0.0905  0.2082  0.2845
11447W        W27256  11.742  14.313  10.738 -0.0602 -0.2133 -0.1547
11448W        W27257   4.738   9.538  12.487 -0.2686 -0.1266 -0.3149
11449W        W27258   9.699   7.649  12.181  0.0964 -0.2338 -0.0059
11450W        W27259  10.556  11.776  11.060  0.0583  0.1406 -0.0853
11451W        W27260  10.421  17.025   0.600  0.0237 -0.2122 -0.1736
11452W        W27261  17.935   5.832   5.205  0.1150  0.1089 -0.1965
11453W        W27262  13.107  11.676   1.908 -0.0313  0.1201  0.1883
11454W        W27263   9.553   0.445   5.154 -0.0839 -0.0822 -0.0870
11455W        W27264   8.896   6.077   1.458  0.2571  0.2173 -0.2194
11456W        W27265   6.906   2.599   1.542  0.2097  0.0950  0.0771
11457W        W27266  10.441   7.267  15.181 -0.2781 -0.2328 -0.3281
11458W        W27267  13.080  15.170  14.972  0.0596  0.0259  0.2001
11459W        W27268   3.279  18.650   5.349  0.1173 -0.0064  0.4703
11460W        W27269  11.384  18.463  12.177 -0.1721 -0.2373  0.0572
11461W        W27270   6.175   1.750   4.381 -0.1591 -0.3776  0.3258
11462W        W27271  17.685   7.353  11.985 -0.1390 -0.3584 -0.0968
11463W        W27272   8.144  16.944   2.169 -0.1971 -0.2121 -0.0504
11464W        W27273  17.718  17.359  10.150 -0.1813  0.0214 -0.1266
11465W        W27274   9.181   2.754   3.527  0.0191  0.0363  0.0453
11466W        W27275   3.262   9.725  14.375  0.1218 -0.0842  0.2899
11467W        W27276   9.384   5.338  11.203 -0.1500  0.1886 -0.0139
11468W        W27277  10.824   6.973   2.260 -0.2185 -0.2595  0.1517
11469W        W27278   9.883   3.861  14.914 -0.0728  0.1845 -0.0454
11470W        W27279  12.209   3.742  15.047  0.1646 -0.1329  0.0004
11471W        W27280  16.401   4.104  12.711 -0.0119 -0.2120 -0.0133
11472W        W27281  12.076  11.194   0.241 -0.2507  0.1504 -0.2998
11473W        W27282   0.958   0.035   0.653 -0.0940 -0.0947 -0.0868
11474W        W27283   4.368   7.153   1.534  0.3307  0.1848 -0.1935
11475W        W27284  14.293  17.362  11.382 -0.0163  0.1737 -0.1377
11476W        W27285  11.683  12.474  12.594  0.0990  0.0083  0.2055
11477W        W27286  14.013   8.267   5.903 -0.4260  0.1584  0.2563
11478W        W27287   6.276   4.599   2.751 -0.0710  0.0932  0.1938
11479W        W27288   0.861  16.487   3.913  0.1300 -0.0038 -0.1375
11480W        W27289  11.897  13.564   0.897 -0.2141 -0.0538  0.1705
11481W        W27290   8.885   2.360   3.247 -0.0680 -0.0112  0.2765
11482W        W27291  12.022   8.113  13.205  0.1817  0.1018 -0.1475
11483W        W27292  18.233  15.893   3.420  0.3700 -0.1942  0.1252
11484W        W27293  12.965  12.668  14.859 -0.0860  0.0284 -0.0981
11485W        W27294  13.646   0.318   1.564 -0.0399  0.4474 -0.3868
11486W        W27295   5.805  12.697   3.989 -0.0770  0.1194 -0.1060
11487W        W27296   4.041   3.448  14.925 -0.1291  0.1430 -0.1034
11488W        W27297  14.522  18.459   4.530 -0.0624  0.0417  0.2466
11489W        W27298  11.201  17.591   3.745 -0.1610  0.0570  0.0879
11490W        W27299   9.164  14.368  13.499  0.2597  0.0345  0.2582
11491W        W27300  13.044  14.648  13.085 -0.1322 -0.0903  0.1681
11492W        W27301   9.569   9.242   2.768 -0.3795  0.4639  0.0305
11493W        W27302   1.720  14.456   1.759 -0.4087  0.4601  0.2886
11494W        W27303   6.759  12.647   3.812 -0.2677  0.5151  0.0011
11495W        W27304  11.810   5.970   1.791  0.2964  0.1091  0.1275
11496W        W27305   9.542  12.891   4.366  0.3284  0.2155 -0.0334
11497W        W27306   0.296  12.608  14.067 -0.0332  0.2402  0.3514
11498W        W27307  16.428   5.420   0.096  0.2472 -0.0745  0.3262
11499W        W27308   6.245  12.272  14.315 -0.1072 -0.1213  0.1512
11500W        W27309  12.980  10.469  11.693 -0.2353 -0.7340  0.2149
11501W        W27310   1.268   1.069   5.624 -0.0780 -0.1189 -0.0523
11502W        W27311  16.687   8.997   3.991 -0.2546 -0.5185 -0.0798
11503W        W27312   2.419   7.615   4.718 -0.1127 -0.1689  0.1567
11504W        W27313   8.415  18.631   5.712 -0.0928 -0.2318 -0.1561
11505W        W27314  14.355   5.655   5.351 -0.2480 -0.4636  0.4431
11506W        W27315   9.730   9.876   0.573 -0.2310 -0.0233  0.0473
11507W        W27316  10.189  15.128   4.764 -0.0894 -0.1829  0.0289
11508W        W27317  11.147   9.793   5.864 -0.1700  0.1319 -0.1276
11509W        W27318  18.402   2.695  11.221 -0.2429 -0.2085  0.0026
11510W        W27319  11.660  18.272  13.479 -0.0179  0.0296 -0.1576
11511W        W27320  17.848   7.901   1.266 -0.2441  0.1335 -0.0637
11512W        W27321   0.596   0.039  13.483  0.2739  0.3092 -0.1306
11513W        W27322  15.605   7.194   1.509  0.2427 -0.2306  0.0126
11514W        W27323   5.556  12.067  15.572 -0.3117  0.1676 -0.3118
11515W        W27324   3.262  14.128   1.536  0.1191 -0.3109  0.0637
11516W        W27325  13.069   7.709  13.622  0.0403  0.0363  0.2125
11517W        W27326  17.710   7.011  13.236  0.0429  0.0999 -0.1665
11518W        W27327   0.670   1.603  14.831  0.0513  0.2015 -0.2548
11519W        W27328   3.487   0.229   1.469  0.2633 -0.0940  0.0787
11520W        W27329   5.904  11.731   3.553 -0.0046  0.0665  0.1153
11521W        W27330  17.792   3.414   0.407  0.0822 -0.2609  0.1419
11522W        W27331  11.235  12.817  14.746  0.0566 -0.2036  0.0192
11523W        W27332   2.958  18.082   1.023  0.3154 -0.0461 -0.2770
11524W        W27333   6.260   6.531   3.713 -0.0397  0.2933 -0.1470
11525W        W27334  10.726   8.222   3.764 -0.2952  0.0663  0.0349
11526W        W27335   5.037   4.375   1.020 -0.4636  0.2883  0.1306
11527W        W27336   4.334  11.416   0.119  0.1197 -0.0152  0.3047
11528W        W27337  13.105   2.897  13.164 -0.3471  0.0394 -0.0417
11529W        W27338  18.494   8.318   2.740  0.1054  0.0283 -0.0177
11530W        W27339  12.309   5.236   2.053 -0.1731 -0.1234 -0.1064
11531W        W27340   5.848   6.781   5.070 -0.3220 -0.3101 -0.1623
11532W        W27341  16.757   9.054   5.065 -0.2416 -0.1109  0.0371
11533W        W27342   2.588  18.064  13.743 -0.0560  0.0982  0.0594
11534W        W27343   1.292   0.946   2.701  0.3185 -0.3489  0.0396
11535W        W27344  13.777  13.154   2.886 -0.2027 -0.0373 -0.0546
11536W        W27345  12.006  14.876  12.406 -0.0713 -0.0458 -0.0556
11537W        W27346   5.621   8.968  15.350  0.2941 -0.1273 -0.1655
11538W        W27347   5.311  10.349   3.254 -0.3379 -0.2245 -0.1832
11539W        W27348  11.087   3.194   5.192 -0.1449  0.3138 -0.0093
11540W        W27349   1.591  11.417   0.255 -0.1723  0.1786  0.0165
11541W        W27350  10.911  10.065  13.148  0.2607  0.1852  0.1828
11542W        W27351   3.139   4.854  11.759 -0.4824 -0.3502  0.2846
11543W        W27352  18.368   3.062   4.881 -0.2263  0.2521  0.2073
11544W        W27353  10.846  14.565  13.599  0.2173 -0.2382  0.0077
11545W        W27354   7.961   5.009   4.394  0.0452 -0.2603 -0.0402
11546W        W27355  18.200  10.834  11.992 -0.2507 -0.0986  0.0173
11547W        W27356   6.768   9.678   5.632 -0.0725  0.4221 -0.0487
11548W        W27357   2.083  11.444   5.040 -0.0407  0.2913 -0.2520
11549W        W27358  16.596   8.476   2.666  0.0702 -0.0034 -0.3327
11550W        W27359  11.717  11.741  14.676  0.1248  0.2620  0.1270
11551W        W27360   3.421   0.274  15.336 -0.0089 -0.1203  0.0788
11552W        W27361   4.308  15.781   0.634 -0.0643  0.4866  0.0969
11553W        W27362  10.981  16.311   2.849  0.1519  0.0915 -0.1972
11554W        W27363  11.981   9.549  14.863 -0.3265  0.0338  0.1284
11555W        W27364   5.185   6.932   1.208 -0.1442 -0.1558 -0.2168
11556W        W27365  14.164   7.132  10.497 -0.0886 -0.3699 -0.0277
11557W        W27366  16.159  12.370   4.212  0.0056 -0.0696  0.0656
11558W        W27367   5.125  14.030   2.020  0.0110  0.1466  0.1063
11559W        W27368  15.041  14.072   4.510 -0.1150  0.0234  0.1624
11560W        W27369   7.019   3.018   0.138  0.2350  0.1269  0.0321
11561W        W27370  16.976  17.985   9.886  0.0542 -0.0169 -0.0189
11562W        W27371   4.166   0.443  15.250  0.3228  0.3109 -0.0935
11563W        W27372  16.359   1.002   2.499  0.1863  0.0234  0.1596
11564W        W27373   1.058  12.021  12.313 -0.1451 -0.0083 -0.2882
11565W        W27374   2.634  14.746   0.620  0.0664 -0.2813 -0.2227
11566W        W27375  17.224  16.192   0.379 -0.0910  0.2889 -0.1433
11567W        W27376   5.081  14.868  15.573  0.0145  0.2938  0.0975
11568W        W27377   8.405   1.759  11.095 -0.0094 -0.2126  0.2249
11569W        W27378   9.382  16.669   5.681  0.2484 -0.1071  0.4472
11570W        W27379   2.018  13.896  13.810 -0.1429  0.1938  0.0951
11571W        W27380  18.299   1.312   4.078  0.1145  0.1231  0.5476
11572W        W27381  13.423  16.834   3.228  0.2498  0.0063  0.1364
11573W        W27382   6.513   3.715   5.464 -0.1629 -0.1181 -0.0711
11574W        W27383   5.917  18.184   0.940  0.2143 -0.1768  0.0672
11575W        W27384   8.939  16.521   0.875  0.2682 -0.1149  0.0630
11576W        W27385  12.776  15.957  15.200 -0.0940 -0.1084  0.0536
11577W        W27386   0.449   4.207   1.359 -0.0682  0.3199  0.1542
11578W        W27387   8.926   1.487  12.950  0.2181  0.4838  0.0174
11579W        W27388   1.245   6.460   5.757  0.2458  0.0248 -0.0513
11580W        W27389   6.888   2.859  12.066  0.1544  0.0592 -0.1088
11581W        W27390  15.061  11.484  14.340  0.1132  0.5202  0.0710
11582W        W27391   8.148   8.844   2.037 -0.4553 -0.3954 -0.2498
11583W        W27392  16.757   5.418  15.427  0.0357  0.1541  0.1546
11584W        W27393  12.652   5.269  13.246 -0.0537 -0.1165 -0.1541
11585W        W27394  12.722  10.457  13.798 -0.1421 -0.1321 -0.1622
11586W        W27395   6.536  14.207   1.327 -0.1935 -0.1285 -0.1832
11587W        W27396   9.953  10.302   0.376 -0.1668 -0.2275  0.1624
11588W        W27397   4.600   6.919  11.739  0.1025 -0.0593 -0.4085
11589W        W27398  12.647   8.166   4.913 -0.0588 -0.0410 -0.2475
11590W        W27399   7.549   8.307   2.368 -0.0476  0.1158 -0.0087
11591W        W27400   3.087  16.929  12.453  0.1687 -0.2859  0.0185
11592W        W27401   2.610   8.605   3.643 -0.0570  0.0949  0.0632
11593W        W27402  12.616   3.774   1.560  0.2701 -0.2463  0.1175
11594W        W27403  12.310   3.807  14.489 -0.2444 -0.2948 -0.2533
11595W        W27404  10.437  10.236   2.693  0.2657  0.2765 -0.0993
11596W        W27405  10.947   1.748  13.263  0.1140 -0.0154 -0.2208
11597W        W27406   8.477   0.115   3.108  0.0174 -0.2749 -0.0026
11598W        W27407  13.400  12.938   4.254 -0.0956 -0.0104 -0.0657
11599W        W27408  16.417  15.034  11.823 -0.1252  0.0033 -0.3407
11600W        W27409  16.117  10.439   9.984  0.1750 -0.0811  0.2739
11601W        W27410   8.150   5.027   5.108  0.0301 -0.0215  0.1124
11602W        W27411  14.092  13.420   3.172  0.0474  0.0358 -0.0317
11603W        W27412  15.924   3.579  11.592  0.3676 -0.1136 -0.0459
11604W        W27413   6.764  16.435  14.599  0.2031 -0.2688 -0.0890
11605W        W27414   9.391   2.547  15.363 -0.0594 -0.0285  0.3086
11606W        W27415  17.964   7.182   2.199  0.1184  0.0703 -0.2434
11607W        W27416   5.274   4.794  14.574 -0.2680  0.0342 -0.3489
11608W        W27417  13.978  16.319  11.425  0.0402  0.0868 -0.2227
11609W        W27418  13.470   8.871  15.262 -0.0825 -0.0380  0.2485
11610W        W27419  17.245  12.051  11.243 -0.2488  0.3159  0.2709
11611W        W27420   0.293   0.519   5.577 -0.1820 -0.1011  0.0015
11612W        W27421   1.718   6.938   5.124  0.1623  0.1580 -0.1339
11613W        W27422   8.073  15.019  10.804 -0.1675 -0.0107  0.2973
11614W        W27423  16.201   1.523   2.875 -0.1223  0.0209  0.0192
11615W        W27424   4.424   1.606   1.079 -0.3501  0.1878 -0.2170
11616W        W27425   8.226   4.110   4.722  0.1890 -0.1098 -0.1928
11617W        W27426   5.674  10.075   5.721  0.0056 -0.0546 -0.2334
11618W        W27427   9.717  14.793   4.533  0.1410  0.0907  0.0703
11619W        W27428  17.742  10.745   4.725  0.0089 -0.3168  0.0043
11620W        W27429  16.444  12.335  14.118  0.0308  0.0859  0.3570
11621W        W27430   1.358   1.427   5.276  0.1779 -0.0022  0.0299
11622W        W27431   1.686  15.291   2.711  0.1458  0.0265  0.0919
11623W        W27432   9.469  14.260   3.185  0.0602 -0.1449  0.0764
11624W        W27433   2.355   2.081  10.540 -0.2197  0.0038  0.0576
11625W        W27434   2.424  17.498   4.133 -0.4230 -0.3479 -0.0967
11626W        W27435  12.124   8.443  12.027  0.0580 -0.1759 -0.2202
11627W        W27436   4.843  16.361   1.576 -0.1587 -0.0195 -0.1180
11628W        W27437   4.697   9.342   2.863 -0.0343  0.1372  0.1260
11629W        W27438   2.496   9.433   4.919 -0.2129  0.0337 -0.0001
11630W        W27439   5.041  18.318   3.645  0.1880  0.0201 -0.0987
11631W        W27440  13.456  11.370   3.510 -0.0976  0.0474  0.0190
11632W        W27441  15.278   1.346   2.472  0.4714 -0.0943  0.0990
11633W        W27442   2.743   1.764   5.527 -0.3742  0.0087  0.0154
11634W        W27443  14.614   6.495  14.853 -0.0453  0.2339  0.1044
11635W        W27444  12.698   5.363  14.184 -0.2956  0.0826  0.0642
11636W        W27445   7.536  13.340  13.585 -0.1868  0.0289  0.0022
11637W        W27446   6.783  18.219  15.070 -0.1540  0.1089 -0.0151
11638W        W27447   2.363   7.769   1.087  0.0429  0.0891 -0.1519
11639W        W27448   1.133  10.959   3.266 -0.1931 -0.1250  0.0394
11640W        W27449   3.783  18.401   0.708 -0.2926  0.3092 -0.2170
11641W        W27450  16.544   7.680   2.971 -0.1199  0.1509 -0.0008
11642W        W27451   8.068  13.389   2.124 -0.0023  0.1921  0.1466
11643W        W27452  11.688   0.792   1.318  0.0222 -0.4135 -0.1025
11644W        W27453   8.886  12.077  14.356  0.2299  0.0286 -0.0315
11645W        W27454   7.563  16.926  12.258 -0.1654 -0.1477 -0.1156
11646W        W27455   9.814  18.341  14.602  0.0798  0.0055  0.3271
11647W        W27456   0.578   3.361   4.832 -0.2096  0.3375 -0.2382
11648W        W27457  14.902   8.003   2.149  0.0805 -0.0486  0.2870
11649W        W27458   6.299   7.225   1.973  0.1689 -0.2244 -0.0735
11650W        W27459  11.677  15.691   3.950 -0.3050 -0.0694 -0.1416
11651W        W27460   5.757  14.143  10.695  0.0166  0.4694 -0.1676
11652W        W27461  11.568   8.570  12.748 -0.0068  0.0086 -0.2191
11653W        W27462  11.405   4.110  13.823 -0.0547 -0.2086 -0.1995
11654W        W27463   1.704   3.024   0.882  0.3184  0.2348 -0.3008
11655W        W27464  11.038   6.100  15.094 -0.1427  0.0578 -0.0264
11656W        W27465   5.670   2.953   0.671 -0.1018 -0.0160  0.0028
11657W        W27466  12.331   2.732   2.177 -0.1029  0.0595 -0.3782
11658W        W27467   4.261   2.818   4.123  0.0210 -0.0884 -0.1881
11659W        W27468   0.081  13.437   3.518 -0.0358 -0.2587  0.0717
11660W        W27469  14.609  17.081   0.813 -0.4296 -0.0965  0.0125
11661W        W27470   3.864  18.568   3.983 -0.5711 -0.0372  0.1233
11662W        W27471  15.315  11.116   5.091  0.1795  0.3642 -0.0455
11663W        W27472  12.916  11.176  12.250  0.1918 -0.1856  0.3940
11664W        W27473  16.776   9.045  13.539  0.0052 -0.0813 -0.0325
11665W        W27474   8.795  14.909  14.852 -0.3381  0.0756  0.0680
11666W        W27475  17.287  11.028   0.057 -0.3088 -0.1454 -0.1659
11667W        W27476  13.297  12.479  13.137  0.1077 -0.1120  0.4408
11668W        W27477  11.743   1.910   1.393 -0.0611  0.0664  0.1292
11669W        W27478  18.247   7.097  13.075 -0.1641  0.0180 -0.0960
11670W        W27479   2.315   5.851  13.011 -0.1050  0.0180  0.4069
11671W        W27480   9.290   9.772  15.102  0.0897  0.2483 -0.3276
11672W        W27481   3.972  18.276  12.220  0.5885 -0.0414  0.1548
11673W        W27482   9.237  18.378   0.512  0.0214  0.2701  0.7715
11674W        W27483   2.153  18.491   2.310 -0.2354  0.2383 -0.1841
11675W        W27484   2.543   1.094   0.722  0.0701  0.0482 -0.0541
11676W        W27485  14.961   8.808  14.913  0.3127 -0.1724  0.0231
11677W        W27486  12.903  17.041  14.702 -0.1807  0.2035 -0.2738
11678W        W27487  14.474  13.157   1.139 -0.0260  0.1517 -0.0045
11679W        W27488   2.113   4.276  13.377  0.0077 -0.2968 -0.0169
11680W        W27489  13.174  14.436  14.743  0.1774  0.0007  0.1088
11681W        W27490   3.871   0.343  12.098  0.0367 -0.5273  0.1227
11682W        W27491   2.633   4.179   2.186 -0.4300 -0.1349 -0.1646
11683W        W27492   9.767   3.275   0.910  0.3794 -0.2914 -0.1986
11684W        W27493   1.155   2.471  12.323  0.0039  0.1367  0.0114
11685W        W27494   5.333  14.536   3.121 -0.0067  0.0104  0.1629
11686W        W27495  14.384   0.546   2.515  0.2045 -0.2276 -0.1180
11687W        W27496  10.845  14.078  14.324 -0.1163  0.0791 -0.2139
11688W        W27497   8.421  12.406   4.779  0.2209  0.2052 -0.1381
11689W        W27498  13.570  13.315   8.869 -0.1450 -0.0172  0.0254
11690W        W27499   9.294   4.005  11.637 -0.0234 -0.0541  0.0131
11691W        W27500  16.473   3.965   0.443 -0.1490  0.1105 -0.0478
11692W        W27501   9.970   4.762   4.900 -0.3044 -0.0984  0.1757
11693W        W27502  10.223  13.856  10.676 -0.0717 -0.1118  0.0999
11694W        W27503  17.740  13.313  12.093  0.2831 -0.4204  0.1773
11695W        W27504  13.858  16.148  10.083  0.1905 -0.1818  0.0082
11696W        W27505   1.008  10.117   5.100  0.3480  0.1565  0.0799
11697W        W27506   5.603  10.336  12.275 -0.3740 -0.1183 -0.0820
11698W        W27507   6.875   4.996  11.795  0.0907 -0.1879  0.1102
11699W        W27508   5.193  12.883  11.754  0.1846  0.0780 -0.1462
11700W        W27509  10.850   7.273  13.889  0.0039  0.1566  0.0084
11701W        W27510  12.977  13.662   1.034  0.1609 -0.1527 -0.0163
11702W        W27511  11.231   1.724   5.378  0.0380 -0.0034  0.0639
11703W        W27512  15.998  12.069   3.893  0.2924  0.3407  0.0853
11704W        W27513   0.907  10.569   1.748 -0.2895  0.0568 -0.1387
11705W        W27514   3.235   5.581   4.811 -0.0520 -0.0608  0.0242
11706W        W27515   3.471  11.339   1.127  0.2546 -0.0798 -0.3195
11707W        W27516  15.958  14.497  14.705  0.2744 -0.1338 -0.1379
11708W        W27517   2.357   2.415  14.605  0.4061 -0.2072  0.1502
11709W        W27518   2.681   6.525   0.039  0.2496 -0.3355  0.1827
11710W        W27519  18.323  12.826  13.067 -0.3560  0.1185  0.2228
11711W        W27520   8.893   4.039  11.929 -0.0586 -0.1216  0.0314
11712W        W27521  15.218  13.552   1.674 -0.0247 -0.0414  0.1717
11713W        W27522   1.991   8.862  12.205  0.0183  0.2349 -0.0464
11714W        W27523  14.851   6.007  13.902  0.3186  0.1158 -0.1890
11715W        W27524   6.188   8.012   3.870  0.0020  0.1819  0.0296
11716W        W27525  18.558   0.580  15.010 -0.4248 -0.0792 -0.1517
11717W        W27526  15.873  17.465   4.444 -0.0530  0.0015 -0.1024
11718W        W27527   9.203   7.245  13.336 -0.1556  0.1581 -0.1341
11719W        W27528   4.524   7.222   5.752  0.0138 -0.0591  0.2579
11720W        W27529  15.295   1.405  15.295 -0.1684 -0.0147  0.0675
11721W        W27530   3.157  16.001   1.550  0.1455  0.0356  0.2236
11722W        W27531   9.480   4.076  14.624 -0.1588 -0.0747 -0.0738
11723W        W27532   9.179   0.582  13.679  0.0302 -0.1402 -0.3373
11724W        W27533  12.500  18.565   4.045  0.0055  0.0177 -0.2357
11725W        W27534   0.234   7.202  12.917 -0.0213  0.0665 -0.1277
11726W        W27535  10.538   1.314   4.478  0.1401  0.0301 -0.0651
11727W        W27536   3.150  17.547   3.328  0.0756 -0.0447  0.0117
11728W        W27537   7.948   4.262  13.102 -0.0876  0.0461  0.0352
11729W        W27538  12.238   9.554   4.494 -0.0494  0.2106 -0.1489
11730W        W27539  12.539  13.251  13.175  0.2790  0.1831 -0.0234
11731W        W27540  11.464   8.952   4.758 -0.0065 -0.1182  0.0604
11732W        W27541   4.248  13.887   2.522 -0.0011  0.2109  0.3467
11733W        W27542  15.237  15.644  14.705 -0.0028 -0.1677 -0.1518
11734W        W27543   1.026   0.138   4.577  0.3113  0.2847 -0.1862
11735W        W27544   2.085  10.710  15.197 -0.1618  0.1029  0.1029
11736W        W27545  12.538   7.608  14.230  0.1613  0.3840  0.2340
11737W        W27546   6.703   7.624   4.230 -0.0294 -0.0232 -0.0510
11738W        W27547  15.316  14.247   2.186  0.0250 -0.0053 -0.2144
11739W        W27548  14.645  14.041   1.294  0.1885  0.0746 -0.0769
11740W        W27549   7.562   2.042  14.513  0.1873 -0.1752 -0.0134
11741W        W27550  16.464  17.914  13.672 -0.1917 -0.0176  0.2657
11742W        W27551  10.188  10.232   3.223 -0.0030 -0.2334 -0.1840
11743W        W27552  14.099  12.882  13.012  0.1471 -0.2160  0.1985
11744W        W27553   5.303  16.163  15.144  0.0079  0.2418 -0.4375
11745W        W27554   4.323  14.875   0.648 -0.1104 -0.0196  0.0395
11746W        W27555  15.305   0.384   1.406 -0.0096 -0.1867 -0.0998
11747W        W27556   2.831  14.627  14.269  0.1644 -0.0194 -0.2070
11748W        W27557  13.255   8.759  13.636 -0.0509  0.1315 -0.1755
11749W        W27558   6.867   2.093   2.650  0.0240  0.1899  0.1467
11750W        W27559   4.564   3.202   2.426 -0.2516  0.0357  0.0487
11751W        W27560   0.761  14.547  13.894 -0.1254 -0.2627  0.1653
11752W        W27561  11.862   0.562  12.168 -0.0432 -0.3824  0.4125
11753W        W27562   9.630  11.981   4.538 -0.1900 -0.1861  0.3785
11754W        W27563   4.176  12.383  13.706 -0.1493  0.1044 -0.0655
11755W        W27564   8.885   8.455   1.296  0.0735  0.2085  0.1543
11756W        W27565   9.308  13.302  12.469  0.0584 -0.2306  0.0031
11757W        W27566   5.644  10.966   5.543 -0.0688 -0.0715 -0.1111
11758W        W27567   2.668   7.590   2.710 -0.0269  0.2507 -0.0108
11759W        W27568   2.290  13.966  11.156 -0.0374  0.0965 -0.1337
11760W        W27569  12.581   0.257  12.779 -0.0713  0.0623  0.0449
11761W        W27570  16.535  13.307  10.930 -0.2688 -0.3325  0.1226
11762W        W27571  12.206   5.571   5.147  0.2348 -0.0946 -0.1746
11763W        W27572   1.313   3.389   2.121 -0.1045  0.0258 -0.0966
11764W        W27573   7.574   3.581   2.750 -0.0848  0.0769 -0.1567
11765W        W27574   3.536  16.178   0.366  0.2381 -0.1196 -0.2049
11766W        W27575   2.824   7.234   5.181 -0.1185  0.0234  0.1065
11767W        W27576  14.036  17.145  11.781  0.0815  0.1427  0.3289
11768W        W27577  12.458  12.808  15.644  0.0720  0.0172  0.2246
11769W        W27578   0.155  10.325  12.465  0.0639  0.0838 -0.2227
11770W        W27579   4.351  11.721  13.363  0.2173  0.0784 -0.2944
11771W        W27580   3.746   8.453   2.726  0.0776  0.0367 -0.0894
11772W        W27581   7.428  18.638   3.220  0.0767  0.1509  0.1519
11773W        W27582  16.338   7.944  12.567  0.0861 -0.0363 -0.0067
11774W        W27583   0.767  17.281   1.460  0.0039  0.0414 -0.0849
11775W        W27584   8.951  10.028  11.526  0.2209 -0.1630  0.1396
11776W        W27585  15.123   1.669  15.681 -0.1786 -0.1503  0.0061
11777W        W27586  10.390   4.323  14.979  0.1020  0.0364  0.1083
11778W        W27587  12.683   0.714  12.575  0.5061  0.2729  0.0516
11779W        W27588  16.061   5.138  10.840 -0.1074  0.2017 -0.1199
11780W        W27589  18.348  13.447   3.113 -0.3621  0.0458 -0.2978
11781W        W27590  15.755  17.882   0.216 -0.3621  0.0784  0.1217
11782W        W27591  15.327   0.449  12.273  0.3918 -0.1324  0.0580
11783W        W27592  15.632   3.426  15.692  0.1616  0.3931 -0.0447
11784W        W27593  10.292   5.386  11.280  0.0241 -0.1277 -0.1441
11785W        W27594   4.153   9.810  13.715 -0.1317 -0.3109 -0.2160
11786W        W27595   5.896  14.858   5.398  0.0700 -0.0324  0.6648
11787W        W27596   8.245   6.719  13.301 -0.0153 -0.3369  0.0284
11788W        W27597   9.650   6.682   4.585 -0.0727 -0.0496 -0.1853
11789W        W27598   9.111   5.749   1.095 -0.2303 -0.0237 -0.1863
11790W        W27599   0.218  12.758  15.020  0.0816 -0.2609  0.0473
11791W        W27600  11.891  14.872   4.567 -0.3770 -0.1859 -0.0182
11792W        W27601   2.548   5.048   0.638 -0.0881 -0.2420  0.2461
11793W        W27602   3.588   5.280   2.050 -0.2339 -0.0549 -0.3223
11794W        W27603  15.675  18.485   2.463  0.1228  0.1499  0.2359
11795W        W27604  10.090  12.387   3.235  0.0115  0.0225  0.1142
11796W        W27605  11.945   7.125   3.928 -0.6615  0.2924  0.1731
11797W        W27606  13.526  16.628   1.830 -0.0760  0.0450  0.0537
11798W        W27607  16.883  18.606  13.907 -0.2700  0.2776  0.0350
11799W        W27608  10.030   4.850   4.341  0.2032 -0.1615  0.2656
11800W        W27609  17.584   1.986  12.050 -0.1285 -0.0650 -0.1192
11801W        W27610   4.722  17.309  10.856 -0.0303 -0.3356 -0.1417
11802W        W27611   0.864   5.817   2.492  0.1545 -0.0032 -0.0427
11803W        W27612  14.429   0.556   0.652  0.1846 -0.5999 -0.1098
11804W        W27613  10.996  13.508   4.484 -0.3752  0.2243 -0.1082
11805W        W27614   2.259  15.426  13.152 -0.1195 -0.1042 -0.2031
11806W        W27615  15.070  12.821   5.021  0.1910  0.0815  0.3288
11807W        W27616  17.625   2.909  12.058 -0.0418  0.1782  0.1752
11808W        W27617  14.743  11.730   1.791  0.1172  0.0902 -0.2953
11809W        W27618  12.093   0.322   3.200  0.1181 -0.0689 -0.5491
11810W        W27619   8.555   8.130   0.460  0.0913 -0.0139 -0.2816
11811W        W27620   9.640   5.501   1.221  0.0023 -0.0729 -0.0851
11812W        W27621   0.545  16.958  14.118  0.1340  0.3047 -0.0712
11813W        W27622   6.668   1.936  14.480 -0.1336 -0.0794  0.2079
11814W        W27623  11.829  13.933   4.667  0.1494  0.2104 -0.1689
11815W        W27624   7.094   7.897   1.493 -0.1983 -0.0994  0.0015
11816W        W27625  13.558  10.140  15.359 -0.0855  0.0182  0.0063
11817W        W27626  13.274   1.643   1.763 -0.0043 -0.2154  0.0023
11818W        W27627   1.905  17.420   2.212  0.1431  0.0570 -0.0560
11819W        W27628  18.378  18.532   3.910 -0.2049 -0.0410 -0.0370
11820W        W27629   1.336   9.879   1.021 -0.0873 -0.0943  0.1304
11821W        W27630   5.824  10.717  11.929 -0.2951  0.1861  0.0377
11822W        W27631   9.591   9.430  15.413 -0.1770 -0.0364 -0.0115
11823W        W27632   2.249   5.726   0.190 -0.5422 -0.4371 -0.1409
11824W        W27633   0.338  12.953   2.151  0.3367  0.1685  0.1751
11825W        W27634   9.059   3.994  12.415 -0.0626 -0.0807  0.2006
11826W        W27635  17.613   7.320   5.033 -0.2794  0.0887 -0.0208
11827W        W27636  16.839   5.845   0.454 -0.4018  0.3101  0.1533
11828W        W27637   0.042   4.543   4.476  0.1837  0.0033 -0.0158
11829W        W27638  10.718   4.133  15.307 -0.1321  0.0862  0.1876
11830W        W27639  10.859  10.478   0.539 -0.2002 -0.2291 -0.2518
11831W        W27640  18.541  15.901  12.092  0.0663 -0.0041 -0.2625
11832W        W27641   3.714  15.313  14.139 -0.0180 -0.2387  0.1598
11833W        W27642  18.531  10.713  12.357  0.0986  0.1951 -0.1260
11834W        W27643   4.900  13.635  10.719 -0.2210 -0.0768 -0.2129
11835W        W27644   8.251  17.364   1.940  0.0127  0.1611 -0.1162
11836W        W27645   6.790  15.067   4.884  0.2223 -0.1475 -0.0942
11837W        W27646   8.974   5.884   2.093  0.0561  0.0473  0.0251
11838W        W27647   8.951  15.873   1.737  0.2342  0.0754 -0.0902
11839W        W27648   7.743  10.481   1.839 -0.0114  0.1554 -0.1221
11840W        W27649  12.960  18.518   3.664  0.0552  0.3128 -0.0162
11841W        W27650   2.277   9.808  11.494 -0.0162  0.1607  0.1602
11842W        W27651   8.138  10.065   4.877  0.1384  0.0651 -0.0339
11843W        W27652   3.941   8.307   3.147  0.0733 -0.1241  0.2767
11844W        W27653   8.466  18.637  10.939  0.1587 -0.3996 -0.1333
11845W        W27654  13.365   2.699   3.884  0.1111 -0.1509  0.1477
11846W        W27655   7.560   9.120   1.404  0.1122 -0.1205 -0.0375
11847W        W27656  16.237   2.395  13.142  0.2497  0.1601 -0.1064
11848W        W27657   1.831   4.790  14.323  0.1982  0.0133 -0.3146
11849W        W27658   9.512  12.411   2.424  0.0981  0.2636 -0.1566
11850W        W27659   2.449  15.259   4.385  0.1397 -0.0784  0.1055
11851W        W27660   8.957   9.039   0.439 -0.0377  0.2227  0.0839
11852W        W27661   7.110  16.534  13.361 -0.2529 -0.1719 -0.1572
11853W        W27662   3.577  12.350  12.989  0.1202  0.0489 -0.0595
11854W        W27663   4.328   5.615   2.043  0.1837  0.5690 -0.1244
11855W        W27664   3.337  17.565   2.296  0.1908  0.0911 -0.4348
11856W        W27665  18.408   9.167  13.449  0.1725 -0.1085  0.3395
11857W        W27666   3.475   7.294  14.875  0.0263  0.0013 -0.0526
11858W        W27667   4.694  14.007  10.195 -0.5404  0.0762  0.1254
11859W        W27668  12.410  14.641  12.246  0.0648 -0.3718 -0.2580
11860W        W27669   1.740   5.908  11.318  0.0254 -0.1657  0.4686
11861W        W27670   3.747   8.832   1.269  0.1388 -0.0965 -0.3146
11862W        W27671  11.443   8.713  10.603 -0.4492  0.0823  0.1719
11863W        W27672   9.810  16.468   0.034 -0.0439  0.0353  0.0094
11864W        W27673   3.969  18.006   0.405 -0.2599  0.1870 -0.0425
11865W        W27674  18.025   7.668   2.366  0.3102  0.0633 -0.1984
11866W        W27675  15.162  14.253   3.746 -0.1969  0.2036 -0.1765
11867W        W27676   5.376  10.370   1.493  0.0262  0.2083  0.0258
11868W        W27677  16.574   0.284  11.092 -0.3663  0.1160 -0.1156
11869W        W27678  14.552  13.229  10.722  0.2610  0.1590 -0.3008
11870W        W27679  12.481  10.004  12.434 -0.0754 -0.1007  0.0752
11871W        W27680  11.508  17.506   1.479  0.1292  0.2194  0.1521
11872W        W27681   2.492   1.545   2.322  0.0233 -0.0645  0.0062
11873W        W27682  12.113   7.391   1.341  0.1057  0.3567 -0.1548
11874W        W27683  17.007  14.466  15.628  0.1214  0.1739 -0.0581
11875W        W27684  14.608  17.634  14.297  0.1762  0.0813 -0.0642
11876W        W27685  17.371  13.059  13.607 -0.0224 -0.1296 -0.4483
11877W        W27686  16.707  18.106   2.185  0.1308  0.1063  0.2481
11878W        W27687   4.841  12.963   1.524 -0.0234 -0.4014 -0.0942
11879W        W27688   2.791  12.692   1.118  0.3615  0.0397  0.0546
11880W        W27689  10.163  15.238  12.925 -0.1766  0.2164 -0.1486
11881W        W27690  13.471  16.396  10.390 -0.2114  0.0177  0.2438
11882W        W27691  17.124   6.288   1.441  0.1820 -0.1865 -0.0240
11883W        W27692   1.330   7.020  15.138 -0.0157 -0.1907  0.2022
11884W        W27693   4.276   9.620   4.416 -0.0712 -0.0267  0.1713
11885W        W27694  18.332   4.938   1.217  0.0252 -0.0833  0.1554
11886W        W27695  11.281  16.114   1.825 -0.1376 -0.2744 -0.0816
11887W        W27696   6.217   8.768   1.840  0.0825  0.1174  0.0702
11888W        W27697   5.849   4.249  11.782  0.1429  0.0265 -0.2346
11889W        W27698  17.794   9.712   3.511  0.1559  0.2055  0.1080
11890W        W27699  12.786   4.531  11.922  0.5620 -0.1381  0.1240
11891W        W27700  15.886   8.875   2.594  0.4062  0.2484  0.0209
11892W        W27701   9.368   0.151   5.854 -0.3476  0.0191  0.0107
11893W        W27702   1.922   0.421  15.467  0.3357 -0.0642  0.0242
11894W        W27703   3.748  18.189   4.312 -0.2100  0.0204 -0.1810
11895W        W27704  16.892  17.275  11.387  0.0378  0.0717 -0.3155
11896W        W27705   7.798   0.532  12.155 -0.2161 -0.2202 -0.1969
11897W        W27706   4.567   2.319  14.323 -0.4191  0.0863 -0.1962
11898W        W27707  13.980   9.657  10.952 -0.2379  0.2795 -0.0619
11899W        W27708   8.854   0.308   1.794 -0.4025  0.0929  0.1454
11900W        W27709   2.966  15.469   3.380 -0.0594 -0.0245  0.0352
11901W        W27710   8.134   0.717   2.772  0.3471  0.4258 -0.1312
11902W        W27711   6.188   1.250  13.713  0.0492 -0.0855  0.0193
11903W        W27712   2.692   6.834   1.889 -0.0970 -0.0165 -0.0750
11904W        W27713  15.878  11.462  14.720  0.1629 -0.1093  0.0529
11905W        W27714  11.543  16.635   0.321  0.0922 -0.3165 -0.2099
11906W        W27715   6.312  16.537   3.789  0.0735 -0.0571  0.0867
11907W        W27716   0.117  11.071   4.826 -0.1181  0.2645 -0.0991
11908W        W27717   1.953  12.404   4.297  0.2289 -0.0425  0.1052
11909W        W27718   3.706  13.984  12.479 -0.1610 -0.0391  0.1340
11910W        W27719   4.814   3.837   4.838  0.1440 -0.0179  0.1828
11911W        W27720   0.849   0.729   0.118 -0.0398  0.0700 -0.3303
11912W        W27721   6.593   7.845   5.804 -0.1528 -0.0549  0.0644
11913W        W27722  11.385  13.048   6.092 -0.1109  0.1440 -0.1639
11914W        W27723   7.757   8.572   1.986  0.2286  0.0469 -0.2196
11915W        W27724   5.019   3.464   2.994  0.0581  0.2325 -0.1818
11916W        W27725   9.181  13.446   2.917 -0.0984  0.4425 -0.2706
11917W        W27726  11.185   9.565   3.659  0.2223  0.2162 -0.1020
11918W        W27727  17.585   5.727   0.908 -0.0325 -0.1195 -0.1354
11919W        W27728   7.888   8.132  11.576  0.0522  0.1838 -0.0027
11920W        W27729  13.150   4.531  14.378  0.4926 -0.1750 -0.2758
11921W        W27730   2.277   2.618   2.579 -0.0641 -0.2038  0.0467
11922W        W27731   4.771   7.769   3.894  0.0656  0.0874  0.0981
11923W        W27732   3.695  15.560   2.638  0.2986  0.3235 -0.2497
11924W        W27733   1.309  16.870  11.416  0.0694 -0.1361  0.4430
11925W        W27734  10.574  17.546   0.891  0.2633  0.0831 -0.1484
11926W        W27735   5.695  11.549  14.692 -0.0001 -0.0913  0.2803
11927W        W27736  13.863  15.305   4.553 -0.0023 -0.0009 -0.1537
11928W        W27737   6.014  16.426  12.532  0.0869 -0.1325  0.2824
11929W        W27738   9.225  11.876  13.950  0.2526  0.1434 -0.1503
11930W        W27739  11.607  11.618  12.318  0.1470 -0.0453 -0.1097
11931W        W27740  17.184   2.899  15.628 -0.0516 -0.1930  0.0668
11932W        W27741   2.480  15.544  15.673  0.0245  0.1333 -0.2385
11933W        W27742  12.133   7.292  13.800  0.1510  0.0280 -0.0907
11934W        W27743  17.895  17.309  14.752  0.1667  0.1013  0.0596
11935W        W27744   7.113  11.058  12.562 -0.1507 -0.1517 -0.1686
11936W        W27745  13.928   8.321  15.441  0.2984  0.0453 -0.1860
11937W        W27746   4.801   9.248  14.091  0.2859 -0.1006  0.1918
11938W        W27747   5.698  11.785   4.858  0.1769 -0.1155  0.0835
11939W        W27748   4.090  12.240  14.254  0.0514 -0.3119  0.1431
11940W        W27749   5.576   1.578   1.958  0.1113 -0.0090 -0.0650
11941W        W27750   2.117   3.523  15.571 -0.0529 -0.1106 -0.1648
11942W        W27751  11.312   9.989   3.845 -0.1880  0.2883 -0.0207
11943W        W27752  12.789  14.313   2.946 -0.1465  0.2313 -0.2552
11944W        W27753   4.960   7.951  13.171  0.0437 -0.0266 -0.3584
11945W        W27754  16.213   8.688   2.989 -0.2492 -0.1687  0.1625
11946W        W27755   9.053  11.463   4.959 -0.1813  0.0882  0.1197
11947W        W27756  10.499   8.644  14.961 -0.1950 -0.1081 -0.2030
11948W        W27757  10.607  15.939  12.649 -0.3852  0.0463  0.1164
11949W        W27758   3.030   6.974  12.239 -0.0685  0.3435  0.1087
11950W        W27759   6.654  10.431  14.105 -0.2914  0.3760 -0.1001
11951W        W27760   6.144  13.400  11.617  0.3180 -0.0976  0.2284
11952W        W27761  15.019   9.151  11.414 -0.1312  0.1152  0.2257
11953W        W27762   9.916   7.540  12.682  0.0427  0.1977 -0.1306
11954W        W27763  17.560   2.779   4.337 -0.0989 -0.4613  0.0523
11955W        W27764   5.015  15.898  10.773 -0.0293 -0.1404 -0.1122
11956W        W27765  16.885   5.379  12.672  0.0582  0.0482 -0.0510
11957W        W27766  12.231   8.432   3.971  0.0460  0.0741  0.1204
11958W        W27767  18.083  11.731   1.457  0.0957  0.0082  0.1475
11959W        W27768  12.916   1.094  12.160  0.1009  0.0523  0.0454
11960W        W27769   7.586  13.871   3.579 -0.0576  0.3814  0.4374
11961W        W27770   3.657  13.779  13.563  0.0651  0.0367  0.0733
11962W        W27771   8.585   8.884  12.848 -0.2884 -0.0345 -0.0156
11963W        W27772   3.548   4.624  14.707  0.3439 -0.3339 -0.0336
11964W        W27773   2.249  12.166  15.602 -0.4904  0.2179 -0.1934
11965W        W27774  11.791  12.120   5.087  0.1246 -0.1028  0.0021
11966W        W27775   9.434  16.695  11.014 -0.0763 -0.0782  0.4190
11967W        W27776  14.900  17.882  10.705 -0.2248 -0.0453  0.0037
11968W        W27777  16.625  12.455   0.193  0.1633 -0.0747 -0.1505
11969W        W27778  14.798  16.235   2.351  0.0517  0.0528 -0.0874
11970W        W27779  12.459  13.399   9.251  0.1341  0.0517 -0.2603
11971W        W27780  14.788   4.747  14.063 -0.0640 -0.1322 -0.0726
11972W        W27781   0.180   7.794   0.269  0.1534  0.1575  0.0989
11973W        W27782   2.153   2.945  11.929 -0.2042  0.2191  0.0859
11974W        W27783  13.243   2.492   3.126 -0.4623 -0.1339  0.0811
11975W        W27784  10.324  12.961   5.401  0.1608  0.0590  0.2194
11976W        W27785  14.930  11.151   0.234 -0.1525 -0.1801  0.0676
11977W        W27786  15.049   9.119   2.159 -0.3407 -0.2938  0.2288
11978W        W27787   1.725   0.958  12.987 -0.0604 -0.1052  0.3568
11979W        W27788  14.471   1.061  13.371  0.1139 -0.2270 -0.0403
11980W        W27789   5.240  10.274  15.457  0.0149 -0.0646  0.0160
11981W        W27790   4.730   0.104   3.606 -0.0165 -0.1069 -0.0986
11982W        W27791   6.371   8.360   2.108 -0.6397 -0.0746 -0.1413
11983W        W27792  17.520  12.740  15.110 -0.2065 -0.1931  0.1607
11984W        W27793   5.763   4.039  14.919 -0.1920 -0.0790  0.3040
11985W        W27794  13.302   8.727  12.312  0.0096 -0.1100  0.0538
11986W        W27795   4.422  18.154  11.339 -0.3646 -0.2123  0.1523
11987W        W27796   0.220   3.163  10.705  0.4545  0.0025  0.3723
11988W        W27797  17.899   4.663   1.416 -0.1063 -0.4605  0.3043
11989W        W27798  11.129  13.342   5.787 -0.2228 -0.1826 -0.2623
11990W        W27799  12.794  16.588   2.050 -0.3542  0.3125  0.1233
11991W        W27800   9.082   8.271  13.830 -0.0804  0.2648  0.0584
11992W        W27801   6.618   8.734   1.431 -0.0207  0.1560  0.1610
11993W        W27802   8.577   0.740   1.940 -0.2378 -0.0128 -0.1581
11994W        W27803  17.924  14.647   3.570 -0.3140  0.3216  0.0853
11995W        W27804   0.336   9.992   3.876 -0.1938  0.3848  0.0324
11996W        W27805   9.562  14.680   3.419  0.0107  0.0798  0.0554
11997W        W27806   5.866   5.841  13.840  0.2134 -0.1994  0.0595
11998W        W27807  14.645  10.642   4.943 -0.1763 -0.3111  0.1937
11999W        W27808   8.581  15.929  12.965  0.1333 -0.0640 -0.0225
12000W        W27809   0.066  16.249   5.283 -0.2271  0.3393 -0.0909
12001W        W27810  13.406   9.565   2.246  0.1477  0.1774  0.2112
12002W        W27811   6.593  14.754   9.932 -0.1610  0.0277  0.0563
12003W        W27812   4.217  13.541   1.618 -0.0066 -0.2554  0.0551
12004W        W27813   2.713   8.600   2.420  0.1589  0.0343  0.5526
12005W        W27814  16.989   7.298  12.309  0.2861 -0.2453 -0.2428
12006W        W27815  10.824   3.643   2.193  0.1038 -0.1576  0.0015
12007W        W27816   3.378  11.437   5.306  0.1039 -0.2763  0.3057
12008W        W27817   7.515   8.692  13.558  0.1762 -0.1528  0.0212
12009W        W27818   9.846   2.273   4.944 -0.1201  0.1380  0.5284
12010W        W27819   3.345  14.322  12.313  0.1105 -0.2675 -0.0056
12011W        W27820  13.845  16.040  11.913 -0.1467  0.1229  0.2248
12012W        W27821   0.293   7.644   4.313 -0.0227 -0.0354 -0.0120
12013W        W27822  10.154  15.765  10.616 -0.0294 -0.1598  0.1086
12014W        W27823   4.298   3.920  10.556  0.1163  0.1801  0.0274
12015W        W27824  17.690   6.887   5.402 -0.1612 -0.1992  0.0856
12016W        W27825  12.813   6.230   4.113  0.0906  0.0612  0.1235
12017W        W27826  11.358   3.287   2.222 -0.1868 -0.2299 -0.1372
12018W        W27827   7.326  11.287  14.656 -0.0768 -0.0668 -0.0716
12019W        W27828   5.752   8.895   5.501  0.2479  0.2790  0.2567
12020W        W27829   6.239   6.028  14.205 -0.1084  0.1077  0.1210
12021W        W27830  14.843   9.993  12.420  0.1341 -0.1322 -0.0401
12022W        W27831   5.984  14.154   3.134  0.2092  0.0635 -0.2012
12023W        W27832   7.102  15.534  12.019  0.2206 -0.1086  0.0175
12024W        W27833   0.110   1.937   3.770  0.0388 -0.0011  0.0949
12025W        W27834   9.430  11.896   2.480  0.1504  0.0830  0.1913
12026W        W27835  13.835  12.486   9.840  0.1417  0.0892  0.0827
12027W        W27836  18.300   4.639   4.841 -0.1931  0.2017 -0.1850
12028W        W27837   5.710   6.594   2.361  0.1704 -0.3351 -0.0616
12029W        W27838   2.854  12.702  13.310  0.1529 -0.0735 -0.4136
12030W        W27839  17.117  14.612   5.771 -0.0792 -0.0178  0.0643
12031W        W27840  13.300   8.219  12.364 -0.1761  0.2256  0.0275
12032W        W27841   5.775   2.246   1.408 -0.0529  0.0070 -0.0304
12033W        W27842   8.825  16.585  14.844  0.1150 -0.0017 -0.0465
12034W        W27843   0.806   2.423  13.205  0.0452 -0.1544  0.2608
12035W        W27844   6.266   4.137   3.525  0.1703  0.0330 -0.0997
12036W        W27845   3.339   3.040  11.245 -0.1340 -0.1958  0.0207
12037W        W27846   5.879  17.797  15.411 -0.3389  0.3730 -0.2667
12038W        W27847   6.729  14.315   4.361  0.1507 -0.1426 -0.1137
12039W        W27848   7.100  10.451  12.687  0.3466  0.2649  0.0843
12040W        W27849  18.441   7.543  13.145 -0.0301  0.1413 -0.0209
12041W        W27850   5.238   4.216  14.070 -0.0557  0.1742  0.0085
12042W        W27851  17.127  15.353  14.506 -0.0010  0.0076 -0.2978
12043W        W27852   1.788  11.622  13.342  0.2482 -0.2059 -0.0499
12044W        W27853   5.342   3.065  11.669  0.2687 -0.2217 -0.0584
12045W        W27854   5.039  16.804  13.482  0.0764 -0.0897  0.4002
12046W        W27855   3.171   8.004  12.246 -0.0082  0.1936  0.0520
12047W        W27856  18.046   0.305   1.839  0.3263  0.0082 -0.0510
12048W        W27857   9.418   1.640  15.724 -0.1423 -0.0333  0.1630
12049W        W27858  14.180  18.645  11.475 -0.0760 -0.1656  0.2679
12050W        W27859   3.358   2.435   0.596  0.1520 -0.1579  0.1457
12051W        W27860   6.591   1.954  13.208  0.5107  0.2624 -0.1250
12052W        W27861  11.900   0.245  11.057  0.1939  0.1426 -0.1868
12053W        W27862   5.544  14.035  12.257  0.0029  0.0570 -0.1790
12054W        W27863  15.707  11.019  12.702  0.3724  0.1264 -0.1726
12055W        W27864  17.822   8.824   2.309  0.3337  0.1754  0.1419
12056W        W27865   8.685   4.644   3.941 -0.3298  0.1521  0.1985
12057W        W27866   6.951  17.337   0.470  0.1461 -0.3648 -0.2594
12058W        W27867  12.005  14.824   1.015  0.0052  0.0786 -0.2201
12059W        W27868  18.218  16.336   0.456 -0.0768 -0.0341  0.1619
12060W        W27869  13.747  14.760   2.064 -0.1318 -0.0611 -0.1972
12061W        W27870  13.464  15.469   2.758 -0.0834  0.0613 -0.0907
12062W        W27871  15.209  13.741  13.816 -0.1325  0.0467  0.0400
12063W        W27872  12.188  16.132   4.636 -0.1627  0.0897  0.2641
12064W        W27873  15.875  15.485  13.936  0.3241 -0.2141 -0.2853
12065W        W27874  12.921  16.883  10.526 -0.1638 -0.2892  0.1846
12066W        W27875   6.668  13.916   2.692  0.3339 -0.0570 -0.0209
12067W        W27876   3.150   0.446   2.821  0.0456 -0.0243  0.0002
12068W        W27877  16.776   0.437   2.045  0.2276 -0.1401  0.1102
12069W        W27878  14.389   5.748  11.168 -0.0761  0.1408 -0.0489
12070W        W27879   6.219   3.400  11.178  0.1272 -0.3797  0.0600
12071W        W27880  15.541   8.420   0.663  0.2750  0.1011  0.0548
12072W        W27881   5.867  17.058  13.775  0.3088  0.0466 -0.2878
12073W        W27882   6.753   7.008   2.192  0.2699 -0.1704  0.1046
12074W        W27883   1.656   5.829  11.796 -0.1985  0.0221  0.2006
12075W        W27884  10.949  18.376  12.526  0.0054 -0.3683  0.2937
12076W        W27885   7.272  16.126   0.602  0.0951 -0.2580  0.1264
12077W        W27886   9.317   1.871   0.456 -0.2460  0.2487  0.0480
12078W        W27887  11.687   6.142  14.227 -0.0700  0.0569 -0.1237
12079W        W27888  14.826   6.905  15.736 -0.0655  0.0680 -0.1561
12080W        W27889  10.851  11.969  11.507  0.1121  0.2586 -0.2536
12081W        W27890  16.794  17.829  14.044 -0.0374  0.1722 -0.1475
12082W        W27891  10.161   7.074  10.078  0.3559 -0.0150 -0.2299
12083W        W27892   2.405  13.737   5.571 -0.3152  0.0680 -0.2089
12084W        W27893  10.840   8.643  15.395 -0.0427  0.2167 -0.1357
12085W        W27894   0.823  17.881  11.714 -0.2157 -0.0286  0.1676
12086W        W27895  17.562   0.230  12.039 -0.0288  0.2081 -0.0072
12087W        W27896  18.600  11.398  12.884  0.1425  0.3433  0.0215
12088W        W27897   9.917   1.824  14.183  0.0371 -0.0763  0.2958
12089W        W27898   7.778  10.509  14.146  0.1800 -0.0950 -0.2584
12090W        W27899  15.717  14.421  14.048 -0.2493  0.0125  0.1148
12091W        W27900  16.416  17.195   3.476  0.3122 -0.1050  0.4265
12092W        W27901   0.805   8.410  13.058  0.2654  0.1351  0.1394
12093W        W27902  11.551  18.416  11.404 -0.2676  0.1397  0.0269
12094W        W27903  14.807  13.347   5.002 -0.0082 -0.0874  0.1312
12095W        W27904   8.876   9.428   2.282 -0.1591 -0.1432 -0.1065
12096W        W27905  18.390   8.748  13.760  0.0385  0.2365 -0.0518
12097W        W27906   2.696   2.290   2.627  0.1190  0.2345 -0.0016
12098W        W27907  18.302  12.531  11.939  0.1236 -0.0718 -0.1460
12099W        W27908  16.091  18.143  15.255  0.0267  0.0126  0.1109
12100W        W27909  16.736  12.417   1.179  0.1053 -0.1661  0.0173
12101W        W27910   4.425   0.379   3.962  0.1322  0.0543 -0.1209
12102W        W27911  15.921  18.099   1.204  0.0593 -0.0862 -0.1496
12103W        W27912   5.419   7.055   4.338 -0.1048  0.1337  0.1563
12104W        W27913   6.307   5.734  12.982 -0.1103 -0.1086  0.0093
12105W        W27914   9.363   9.231  13.322  0.3438 -0.2042 -0.1316
12106W        W27915   1.709   8.887   0.647 -0.2606  0.0757 -0.0198
12107W        W27916  16.222   2.110   1.161  0.0438 -0.2744  0.2126
12108W        W27917  14.574  11.499   3.183 -0.2802  0.0456 -0.2812
12109W        W27918  11.910  10.607  12.010  0.5190  0.1034  0.1774
12110W        W27919   3.828  12.581  12.278 -0.0554 -0.0339  0.2486
12111W        W27920  16.722  18.536  11.526 -0.2975  0.0895 -0.0290
12112W        W27921   9.184   2.257   1.964  0.2408 -0.2192  0.1135
12113W        W27922  13.320  16.359  13.276  0.1365 -0.1516  0.0308
12114W        W27923   5.483   2.342   4.769  0.1001 -0.0110  0.1909
12115W        W27924   0.818  13.298   4.128 -0.3663  0.1099  0.0730
12116W        W27925  13.354   9.302   4.713 -0.1157  0.1291 -0.2841
12117W        W27926   8.255  11.663  15.535  0.1233 -0.2852  0.2618
12118W        W27927   2.686  14.317   3.562  0.2659 -0.0020  0.1801
12119W        W27928  11.591   4.589  14.622  0.1576 -0.2073 -0.3029
12120W        W27929   1.672   0.702  13.644 -0.1111 -0.1636 -0.1211
12121W        W27930  18.287  11.256  13.221 -0.2916  0.1333  0.1792
12122W        W27931   3.390   3.709   2.608  0.0907  0.3378 -0.0373
12123W        W27932  12.059   3.732  10.976 -0.0261 -0.5870 -0.1723
12124W        W27933   2.033  13.452   3.418  0.1105  0.3795  0.1991
12125W        W27934  16.551  12.253   5.270  0.1506  0.4000  0.0385
12126W        W27935   6.248   4.387   5.317  0.1151  0.1444  0.0883
12127W        W27936  14.490   3.117  12.953  0.2192  0.0266  0.0764
12128W        W27937   4.597   5.854   2.378  0.4529 -0.1233 -0.2387
12129W        W27938   9.083  15.516   3.553 -0.0840 -0.1417 -0.2919
12130W        W27939   3.145  16.422   1.744 -0.0843  0.0506 -0.1963
12131W        W27940   4.655  10.372   2.277  0.1852  0.0289  0.3299
12132W        W27941   2.657  16.719   3.406  0.1018 -0.0030  0.2104
12133W        W27942  18.648   5.970   0.182  0.0083 -0.0860  0.1495
12134W        W27943   6.440   5.283   1.093  0.1268  0.1524 -0.2558
12135W        W27944  11.187  18.004  12.326  0.0008  0.0373  0.1211
12136W        W27945   8.671  11.503   3.282 -0.2412 -0.0243 -0.0161
12137W        W27946   8.229  18.237  10.638 -0.0580 -0.2057 -0.3237
12138W        W27947  16.758   7.663   0.941  0.2322  0.0776  0.1869
12139W        W27948  10.274   5.119  10.809 -0.0607 -0.2794 -0.0631
12140W        W27949   8.547   2.722   3.371  0.0484 -0.3000  0.3901
12141W        W27950  14.381   3.007  11.234  0.2906  0.0374 -0.1864
12142W        W27951   4.625   0.908  14.103 -0.1082 -0.2103  0.0904
12143W        W27952  17.893   8.600  10.886  0.2066  0.2120  0.3346
12144W        W27953   7.349   1.563   0.437  0.2052  0.0586  0.3648
12145W        W27954   8.359   8.087   3.057  0.1238 -0.2093  0.1254
12146W        W27955  13.775   8.491   1.581 -0.1745  0.0931 -0.1203
12147W        W27956   6.887  14.919   0.104  0.1205  0.5323 -0.0915
12148W        W27957   4.450  14.406   2.373 -0.2140 -0.0308 -0.1573
12149W        W27958   0.694  11.195   3.147 -0.2050  0.0111 -0.5911
12150W        W27959   9.295  15.335   1.773  0.1851 -0.1850 -0.4648
12151W        W27960   2.868  12.842  14.197  0.3520  0.0010  0.1425
12152W        W27961  12.093  16.613  15.270  0.1823  0.3979 -0.2420
12153W        W27962  11.661  15.328  10.619 -0.0361  0.1568 -0.2119
12154W        W27963  10.850  11.891   2.209  0.2234  0.1657 -0.1395
12155W        W27964  10.603  14.764  12.236 -0.3620 -0.1879  0.2384
12156W        W27965   0.233   6.028  10.778  0.3533 -0.3993 -0.1552
12157W        W27966  18.098  15.919  13.042  0.2624 -0.2858  0.2728
12158W        W27967   5.790  11.871   4.361  0.0212  0.0469 -0.0198
12159W        W27968  18.175  11.568   4.934  0.4755 -0.1201  0.0577
12160W        W27969   8.707  16.480  12.122 -0.0384 -0.1747 -0.0961
12161W        W27970   0.582   7.539   0.415 -0.1514 -0.2149  0.0250
12162W        W27971  15.459   7.853   0.850 -0.0164 -0.0458  0.0844
12163W        W27972  16.985   5.923   4.747 -0.1379  0.0156  0.1328
12164W        W27973   4.778   6.870  15.471  0.1929  0.0098 -0.2014
12165W        W27974   0.327   7.651   2.173 -0.0817  0.2464  0.2826
12166W        W27975   2.520  13.059   2.546  0.0071  0.1692 -0.2077
12167W        W27976  13.651  11.505  13.317 -0.0471 -0.0319  0.0619
12168W        W27977  14.594   5.068   3.173  0.1375  0.1238  0.1090
12169W        W27978   8.156   5.214  15.076  0.1373 -0.0434  0.2291
12170W        W27979   9.685  17.571  15.383  0.2018 -0.1611  0.0896
12171W        W27980   8.207  10.458  13.317  0.2287  0.2646  0.0905
12172W        W27981   1.846   3.870   1.865 -0.0591 -0.2546 -0.2046
12173W        W27982   5.421   7.217   1.659  0.0731 -0.0813 -0.0681
12174W        W27983  14.998   6.223  15.134  0.0813  0.0711  0.0172
12175W        W27984   4.717  11.420  11.080  0.0426  0.1038  0.0978
12176W        W27985  13.834   5.408   1.616  0.1213 -0.1857  0.1670
12177W        W27986  13.897   1.323   3.447 -0.0544 -0.1449  0.0617
12178W        W27987   8.143   6.156  13.375  0.0280 -0.1640  0.0464
12179W        W27988   2.296   3.483   4.073 -0.3575 -0.1444 -0.0718
12180W        W27989  17.882   6.720  11.277 -0.2627  0.3321 -0.0728
12181W        W27990  17.231   8.441   0.592  0.2688 -0.0134 -0.3548
12182W        W27991  18.246   1.884   6.691 -0.1738 -0.0884 -0.0792
12183W        W27992   8.882  15.582  12.750 -0.2457 -0.5135 -0.3217
12184W        W27993   3.754  13.406   1.721 -0.0753  0.1672  0.1469
12185W        W27994   5.990   2.923   1.157 -0.1391 -0.0413 -0.1470
12186W        W27995   5.464  11.334  13.508  0.2535 -0.0306  0.0647
12187W        W27996  16.856   1.012  10.221 -0.2373  0.1534  0.0013
12188W        W27997  18.442   3.318  11.841 -0.1846  0.1371  0.2035
12189W        W27998   2.612  10.411  15.023 -0.0235 -0.1489  0.0411
12190W        W27999   1.401   2.137   0.445 -0.2649 -0.2909  0.1700
12191W        W28000   1.620   1.092  13.893  0.0436 -0.2780 -0.3179
12192W        W28001   5.216  11.424  11.116 -0.1089 -0.2329  0.0619
12193W        W28002   6.069   5.409   0.791  0.2957 -0.1989  0.3210
12194W        W28003  18.037  18.589   0.129 -0.2041 -0.2042  0.0156
12195W        W28004  10.004   5.255  13.482  0.3358  0.0783 -0.2776
12196W        W28005  18.458  18.173   1.241  0.0377  0.1350  0.0618
12197W        W28006  17.369   9.617  14.308  0.0594  0.2121 -0.2460
12198W        W28007   6.537  15.609  14.300  0.0615 -0.4255 -0.0397
12199W        W28008  10.380  10.255   3.750  0.3270  0.1539 -0.2036
12200W        W28009  14.254  14.810   4.358  0.0872 -0.2489  0.0166
12201W        W28010  12.745   2.971  13.519  0.0173  0.2618 -0.1388
12202W        W28011   1.322  17.525  14.109  0.0012 -0.0670 -0.1994
12203W        W28012  16.634  16.096  12.250 -0.1758  0.2240 -0.0087
12204W        W28013   7.333  15.384   1.296 -0.3585  0.2689 -0.1372
12205W        W28014  12.568  14.798  11.208 -0.0703 -0.2321  0.4337
12206W        W28015   5.867   2.911  11.770  0.3153  0.1902  0.0133
12207W        W28016  15.820   5.763  15.563  0.3815 -0.0519 -0.0686
12208W        W28017  10.252   8.561  11.264  0.1199  0.0599  0.0581
12209W        W28018  14.076   3.454   1.820 -0.0752  0.1652  0.1492
12210W        W28019   0.401   8.441   4.833 -0.0433  0.1517 -0.2709
12211W        W28020  12.127   8.673  12.460  0.2345  0.3831  0.3471
12212W        W28021   8.673  16.871   4.306  0.0634 -0.0852  0.0007
12213W        W28022   3.655  11.044  13.666  0.1114 -0.1169  0.1312
12214W        W28023   4.182   9.541  14.874  0.2375  0.1279  0.0285
12215W        W28024   1.717   9.538   3.874 -0.0716 -0.1294  0.2298
12216W        W28025   5.443   1.389   0.190 -0.0446 -0.2629  0.1228
12217W        W28026   9.550  12.575  13.797 -0.0968  0.0168 -0.4904
12218W        W28027   4.962   4.837   3.518 -0.0930  0.1801 -0.4433
12219W        W28028   3.301   7.806   3.475  0.1377  0.1763 -0.0672
12220W        W28029   1.154  10.595  10.963 -0.1778  0.2263  0.1853
12221W        W28030   4.989   5.693   4.938  0.2197  0.0192  0.2448
12222W        W28031  10.223  17.462  10.130  0.2178 -0.1727 -0.0380
12223W        W28032  14.686  14.058  10.304  0.0128 -0.3258 -0.1178
12224W        W28033   4.435  18.097   4.351  0.0357 -0.1669  0.0530
12225W        W28034   5.043   7.850   0.821 -0.2574 -0.1550 -0.2669
12226W        W28035   5.094  18.379  14.706 -0.1293 -0.0984 -0.2650
12227W        W28036  18.510  12.443  10.518 -0.0738  0.0871  0.1397
12228W        W28037  14.242  15.068  10.106 -0.0313  0.2421  0.0139
12229W        W28038  15.862   0.420  10.343 -0.1788 -0.2260 -0.0704
12230W        W28039  13.004  13.484   4.843 -0.1333 -0.0236 -0.0444
12231W        W28040   3.610  14.750   2.698 -0.1115  0.1422 -0.0057
12232W        W28041  16.476   4.227   1.352  0.2816 -0.0600  0.0429
12233W        W28042  18.338  14.924  15.031 -0.1326  0.0536  0.3670
12234W        W28043   5.911   1.680   5.234 -0.1129 -0.1304  0.1531
12235W        W28044   2.812   3.210   3.111  0.1387 -0.2534  0.0859
12236W        W28045   1.248   6.879   3.054 -0.1170 -0.0759 -0.3659
12237W        W28046  17.455  15.449   1.630  0.2321  0.0107  0.0664
12238W        W28047   0.027  15.593   0.967 -0.0753 -0.1572 -0.0540
12239W        W28048  10.569  18.160   0.627  0.2398  0.1316  0.5402
12240W        W28049   2.891   5.074  11.264 -0.0270 -0.0594  0.0846
12241W        W28050  17.858   6.924   5.930  0.1898 -0.0359  0.0125
12242W        W28051   5.380   1.772  13.343  0.3040 -0.0544 -0.0445
12243W        W28052  13.356  13.437   3.830 -0.0680 -0.2242 -0.1076
12244W        W28053   5.439   6.638  14.734  0.3042 -0.2513  0.1278
12245W        W28054   0.163   3.433  11.339  0.2113 -0.3126 -0.2419
12246W        W28055  11.843   5.555   3.231 -0.1975  0.0413 -0.1084
12247W        W28056  17.918   1.302  15.050 -0.2846  0.0058  0.0149
12248W        W28057   5.767  10.259   3.617  0.2151 -0.1479  0.1714
12249W        W28058  17.563  14.077   4.222 -0.0129 -0.3297  0.2108
12250W        W28059   1.934   7.592  11.682  0.2479 -0.0397 -0.0905
12251W        W28060   9.457  11.534   0.263 -0.0224  0.1524  0.1782
12252W        W28061  17.315  12.920  12.745 -0.2632 -0.0875 -0.2757
12253W        W28062  14.929   3.817  14.115  0.0815  0.2736  0.0834
12254W        W28063   2.166   7.585   1.519 -0.1764 -0.0910 -0.1508
12255W        W28064   7.869   9.980  15.128 -0.0134  0.1561  0.1178
12256W        W28065   3.603  12.019  12.143  0.0482  0.0504  0.0155
12257W        W28066   1.046  18.490  13.644 -0.1447  0.3283  0.0588
12258W        W28067   8.103  14.184  13.434  0.1394 -0.0190  0.4343
12259W        W28068  12.853  12.331   1.107  0.2686  0.2534 -0.0281
12260W        W28069   5.817  11.766   1.375 -0.2384 -0.2306 -0.0324
12261W        W28070  16.632   3.659  12.907 -0.3432 -0.0588 -0.1984
12262W        W28071  13.803  16.836  10.858 -0.0674  0.0706  0.0034
12263W        W28072  17.716   0.447  12.470  0.0024 -0.1169  0.2222
12264W        W28073  16.284  17.636   1.939  0.1848 -0.0647  0.2531
12265W        W28074   0.853   9.870   5.706  0.1963  0.1503  0.2461
12266W        W28075   0.586   2.051  15.166  0.2136 -0.0276  0.0797
12267W        W28076   1.484  15.906   1.116 -0.0451 -0.0659  0.2066
12268W        W28077   9.261   3.035   4.739 -0.1613 -0.0732  0.0520
12269W        W28078  14.515   9.045  14.834  0.0906 -0.2977 -0.1272
12270W        W28079   4.252  18.544   3.056 -0.0114 -0.0056  0.3238
12271W        W28080  15.650   4.420   4.497 -0.0248  0.1420 -0.0018
12272W        W28081  10.941  17.564   2.703  0.0770  0.1384 -0.0983
12273W        W28082  15.049  17.920  11.329  0.2062  0.3771  0.1249
12274W        W28083   7.888   5.698   3.808  0.0055  0.0179 -0.0039
12275W        W28084  13.355  16.978  13.866 -0.1624 -0.0238 -0.0338
12276W        W28085   0.041   9.313   5.851 -0.0864 -0.2936 -0.0599
12277W        W28086   8.984  12.560   2.350 -0.1027  0.2020 -0.0686
12278W        W28087   6.048  15.061  12.451 -0.1308 -0.1383 -0.0284
12279W        W28088  15.827  12.805  11.240 -0.4004 -0.3460 -0.2460
12280W        W28089  13.453   8.457  15.536 -0.0904  0.0719 -0.1460
12281W        W28090  11.788   5.192   2.075 -0.0482  0.2380  0.2478
12282W        W28091   3.660   0.614  15.066  0.2706 -0.1482  0.1720
12283W        W28092  15.543   7.828   5.096  0.1372  0.2496  0.2774
12284W        W28093   5.914   8.066   5.280  0.3759 -0.1011 -0.0347
12285W        W28094   7.529   4.981   2.600 -0.1206  0.1675 -0.2313
12286W        W28095  10.208  13.500  11.044  0.0583  0.1175  0.1332
12287W        W28096  10.080   0.872  11.194 -0.0463 -0.0170  0.0065
12288W        W28097   8.410   1.680  12.431  0.1147 -0.1789  0.2817
12289W        W28098  12.692   4.487   1.480 -0.2012 -0.2158  0.1932
12290W        W28099  17.905  12.727  14.302 -0.2640 -0.1164 -0.2691
12291W        W28100  11.442  18.310   4.410  0.0305 -0.4770 -0.2833
12292W        W28101   3.247  14.276   3.360  0.2367  0.2274 -0.1347
12293W        W28102  17.304  14.325   3.014  0.1630 -0.4125 -0.0879
12294W        W28103  17.104  10.793   4.642 -0.3649 -0.0015 -0.3853
12295W        W28104  17.910  17.689  11.565 -0.1874  0.2170  0.2703
12296W        W28105   4.763   2.693  13.944  0.3426 -0.1209 -0.1216
12297W        W28106  18.347  14.122   2.272  0.0312 -0.0043 -0.1173
12298W        W28107   9.504  13.671   3.867  0.2776 -0.1120 -0.1936
12299W        W28108  10.573  13.412  12.279 -0.0684 -0.2790 -0.1685
12300W        W28109   5.651   6.279   6.353 -0.3514 -0.2780 -0.1930
12301W        W28110  15.655  17.342   1.953  0.1245  0.0535  0.0016
12302W        W28111  14.026   3.705  13.849 -0.4860  0.0168 -0.0547
12303W        W28112   5.345   4.113  11.679 -0.0949  0.0007 -0.0191
12304W        W28113  18.164   0.040  12.306 -0.1305 -0.1299  0.0897
12305W        W28114   6.989  16.825   1.318 -0.0873  0.0294  0.2288
12306W        W28115  11.960  17.724  11.250  0.1138 -0.0597  0.0103
12307W        W28116   0.911   9.116  13.814  0.1598 -0.2297  0.0238
12308W        W28117   7.078   1.929  12.927  0.0818  0.1366 -0.2643
12309W        W28118   7.347   7.460  14.763 -0.1035 -0.0524  0.0724
12310W        W28119   8.425  13.236   3.336  0.3606  0.1924  0.1229
12311W        W28120  14.428   3.394   3.151  0.2831  0.2318 -0.4466
12312W        W28121   9.875   3.789   4.915 -0.1719  0.1086 -0.2696
12313W        W28122   0.947   5.301  15.441 -0.1616 -0.1464  0.0097
12314W        W28123  16.801  16.598  12.167  0.3432 -0.0099 -0.1843
12315W        W28124   7.833   1.699  14.166  0.4350  0.1545  0.0019
12316W        W28125   7.389   4.973   3.134  0.0336 -0.0297 -0.0539
12317W        W28126   5.161   6.492  11.293  0.0407  0.0563 -0.0647
12318W        W28127  14.809   5.598   4.381 -0.0777 -0.1304  0.1946
12319W        W28128   4.465   0.176   0.357  0.3196  0.1263 -0.2146
12320W        W28129   9.444   9.849  12.572  0.1068  0.3166 -0.0466
12321W        W28130   4.550   8.469   1.818 -0.0162 -0.0798  0.1084
12322W        W28131   5.372  16.835  14.622 -0.2666 -0.0065 -0.1148
12323W        W28132   6.632   8.052   2.504 -0.1741 -0.1129 -0.0920
12324W        W28133   7.034   4.344  13.384 -0.2342  0.1882 -0.0689
12325W        W28134  10.010   3.884  14.360 -0.0407  0.0093  0.1717
12326W        W28135  14.723   5.187   4.676 -0.1661  0.1040 -0.2634
12327W        W28136  17.322  14.560  12.023  0.0882 -0.3772  0.1656
12328W        W28137  17.920  13.506   4.078 -0.0287  0.2791  0.0483
12329W        W28138  13.219  11.416   2.399  0.1058  0.0889  0.1387
12330W        W28139  15.161  16.605   1.576  0.1271 -0.0876  0.0652
12331W        W28140  16.877   6.461   3.242  0.3080  0.0453  0.0139
12332W        W28141   1.481  14.407   2.613  0.0371  0.0662  0.1073
12333W        W28142   5.081  13.877  12.070 -0.0812 -0.0041 -0.1124
12334W        W28143   3.649  15.249   2.217 -0.1751 -0.2954  0.1717
12335W        W28144   1.628   7.759   4.506  0.2471 -0.1069 -0.0615
12336W        W28145   6.662  16.250   2.930  0.1604  0.2298  0.1005
12337W        W28146  13.429   4.110   1.559 -0.0350 -0.1621 -0.0959
12338W        W28147   6.468  13.689   2.197  0.1143  0.1247  0.0193
12339W        W28148  12.738   9.145   1.044  0.4662 -0.1430 -0.0728
12340W        W28149   3.365   6.442  14.144  0.1328  0.0791  0.1127
12341W        W28150  18.023   7.421  13.370 -0.1934 -0.1467  0.1332
12342W        W28151   8.742  13.934  15.019  0.0351  0.1714  0.3091
12343W        W28152   2.654  12.006  11.796  0.0029  0.1072 -0.3070
12344W        W28153   4.072  18.251  14.914 -0.1389  0.0811 -0.1927
12345W        W28154   5.548   6.851   0.804 -0.1996  0.0010 -0.0259
12346W        W28155   1.624   1.145  12.430  0.0027 -0.1333 -0.1987
12347W        W28156  14.842   7.533   0.847 -0.1893  0.1909 -0.2639
12348W        W28157   1.551  13.118   5.202 -0.0902  0.0499 -0.2756
12349W        W28158   1.515  11.109  11.570 -0.1080  0.1393 -0.1081
12350W        W28159  18.662   9.825   5.614 -0.3424  0.0469  0.0121
12351W        W28160   6.641  11.734  13.553  0.3311  0.0301 -0.0453
12352W        W28161   0.314   2.549   4.623 -0.0091  0.0606 -0.0489
12353W        W28162   6.398   1.238  11.157 -0.1012 -0.1039  0.4107
12354W        W28163  17.613  17.671   4.470  0.1139  0.2476 -0.1703
12355W        W28164  14.963  11.851  11.776 -0.2095  0.1283 -0.3151
12356W        W28165   0.331  17.373   0.745 -0.0146  0.1663  0.0084
12357W        W28166   9.805   6.125  12.263 -0.3048 -0.1079 -0.0988
12358W        W28167  14.074   6.973   9.998  0.3455 -0.2901  0.0110
12359W        W28168   6.208  10.608   4.683 -0.1060 -0.2019  0.0594
12360W        W28169  11.625   5.814  15.719  0.1316 -0.3581 -0.0835
12361W        W28170  12.721  14.947  11.691 -0.0252  0.3332 -0.2739
12362W        W28171  11.578   1.307   2.139 -0.0820 -0.2519 -0.1062
12363W        W28172  13.258  14.751   5.002 -0.1006  0.3245  0.0784
12364W        W28173  18.261  11.956  11.908  0.1287  0.1373  0.0602
12365W        W28174   4.915   7.468  13.093 -0.0113  0.3966  0.1471
12366W        W28175  13.369  11.157  12.056  0.1892 -0.2112 -0.0261
12367W        W28176   1.542  10.709  13.190  0.0741 -0.2735  0.1675
12368W        W28177   8.473  12.798   5.892 -0.0158 -0.1664 -0.1320
12369W        W28178  13.038  14.947  14.515 -0.0468  0.2475  0.0024
12370W        W28179   1.475   9.435   1.386  0.1012  0.0239  0.2076
12371W        W28180   0.438   5.079   2.044 -0.3827 -0.1314  0.1266
12372W        W28181   3.208  12.084   2.894 -0.3614 -0.3768  0.4873
12373W        W28182   3.127   3.246   0.039 -0.1595 -0.1053 -0.2644
12374W        W28183   0.187  13.584   2.319 -0.0580  0.1818  0.3215
12375W        W28184   1.211   6.042  14.199 -0.0671 -0.1061  0.1673
12376W        W28185   4.640   1.239   1.345  0.1074 -0.1635  0.0957
12377W        W28186   2.499  18.401   2.788 -0.0264  0.0205  0.2577
12378W        W28187   2.667   4.897  11.911  0.0583  0.2934  0.1336
12379W        W28188   6.062  13.821  13.903 -0.0992 -0.0084 -0.1111
12380W        W28189   9.975   9.226  11.958 -0.1208 -0.0851  0.0106
12381W        W28190  12.987  15.517  10.168  0.0795  0.2389  0.0897
12382W        W28191   9.517  13.855  11.158  0.3272  0.2035 -0.3625
12383W        W28192   7.752   8.278   3.691  0.1529  0.2749 -0.1150
12384W        W28193  14.272  13.892  12.033 -0.1105 -0.2451  0.1210
12385W        W28194   8.192   7.287  11.253 -0.2295  0.3432 -0.0590
12386W        W28195   2.979  14.644  10.931  0.2112 -0.2354  0.0200
12387W        W28196   7.801  15.087  12.415 -0.1349 -0.0574  0.2669
12388W        W28197   9.739   6.557  14.905 -0.2087 -0.2912 -0.3543
12389W        W28198   9.440  17.654   1.657  0.2131 -0.0808 -0.0964
12390W        W28199  11.773   0.358   1.957  0.1215  0.1733 -0.2255
12391W        W28200   8.863   1.552  15.684 -0.0437  0.2334  0.0632
12392W        W28201   6.437  14.429  14.488  0.0811 -0.0808 -0.2079
12393W        W28202  12.527  16.822   3.957 -0.3124 -0.1096 -0.3135
12394W        W28203   8.685   9.492  12.233  0.2472  0.1385 -0.0122
12395W        W28204   3.471  14.429   4.261  0.2480 -0.1256 -0.0677
12396W        W28205  13.876  18.089  13.836  0.0043 -0.0765  0.0214
12397W        W28206   0.531   6.879  15.209 -0.1301  0.0786  0.0337
12398W        W28207   3.454   5.421   0.213 -0.0379  0.1349  0.2255
12399W        W28208   1.657   2.525   3.105  0.1787 -0.1770 -0.2299
12400W        W28209   8.317   4.149  13.864  0.0711  0.1015  0.1270
12401W        W28210   2.026  16.188  12.455 -0.0218 -0.3369  0.0266
12402W        W28211   5.414   2.318   3.796 -0.2984  0.4040 -0.1373
12403W        W28212  16.065   4.549  13.918 -0.0115 -0.0374 -0.0924
12404W        W28213   2.897  13.120   3.004  0.2502  0.0975  0.0013
12405W        W28214  15.441  13.641   1.255 -0.0262 -0.0639 -0.1334
12406W        W28215  13.990   1.055  11.703 -0.1047  0.3344  0.1884
12407W        W28216   7.785  13.509   5.151  0.1897  0.1831  0.2236
12408W        W28217  10.239   9.662   4.441 -0.1582  0.0834 -0.0853
12409W        W28218  14.061  14.449   2.297  0.0675  0.0294 -0.0760
12410W        W28219   3.187   0.387  12.808 -0.0443 -0.2335 -0.0005
12411W        W28220  14.659   5.903  11.527  0.0230  0.1061  0.0222
12412W        W28221  11.443  11.980  14.310  0.0347  0.0777  0.1047
12413W        W28222  16.937  11.716  11.651  0.1941  0.0354 -0.1654
12414W        W28223   3.075   8.082   4.421 -0.2184 -0.4416  0.0348
12415W        W28224   8.312   8.974   3.461  0.0963  0.0386  0.1761
12416W        W28225  17.875  16.609  10.823  0.2182 -0.0127  0.2351
12417W        W28226   3.880   5.349   2.954 -0.1493 -0.4802  0.1207
12418W        W28227  10.983  18.482   0.899  0.1291 -0.1469  0.1466
12419W        W28228   2.688  14.181  15.538  0.0402  0.1995  0.1081
12420W        W28229   9.667   6.860   2.114  0.1992  0.2002 -0.1749
12421W        W28230   0.034  11.646   2.194  0.0844  0.0839  0.2274
12422W        W28231   5.476  14.949  12.608  0.0835 -0.0098 -0.3899
12423W        W28232   0.478   7.712   1.666 -0.0709 -0.2554 -0.2316
12424W        W28233   0.106   8.284   0.212  0.0757  0.5108 -0.2685
12425W        W28234   5.303   4.061   1.298 -0.3501  0.0899 -0.2317
12426W        W28235   4.154  10.916  11.610  0.1881  0.1741 -0.1662
12427W        W28236  12.825   7.246   5.042 -0.1637 -0.0233  0.1258
12428W        W28237  17.779   9.729  10.382  0.3133 -0.1054 -0.0472
12429W        W28238  13.883  13.924   1.239 -0.2072  0.1387  0.4161
12430W        W28239  14.377  15.366   0.560 -0.0606 -0.0216  0.0694
12431W        W28240  12.401   8.347  13.628 -0.0751 -0.0450  0.2286
12432W        W28241  12.542   8.811   3.958 -0.1237  0.3343 -0.1933
12433W        W28242  15.790   1.731   4.840 -0.0923 -0.0949  0.4154
12434W        W28243   5.228  18.166  11.271 -0.2552  0.1568  0.3192
12435W        W28244  17.811   2.559   1.905  0.2113 -0.4750  0.3108
12436W        W28245   5.174   7.733  15.081 -0.0571  0.1505  0.4837
12437W        W28246   9.947   2.679  14.751  0.1549  0.1251  0.1532
12438W        W28247   4.850   3.978  11.742 -0.0117 -0.1944  0.2983
12439W        W28248  16.635  11.413  14.401  0.1143 -0.0894  0.1453
12440W        W28249   4.468   6.177   3.142  0.2430 -0.0007  0.0028
12441W        W28250   1.327  13.441   4.798 -0.0681  0.3402  0.0134
12442W        W28251  14.544   0.173  10.792 -0.0813  0.0542  0.0379
12443W        W28252   2.116   4.769  13.274  0.1375  0.0064 -0.0866
12444W        W28253  11.262  15.269  12.796  0.0319 -0.2617 -0.1691
12445W        W28254   6.001  16.828   2.096  0.0635  0.2695  0.2355
12446W        W28255  17.477   5.864   3.961 -0.1977  0.0343 -0.0170
12447W        W28256  10.226   8.854  12.135 -0.0936  0.1384 -0.1076
12448W        W28257   4.290  17.765   4.020  0.1176 -0.1598  0.1098
12449W        W28258  12.541   1.342   0.099 -0.2388 -0.2082  0.1085
12450W        W28259  13.702  10.262   0.666 -0.1632 -0.0308  0.1250
12451W        W28260  11.921  11.153  12.100 -0.1912 -0.2105  0.0899
12452W        W28261  10.366   0.960  14.236  0.1150 -0.0027 -0.1153
12453W        W28262  14.576   9.162   2.241  0.0093 -0.0360  0.1280
12454W        W28263  15.597   4.912   4.545  0.3393 -0.2598 -0.0462
12455W        W28264   2.572   8.547   1.371 -0.0010 -0.1232 -0.2659
12456W        W28265  13.264   7.119   4.231  0.2098 -0.1987 -0.0901
12457W        W28266   8.722   4.877   0.282 -0.0216  0.0330 -0.0417
12458W        W28267   9.307   1.648   2.170  0.0439  0.0130  0.0392
12459W        W28268  11.362   3.425   4.678  0.1723 -0.1448  0.1437
12460W        W28269  10.736   8.891  14.627  0.0337  0.2214  0.0759
12461W        W28270   1.488   9.063   0.206 -0.0753  0.1413 -0.1492
12462W        W28271   3.156  16.179   5.188 -0.2939  0.0000 -0.1901
12463W        W28272  10.161  13.081   2.744 -0.4084  0.1467 -0.0022
12464W        W28273  15.695   2.284  11.948  0.5538  0.2267  0.0086
12465W        W28274  17.523  12.480  14.522  0.2970 -0.0704 -0.0164
12466W        W28275  16.760  14.830  12.583  0.0188 -0.0804 -0.2209
12467W        W28276  13.304  15.823  12.497  0.1372  0.0869 -0.5369
12468W        W28277  10.094   2.720   0.549  0.0220  0.2738  0.3478
12469W        W28278   7.961   3.767   0.520  0.0606  0.1919  0.2596
12470W        W28279   6.638   5.795  13.386  0.0714  0.0826  0.2897
12471W        W28280   9.093   3.726  10.278  0.1783 -0.1129  0.0547
12472W        W28281   3.448   8.379  12.479  0.1115 -0.0650 -0.2341
12473W        W28282  11.897  11.952  12.472  0.2742 -0.1521 -0.1191
12474W        W28283  14.421   0.759   4.361 -0.0249 -0.1871 -0.2968
12475W        W28284  13.554  10.805   4.196 -0.0303 -0.0958  0.0344
12476W        W28285  10.453   3.142   3.493  0.3436  0.2287  0.2768
12477W        W28286  12.101  13.666  11.001 -0.1657  0.0771 -0.1845
12478W        W28287  13.763  13.006  14.544  0.1364  0.1067  0.0692
12479W        W28288   3.136  14.413  14.545  0.1634  0.3461 -0.2616
12480W        W28289   9.036  15.349  12.058  0.1635  0.3210  0.2954
12481W        W28290   1.564   8.545   1.236 -0.0471  0.0181  0.2935
12482W        W28291   5.017  11.688  11.469  0.0700 -0.0184 -0.3616
12483W        W28292   4.941  15.772   3.655 -0.6993 -0.2419 -0.2578
12484W        W28293  10.504  15.852   1.286 -0.0135  0.2023 -0.2726
12485W        W28294   2.487  12.687  12.046 -0.1860 -0.0370 -0.1462
12486W        W28295   2.587   1.488  14.927  0.0277  0.3172 -0.1112
12487W        W28296  14.696   7.697  13.347 -0.0889  0.3130 -0.1087
12488W        W28297  12.691  12.054   0.117  0.4525  0.0579 -0.0357
12489W        W28298   3.436  11.855   4.794  0.1939 -0.2404  0.1085
12490W        W28299   7.343   2.636  12.952  0.0803  0.0159 -0.1285
12491W        W28300  15.006  16.117  11.633  0.0550 -0.0152  0.1802
12492W        W28301  12.389  16.071   1.175 -0.1298  0.1619 -0.1790
12493W        W28302  14.322  12.997   3.072  0.0798 -0.0277  0.0796
12494W        W28303  17.016  17.984  15.632 -0.0300  0.0885 -0.0822
12495W        W28304   7.988   4.030   4.098  0.1768  0.2444 -0.2921
12496W        W28305  12.305   5.842  14.984  0.1768 -0.0531  0.6045
12497W        W28306   1.930   7.610   3.365  0.0954  0.0960  0.1414
12498W        W28307   3.143   5.548   5.338  0.1263 -0.0431  0.0533
12499W        W28308   1.337   5.910   4.189 -0.2960  0.0451  0.1543
12500W        W28309  16.494  15.384  14.558 -0.2785  0.1433  0.1996
12501W        W28310   0.931   1.239   2.429 -0.2000 -0.0933  0.1993
12502W        W28311  12.526  15.040   0.654 -0.1125 -0.1079 -0.0744
12503W        W28312  15.421  16.283  13.190 -0.0744  0.1479  0.0497
12504W        W28313   0.719  16.888  12.631  0.3282 -0.3766 -0.0547
12505W        W28314   8.887   1.682  13.990  0.1205 -0.0087  0.0016
12506W        W28315   9.645  13.817   2.860  0.0925  0.0363 -0.2732
12507W        W28316  12.306   9.533   5.614  0.1027 -0.0234  0.0132
12508W        W28317  16.241   2.353  11.983 -0.0721 -0.2985  0.0077
12509W        W28318  12.641  12.687  13.446 -0.1125 -0.0048  0.0040
12510W        W28319   5.623  16.253   4.308 -0.1818 -0.1190  0.0351
12511W        W28320  15.773   2.061   0.403 -0.1359 -0.0126 -0.0316
12512W        W28321  16.545   4.261   4.252  0.1062 -0.0156 -0.0649
12513W        W28322  15.186   7.190   5.377  0.0516  0.0969 -0.1558
12514W        W28323   1.710  17.744   1.306  0.1935 -0.2690 -0.2815
12515W        W28324   8.858  11.992   0.355  0.0155 -0.0211 -0.0946
12516W        W28325   7.456   8.543   2.792 -0.2645 -0.1713 -0.1361
12517W        W28326   9.923  12.638   2.856  0.0209 -0.3372 -0.0441
12518W        W28327   4.512  13.966   5.514 -0.2644 -0.3171  0.1261
12519W        W28328  15.013  18.027  13.038 -0.0624  0.2145 -0.3752
12520W        W28329  13.680  10.996   2.266 -0.1028  0.1646 -0.0700
12521W        W28330   3.910  15.863  13.242 -0.3430 -0.0727 -0.1927
12522W        W28331  13.812   4.499   2.699  0.2485 -0.3066 -0.3556
12523W        W28332  11.427  18.374  12.737  0.1000 -0.0555 -0.0672
12524W        W28333  10.672  11.377  14.326 -0.0078 -0.3173 -0.0464
12525W        W28334  12.603   9.921   5.940 -0.0411 -0.1090 -0.2725
12526W        W28335   7.298   9.051   4.893  0.1670  0.0039 -0.1867
12527W        W28336   5.131  11.585   4.075  0.2717  0.5089  0.1417
12528W        W28337  11.716  13.891   1.384  0.0824  0.1387 -0.1517
12529W        W28338  10.779   3.272   0.155 -0.1215  0.0411  0.2334
12530W        W28339  15.076  14.248   1.272 -0.0924  0.2335  0.0448
12531W        W28340   6.429   4.562  11.920  0.1031 -0.1381 -0.1613
12532W        W28341   6.340   3.118  12.962 -0.1392  0.2688  0.0696
12533W        W28342   6.061   4.089   4.673  0.3644  0.1868 -0.1711
12534W        W28343  16.810  17.148  15.708  0.1788  0.0479 -0.0574
12535W        W28344   8.057   2.725   3.925 -0.0352 -0.1489 -0.0478
12536W        W28345  10.868   5.976  11.090 -0.1233  0.0029 -0.2906
12537W        W28346   6.613  16.622  13.402 -0.1090 -0.1885 -0.1514
12538W        W28347  16.529  11.553   3.111  0.1177  0.3751 -0.0506
12539W        W28348  12.543  10.142   3.095  0.1282  0.1109  0.1011
12540W        W28349  15.726   7.840  11.048  0.0141 -0.0949 -0.1348
12541W        W28350   4.382   9.859   3.070  0.2228 -0.1602 -0.1601
12542W        W28351   8.216   7.927   6.025 -0.3644 -0.2398 -0.1163
12543W        W28352   5.938   9.883  13.315 -0.2464  0.0380  0.3151
12544W        W28353   5.411   5.984  15.207 -0.0086  0.1816  0.0261
12545W        W28354  17.615   5.023   3.331  0.1771 -0.0123  0.1179
12546W        W28355  11.419   8.674   0.318 -0.1482 -0.2312  0.2265
12547W        W28356   7.979   8.981   4.224 -0.0212  0.0250 -0.1380
12548W        W28357   9.911  13.900   5.570 -0.2885  0.1598  0.1252
12549W        W28358  12.253   0.335  12.406 -0.1687  0.3421 -0.1352
12550W        W28359   3.475  10.290   1.128 -0.1811  0.1657 -0.2687
12551W        W28360  11.981  12.603   1.223  0.0689 -0.2380  0.0248
12552W        W28361   5.833   3.442   3.613 -0.0868  0.0228  0.0133
12553W        W28362  16.769   6.664   1.610 -0.1506 -0.1214 -0.2099
12554W        W28363   9.731   2.968  15.136  0.2157 -0.1124 -0.1163
12555W        W28364   1.435   3.066  14.439  0.2883  0.0729 -0.0098
12556W        W28365  17.453  18.244   2.805  0.0539  0.2237 -0.3052
12557W        W28366   1.497  10.494  13.981  0.0894  0.1300  0.0332
12558W        W28367  11.820   6.965   4.383 -0.0897  0.1171 -0.2370
12559W        W28368   3.005   5.968  12.491 -0.0439  0.0752 -0.0233
12560W        W28369  11.371   5.640   3.462 -0.0421 -0.1224  0.0285
12561W        W28370  11.556  13.392  10.942 -0.1670  0.0580 -0.0892
12562W        W28371  12.082   8.451   2.042  0.2723 -0.0472 -0.1760
12563W        W28372   8.695  11.285  14.845  0.2188 -0.1180  0.1058
12564W        W28373  16.858  15.898   0.605 -0.0355  0.0348  0.0013
12565W        W28374   5.108  15.171   0.241 -0.0617 -0.0960 -0.0462
12566W        W28375   7.833   2.623   2.730  0.0280  0.2602  0.3576
12567W        W28376   1.081  17.383   3.097  0.1763 -0.1452 -0.5229
12568W        W28377   9.328   9.369   0.118  0.1814 -0.1193  0.0612
12569W        W28378   9.025   7.976   1.401  0.3083  0.2211  0.1122
12570W        W28379  11.257  15.346  11.118 -0.0558 -0.0724  0.1238
12571W        W28380  13.698  14.721   3.550  0.1882 -0.1133  0.1140
12572W        W28381  10.149  13.413   5.090  0.0578 -0.1854  0.1965
12573W        W28382  15.848   2.790   2.475 -0.0598 -0.1236  0.1016
12574W        W28383  12.184   1.155   2.958  0.1005 -0.0777 -0.3768
12575W        W28384   1.641  15.386  13.647 -0.3307  0.1474 -0.2840
12576W        W28385   1.901   6.694   1.835 -0.0546  0.0595 -0.0162
12577W        W28386  13.144   5.591   0.943 -0.0512 -0.1945  0.2269
12578W        W28387  10.847   0.545  11.258 -0.0605 -0.2825 -0.0870
12579W        W28388   2.115  11.635  15.568 -0.0970  0.1472 -0.1093
12580W        W28389   3.881   1.867   2.400 -0.0162 -0.1709 -0.2131
12581W        W28390   3.162  10.925   5.176 -0.3583  0.2165 -0.0159
12582W        W28391   8.444   6.689  15.424  0.1497  0.0666  0.0753
12583W        W28392  12.031  13.094  13.141 -0.0209  0.0687  0.1351
12584W        W28393   5.292   2.513   1.681 -0.1124 -0.1126 -0.1136
12585W        W28394   7.644  13.109   2.001 -0.2149 -0.2460  0.1264
12586W        W28395  11.700   0.067   4.548  0.0953  0.1680 -0.0636
12587W        W28396  17.541  12.362   3.414 -0.1711  0.2056 -0.1423
12588W        W28397   1.886   4.158   4.203  0.4669 -0.1164  0.2785
12589W        W28398   4.550  14.079  11.942 -0.1094 -0.2080 -0.0628
12590W        W28399   4.454   1.653  15.063  0.1447  0.1987 -0.0982
12591W        W28400   0.027   9.489  12.607 -0.1555 -0.0071  0.0924
12592W        W28401   9.147   3.178  14.757 -0.2702  0.0658  0.1428
12593W        W28402   6.209  11.481   1.558 -0.0861 -0.1410 -0.1683
12594W        W28403  14.421   2.703   4.654 -0.0070 -0.1868  0.0744
12595W        W28404   8.278  14.663  10.527  0.0302  0.2610 -0.2342
12596W        W28405  11.731   8.498   3.609  0.0536 -0.0684  0.2573
12597W        W28406  13.785  14.654  13.752 -0.0660  0.1214 -0.1818
12598W        W28407  10.788  15.393  12.986  0.1151  0.2511  0.2505
12599W        W28408   6.024  15.096  10.839 -0.2963 -0.1888  0.0120
12600W        W28409  10.994  15.595  15.381  0.3940  0.3359 -0.1986
12601W        W28410   7.242  14.543   4.241  0.0151 -0.4766  0.0544
12602W        W28411  13.625  14.239   3.318 -0.1249  0.0182  0.0487
12603W        W28412   6.573   8.500   2.800 -0.3911  0.1098  0.0770
12604W        W28413   7.892   0.750   3.685  0.2841 -0.0876 -0.1390
12605W        W28414  14.381   4.648  14.645  0.1874  0.0308  0.4427
12606W        W28415   0.004  15.849  10.646 -0.1782  0.1591 -0.0076
12607W        W28416   8.681  10.345  12.309  0.2801  0.3510 -0.0332
12608W        W28417  16.297   9.125  11.297 -0.0902  0.3859 -0.0460
12609W        W28418  14.667   9.066  12.392  0.2656 -0.0809 -0.4027
12610W        W28419  14.923   9.093  11.933  0.1181 -0.1825  0.0674
12611W        W28420   5.746   5.219  15.028  0.0067 -0.0818  0.2014
12612W        W28421   0.911  13.792   4.872  0.0247  0.0942 -0.2487
12613W        W28422  11.278   0.845  10.139  0.0209 -0.1794  0.1116
12614W        W28423   9.778  10.217  12.450 -0.3593  0.2850 -0.2602
12615W        W28424   0.604   4.864  13.174  0.1170 -0.0759  0.3105
12616W        W28425   1.885   9.052  14.247  0.1050  0.2190  0.3686
12617W        W28426  12.492  13.052  11.676 -0.1315  0.0826  0.3910
12618W        W28427   2.903  11.564  11.824 -0.0231 -0.1593  0.1938
12619W        W28428  12.922   9.941  11.435 -0.1271 -0.3489  0.4991
12620W        W28429   9.807  14.843  13.850 -0.2251 -0.2283 -0.4165
12621W        W28430   3.227   9.634  13.214 -0.3306 -0.3160  0.1753
12622W        W28431   8.492  16.321   2.821  0.1105  0.1371 -0.5322
12623W        W28432   1.965   6.006   4.940  0.0610 -0.1927 -0.2806
12624W        W28433   1.704   3.430  13.165  0.0331 -0.3141  0.0370
12625W        W28434  11.673  12.528  14.053 -0.3478  0.0546 -0.1821
12626W        W28435  13.607   7.977  14.970  0.1327 -0.2398 -0.0311
12627W        W28436  12.929   6.073   2.438  0.3631 -0.1003  0.2261
12628W        W28437  14.311  13.651   5.027  0.1619 -0.1139  0.2740
12629W        W28438  17.742  12.493  10.544  0.0189 -0.0233  0.0751
12630W        W28439   0.928  10.213   0.474  0.2612  0.2070 -0.1509
12631W        W28440  14.026  16.074   4.082 -0.1464  0.1454 -0.0555
12632W        W28441   5.299  10.364  14.050  0.2117 -0.0152  0.2742
12633W        W28442  13.674   9.862  11.773 -0.2536  0.1595 -0.2883
12634W        W28443  10.243   2.199   1.703 -0.2721  0.1826  0.0708
12635W        W28444   8.617   7.125   3.554  0.0475 -0.0291  0.1783
12636W        W28445  16.329  14.178  11.349  0.0576 -0.3380  0.0215
12637W        W28446  11.412  14.079  14.096 -0.0185 -0.0246 -0.0248
12638W        W28447   7.554  16.779  13.420 -0.1497 -0.1519 -0.1942
12639W        W28448  10.675  18.035   2.485  0.1861  0.1552  0.1095
12640W        W28449   6.394   7.408  10.712  0.1326 -0.0730  0.0975
12641W        W28450   4.328   3.939  11.632  0.0151 -0.2864  0.1507
12642W        W28451  12.231   8.349   4.548 -0.2744  0.0819 -0.2077
12643W        W28452   4.058  12.611  14.837 -0.0392 -0.0529  0.1003
12644W        W28453   2.224   4.677   3.469 -0.2085 -0.1328  0.0141
12645W        W28454   2.278   7.237   4.401 -0.1794 -0.1840 -0.0229
12646W        W28455  11.709   0.338   2.925  0.0154 -0.0711  0.1859
12647W        W28456   2.192   5.508   6.008 -0.2210  0.3865 -0.0700
12648W        W28457   0.794   9.319   5.973  0.1413 -0.2365  0.3444
12649W        W28458   2.170  13.999   2.290 -0.1870  0.1689 -0.2464
12650W        W28459  14.875  11.002   1.182  0.0915 -0.0355  0.1887
12651W        W28460   0.889  13.916   3.507  0.1693  0.0635  0.3688
12652W        W28461  18.479  12.155   3.091 -0.1323  0.3759  0.4324
12653W        W28462   2.638   5.213   1.380  0.0439 -0.0412 -0.0443
12654W        W28463  15.135  11.786  13.377 -0.1449  0.2186 -0.1986
12655W        W28464  11.286   7.182   2.011 -0.0388 -0.3867 -0.1358
12656W        W28465   8.488   6.074  11.587 -0.6097  0.4525 -0.1564
12657W        W28466  11.096   5.901  15.574  0.0167 -0.0451  0.0250
12658W        W28467   9.878   1.416  13.373 -0.0094 -0.1848 -0.0967
12659W        W28468   4.172  17.738   2.538 -0.0987  0.1867 -0.1382
12660W        W28469   7.658  18.275  13.579  0.2507 -0.1635  0.0761
12661W        W28470  14.174  17.950  14.262  0.1369 -0.0558  0.0287
12662W        W28471   8.986   7.427  14.282  0.0946  0.1750  0.0029
12663W        W28472  13.649   4.383   1.097  0.0465 -0.1837 -0.0194
12664W        W28473   4.737  16.959   0.727  0.1625  0.2127 -0.1558
12665W        W28474   6.362   7.538   4.657 -0.0430 -0.3579 -0.0942
12666W        W28475   2.672  14.822  11.391  0.0802 -0.0405 -0.2574
12667W        W28476  16.269  16.609  14.406 -0.2466  0.1779 -0.0497
12668W        W28477   4.739   5.899   1.866 -0.4842 -0.2013  0.0028
12669W        W28478  16.534  11.868  15.694 -0.0462 -0.0092 -0.0676
12670W        W28479  12.923   4.988   2.306  0.2276 -0.0660 -0.1496
12671W        W28480   7.913   0.738  14.858 -0.0357  0.2009  0.1117
12672W        W28481   9.791  16.157  11.511  0.3205 -0.2894 -0.1996
12673W        W28482   9.992  13.488  15.421 -0.3112 -0.0581 -0.0215
12674W        W28483  15.068  16.475   0.328 -0.3370 -0.1365  0.0933
12675W        W28484   5.874  11.626   0.166 -0.2550  0.1050  0.0134
12676W        W28485  11.846   8.966  12.738 -0.0579 -0.1750 -0.1269
12677W        W28486   1.719   0.551   5.248 -0.0234 -0.1856  0.0796
12678W        W28487   0.117   8.204  11.358  0.1246 -0.0915  0.0955
12679W        W28488   8.993   6.090  11.592 -0.0996 -0.0619 -0.0644
12680W        W28489   5.822  13.102   4.728  0.1082  0.1566 -0.3893
12681W        W28490   6.206  11.465  12.399  0.2539  0.0156 -0.0837
12682W        W28491  17.423   3.992  13.509  0.0394  0.1491  0.3320
12683W        W28492  10.344   0.443   1.527  0.0079  0.1716  0.0232
12684W        W28493   4.222  10.339   1.499 -0.0898  0.1124 -0.1563
12685W        W28494   8.176   6.836  11.086  0.1859 -0.3482 -0.0954
12686W        W28495   7.034  11.046   2.018 -0.1057 -0.0645 -0.1812
12687W        W28496  12.581   6.346   0.081 -0.0454 -0.2111 -0.2030
12688W        W28497   3.601  16.624  13.420  0.1049  0.0193  0.0694
12689W        W28498   8.295   9.391  13.479  0.4526  0.1517 -0.0152
12690W        W28499  12.145  12.259  11.254 -0.3713 -0.2212 -0.0098
12691W        W28500   1.973  11.808   3.521  0.1270 -0.1414 -0.3575
12692W        W28501   4.897   1.993  13.100 -0.1072 -0.2229 -0.3746
12693W        W28502   7.631  14.672   4.598  0.0376 -0.0598 -0.2266
12694W        W28503   8.906   1.384   4.429  0.1383 -0.2571 -0.2428
12695W        W28504  10.251  11.107   5.234 -0.0104  0.1814 -0.4001
12696W        W28505   5.990   6.256   4.060  0.4730 -0.1401 -0.0783
12697W        W28506  14.558  13.582   0.939 -0.1470 -0.0978 -0.2107
12698W        W28507   8.989  10.379   1.105  0.1205 -0.2762 -0.0105
12699W        W28508  13.569  15.935  13.664 -0.2261 -0.2876  0.1418
12700W        W28509  10.017  11.070   2.491 -0.0388 -0.3561 -0.1240
12701W        W28510  14.330  16.627   2.368 -0.0012  0.2316 -0.0769
12702W        W28511  15.809   9.217  11.635  0.1987  0.3144 -0.1549
12703W        W28512   5.879   8.087   6.311  0.2536 -0.0431  0.0849
12704W        W28513   3.811  16.679  11.774 -0.0175  0.1262  0.1561
12705W        W28514  10.867  12.825  13.889  0.3163  0.1716 -0.0430
12706W        W28515   0.831  13.010   1.992 -0.1275  0.3432  0.1703
12707W        W28516   4.602   8.669  15.182  0.0818  0.0923  0.3254
12708W        W28517   8.936   7.675  12.318 -0.1243  0.0699 -0.0031
12709W        W28518   6.552  13.441   3.950 -0.1596 -0.0037 -0.1022
12710W        W28519   2.727   2.208  13.143  0.1895  0.2362 -0.1807
12711W        W28520   7.451  16.488  15.136 -0.0488  0.0930 -0.1585
12712W        W28521  18.174   2.845   3.212 -0.1345  0.1026 -0.1251
12713W        W28522   1.188  13.747  14.215  0.2586 -0.1850  0.0311
12714W        W28523   7.015  17.757   2.296  0.2389  0.0974 -0.1341
12715W        W28524  11.886  16.156  12.242 -0.1900  0.2143  0.1129
12716W        W28525   1.816  11.138  13.287  0.2401  0.0430 -0.1478
12717W        W28526   1.552  15.329   0.035 -0.3130  0.1391 -0.1968
12718W        W28527  14.853  12.384  13.596 -0.2521  0.0392  0.1845
12719W        W28528   7.445   6.112   5.288  0.3808  0.2407 -0.4026
12720W        W28529   6.482  12.090   0.873 -0.1344 -0.0766  0.1182
12721W        W28530   6.176   4.933   2.076  0.1165 -0.0693 -0.0446
12722W        W28531   2.922   9.867   3.171  0.2220  0.2574 -0.1745
12723W        W28532  15.704  17.835   4.114  0.1814  0.1901  0.1853
12724W        W28533  12.151   7.187  15.275 -0.1062  0.2085 -0.0416
12725W        W28534  11.093   6.461   0.475 -0.1427 -0.0707 -0.0026
12726W        W28535   6.228  18.230   0.546  0.1132 -0.2463 -0.2755
12727W        W28536  10.825  14.211   5.519 -0.3067  0.0987  0.1915
12728W        W28537  12.394   5.925   2.563  0.1916  0.1639 -0.1505
12729W        W28538   6.824   6.663  14.239 -0.2296 -0.3680 -0.1114
12730W        W28539   9.325   6.028  12.082  0.0747  0.3677  0.2570
12731W        W28540  13.019   0.814  10.412  0.2920  0.0347 -0.1700
12732W        W28541  15.248   0.934  10.434  0.1909  0.1004  0.1836
12733W        W28542  16.741  10.970   0.641  0.2333  0.1122  0.3753
12734W        W28543   6.157  15.759  14.636  0.0424 -0.0901  0.1390
12735W        W28544   0.545  13.571   3.203 -0.1617 -0.0834  0.1175
12736W        W28545   1.712   7.462  14.505  0.0873 -0.0778 -0.3299
12737W        W28546  11.866  11.009  14.970  0.1540 -0.1385  0.0156
12738W        W28547  18.521   2.312   4.566 -0.3914 -0.0684 -0.0552
12739W        W28548   5.015  13.587  14.014 -0.1155 -0.0272 -0.3719
12740W        W28549   4.363  13.572   3.633  0.0241 -0.2380  0.0570
12741W        W28550   1.023  13.611  11.700  0.1689 -0.1878 -0.3707
12742W        W28551  11.847  10.568  14.133  0.3499  0.0622  0.1292
12743W        W28552  17.549   6.350   1.760 -0.1321 -0.3602 -0.2467
12744W        W28553  13.466   5.962   2.672 -0.1043  0.0737 -0.2364
12745W        W28554   1.106  16.498  14.548  0.2033 -0.2236  0.0929
12746W        W28555  13.739  12.838  10.316  0.0388  0.1287 -0.1724
12747W        W28556   5.981   6.437   0.532 -0.3215 -0.1046  0.3513
12748W        W28557   5.273   9.025   4.617 -0.3468  0.1989  0.0642
12749W        W28558   0.545   3.139  11.585 -0.1836  0.2220  0.0383
12750W        W28559  12.020   7.552  14.229 -0.0793 -0.0427  0.2586
12751W        W28560   6.495   6.432   4.514  0.0203  0.0652 -0.0323
12752W        W28561   8.857  12.807  14.208  0.1725  0.2113  0.1167
12753W        W28562   9.349   1.885  13.802 -0.1028 -0.3039 -0.2636
12754W        W28563   5.435  14.446  12.638 -0.1321  0.0569  0.0273
12755W        W28564   4.131  12.387   4.720  0.1740 -0.1127 -0.0362
12756W        W28565   9.643   9.936   1.618  0.4210  0.0689  0.0380
12757W        W28566   8.206  16.354   0.611  0.0196 -0.2051 -0.3627
12758W        W28567   6.647  15.420  12.848 -0.0453 -0.1433  0.0389
12759W        W28568   0.988   7.731   4.015  0.3098 -0.0926 -0.0434
12760W        W28569   4.676  14.075  14.547 -0.0419 -0.0851  0.1049
12761W        W28570  17.292   0.869  15.066  0.1757 -0.0805 -0.0446
12762W        W28571   9.568  11.097   0.101  0.1863  0.1599 -0.0360
12763W        W28572  16.844   8.296   1.153 -0.1146  0.1873  0.1193
12764W        W28573  14.858  11.986   1.360  0.1853 -0.0329  0.0121
12765W        W28574  16.929   5.794  10.786  0.0718  0.0617 -0.0646
12766W        W28575  11.627   4.231   1.637  0.1056  0.1841  0.1625
12767W        W28576  14.048   3.727   2.688 -0.0200  0.1858  0.0256
12768W        W28577  15.139  13.558  14.291  0.0360  0.3609  0.0136
12769W        W28578  14.243  10.757   3.455 -0.1788 -0.0975 -0.1819
12770W        W28579   6.699   3.515  11.016 -0.0237  0.1941 -0.0543
12771W        W28580  10.305   6.813  12.096  0.0202 -0.1459  0.1621
12772W        W28581   7.028   8.276  11.233  0.0954  0.3069  0.1883
12773W        W28582   5.826   6.021  15.514 -0.3047  0.1542 -0.0026
12774W        W28583   8.988  16.240   2.836  0.1286 -0.1987  0.1197
12775W        W28584  15.008  18.561  12.684  0.0557  0.0927  0.0557
12776W        W28585  11.386  13.817  14.593  0.1175  0.2142 -0.1191
12777W        W28586  15.696  13.445  15.719 -0.0291 -0.1227 -0.1279
12778W        W28587   5.420  11.037   1.076  0.0024 -0.0932  0.1045
12779W        W28588   6.985   9.081   2.084  0.1562 -0.1931  0.1295
12780W        W28589  11.547  16.731   5.699 -0.2058  0.0847  0.0992
12781W        W28590  14.760  12.977   3.345 -0.0815  0.0109  0.0132
12782W        W28591   2.547   4.767   1.071 -0.0352 -0.1356  0.0859
12783W        W28592   3.790   2.864   1.374 -0.0049  0.2106  0.0895
12784W        W28593  18.535   7.672   2.368  0.2231 -0.1128 -0.0156
12785W        W28594   5.458   7.061  15.082 -0.2119  0.0283  0.1101
12786W        W28595  12.514  10.401   2.136  0.4101  0.2379  0.4734
12787W        W28596   6.194   2.107  10.960 -0.0310 -0.1442 -0.2901
12788W        W28597   4.741  12.961  13.307 -0.0923  0.0624 -0.1205
12789W        W28598   6.682   0.727  14.355 -0.0134  0.0429 -0.2552
12790W        W28599  13.452  12.938   3.741  0.1543  0.1015 -0.1257
12791W        W28600  15.583  16.874   1.547  0.1027 -0.0143 -0.2546
12792W        W28601  11.690  18.107   1.588  0.1141  0.1252 -0.0464
12793W        W28602   9.293  11.536  15.121 -0.1658 -0.2545 -0.2266
12794W        W28603  15.674   2.109  10.575  0.1755 -0.1420  0.0510
12795W        W28604  12.380   3.370   1.051 -0.0359 -0.1304  0.0737
12796W        W28605   3.633   3.921   0.123 -0.1858 -0.2478 -0.4749
12797W        W28606  18.177   4.145  15.342  0.0929 -0.0250  0.0179
12798W        W28607   8.808   7.308   0.025  0.3269 -0.1642 -0.0658
12799W        W28608  13.030   8.332  13.603 -0.0819  0.1112 -0.2343
12800W        W28609   0.709   9.758  13.771 -0.4868  0.2658 -0.0507
12801W        W28610   9.781   5.517   0.283 -0.0506  0.1674 -0.0648
12802W        W28611   3.174  10.526  14.998  0.0114  0.0071  0.0291
12803W        W28612  17.132   5.649   4.193  0.4511  0.1565  0.2254
12804W        W28613   8.911   1.573  11.518  0.0689  0.0627  0.1920
12805W        W28614  11.911  15.804  12.895 -0.0257 -0.0126 -0.3433
12806W        W28615   8.737  13.295  10.631 -0.2168  0.0586  0.1224
12807W        W28616  10.319   0.589   2.946  0.1918  0.0774 -0.0767
12808W        W28617   4.924   0.964   2.289 -0.0980  0.2287 -0.3772
12809W        W28618  12.020   5.435  12.860 -0.0895  0.4071  0.1895
12810W        W28619  13.098   7.597  13.021 -0.2528 -0.3636 -0.3478
12811W        W28620  13.282   9.131   3.303 -0.0496  0.3382 -0.0176
12812W        W28621   2.945   0.157   4.123  0.0599  0.0851 -0.1483
12813W        W28622   5.671   2.017  14.101 -0.5984  0.0266 -0.0217
12814W        W28623   9.046  14.681   0.212  0.2382 -0.1353  0.3237
12815W        W28624   8.359   1.745  15.587 -0.1341  0.0129  0.0965
12816W        W28625   7.226  13.141   1.724  0.2268  0.1069  0.2155
12817W        W28626  10.587  14.739   4.816 -0.2698  0.1406  0.2326
12818W        W28627  11.785   6.693   2.493 -0.0661 -0.0876 -0.0481
12819W        W28628   8.161   8.750  15.322  0.0373 -0.0199 -0.1342
12820W        W28629   0.458  11.142   5.728 -0.1148 -0.2252 -0.0131
12821W        W28630   1.514   9.099   1.949  0.3433 -0.0057  0.2590
12822W        W28631   6.115  13.022  14.025 -0.2298  0.0636 -0.0010
12823W        W28632  16.203   4.212  11.545  0.0851 -0.1296  0.0781
12824W        W28633  13.882  13.461   4.848  0.1490  0.4262  0.1797
12825W        W28634   1.395  16.880  14.748  0.0182 -0.0294 -0.0350
12826W        W28635  15.647   1.928   3.557 -0.0607 -0.1046 -0.1734
12827W        W28636   1.006  14.685  15.601  0.2375 -0.3119  0.2167
12828W        W28637  13.131   6.580   1.928 -0.1926 -0.0002 -0.0905
12829W        W28638   4.888   7.667  13.603 -0.0160 -0.1789 -0.0607
12830W        W28639  10.025   7.377  11.869 -0.0096  0.1805 -0.2731
12831W        W28640  18.331  12.923   2.925  0.3605  0.2316 -0.1035
12832W        W28641   9.894  15.244   5.263  0.3368 -0.1987 -0.0263
12833W        W28642  10.330  12.513   1.882 -0.2486  0.3009  0.1281
12834W        W28643   1.345  16.124   2.071 -0.4145  0.2608  0.0496
12835W        W28644  11.650   2.123  14.827  0.2441  0.1423 -0.1033
12836W        W28645   8.048   9.336   1.304 -0.0126  0.1278 -0.0062
12837W        W28646   9.279   5.555   2.419 -0.2563  0.0695  0.2086
12838W        W28647  17.806  11.343   1.478  0.1316 -0.0811 -0.2801
12839W        W28648   6.750  12.118   4.617  0.0284  0.0294 -0.0995
12840W        W28649  16.946   2.738   3.704 -0.1558  0.1629 -0.1017
12841W        W28650  13.774  12.783  10.952 -0.1527  0.0150  0.2452
12842W        W28651  13.482  16.678   4.622  0.3491  0.2028 -0.4271
12843W        W28652   0.002  12.212   0.859 -0.1056  0.4498  0.1216
12844W        W28653   2.035   0.186  12.402  0.2494 -0.2266  0.2131
12845W        W28654   4.316   5.282   0.217 -0.0880 -0.0443  0.0407
12846W        W28655   2.795   5.286  15.331 -0.3878 -0.2699  0.0323
12847W        W28656  10.424  13.372  14.586 -0.5214 -0.1881  0.0150
12848W        W28657   7.422   9.872   2.508  0.3512  0.0344  0.0584
12849W        W28658   7.470  16.177   3.400 -0.0489  0.0653 -0.1834
12850W        W28659   7.764  16.371  14.769  0.1214  0.0763  0.0245
12851W        W28660   9.001   2.869  12.402 -0.3319  0.0335 -0.3841
12852W        W28661  18.455  16.886   4.967  0.0359 -0.1281  0.4882
12853W        W28662   3.482   7.447   2.114  0.1976 -0.3973  0.0069
12854W        W28663  16.470  16.927  12.533  0.0657  0.1135 -0.0848
12855W        W28664   3.355   5.916  14.048  0.0556 -0.1448  0.1165
12856W        W28665  17.442   5.907  11.169 -0.4015 -0.1732 -0.1786
12857W        W28666  16.536  17.386  14.775  0.2456 -0.0769 -0.4136
12858W        W28667   8.545   2.122   0.232  0.0855 -0.1741 -0.1148
12859W        W28668   8.059  18.116  15.573  0.0922  0.2286  0.1442
12860W        W28669  11.992   1.500   4.026  0.1745 -0.4643  0.0383
12861W        W28670   7.911  15.552  13.779  0.1342  0.0877  0.1225
12862W        W28671   1.026  11.577   1.234  0.0532  0.4992 -0.1801
12863W        W28672   6.088  15.304  13.100 -0.1665 -0.3785  0.2141
12864W        W28673   6.357  12.419   2.556 -0.0893  0.1005  0.0090
12865W        W28674  14.487   0.965   2.717  0.1196 -0.0826  0.2790
12866W        W28675   4.515   1.123  14.946  0.1552 -0.1800 -0.3157
12867W        W28676   3.441   3.283  11.972  0.1857  0.1901  0.0667
12868W        W28677   8.023   8.911   5.308  0.0280  0.1233  0.1134
12869W        W28678   3.007   0.811   5.001  0.0667  0.1595  0.0280
12870W        W28679   6.520   6.649   2.670  0.1202 -0.0133  0.1340
12871W        W28680   6.850  17.008   2.348 -0.5865 -0.2821  0.0951
12872W        W28681  14.524   2.524   1.047  0.4096 -0.1099  0.0583
12873W        W28682  11.224   4.277  15.637 -0.0305  0.3933 -0.1031
12874W        W28683  16.662   7.163   4.373 -0.0114  0.1373 -0.1170
12875W        W28684   3.639   5.320   1.411 -0.1705 -0.0234  0.0757
12876W        W28685   4.881  13.156   0.266 -0.0161 -0.1044 -0.1762
12877W        W28686  18.317   5.479   1.301  0.0819 -0.1201 -0.1968
12878W        W28687   8.059   5.367  15.591  0.0689 -0.2629 -0.2241
12879W        W28688  18.525   7.566   4.553  0.0960 -0.0704 -0.3059
12880W        W28689  11.233  12.025   0.148 -0.1662 -0.0073 -0.1696
12881W        W28690  10.897  16.165  14.413 -0.2739 -0.3046  0.1279
12882W        W28691   3.906   6.425   2.820 -0.2407  0.0332 -0.0005
12883W        W28692  12.863  12.178   3.533 -0.1183 -0.1890  0.0667
12884W        W28693   8.967   5.377   2.046  0.0979  0.0514 -0.1198
12885W        W28694   3.526   0.255  10.991  0.0412 -0.1190 -0.1354
12886W        W28695   3.748   4.972   0.163 -0.0236  0.1559  0.0081
12887W        W28696   4.989  11.347  13.852 -0.1387  0.0656  0.0211
12888W        W28697   4.675   5.315  13.907 -0.0086 -0.1522  0.3413
12889W        W28698  10.393   2.742   3.058  0.2113  0.1743 -0.0236
12890W        W28699  14.007  12.897  13.552 -0.0990  0.1004 -0.0730
12891W        W28700  10.209   1.642   0.284 -0.0050 -0.0618 -0.1394
12892W        W28701   2.513   7.244  13.882 -0.1861  0.0668  0.0968
12893W        W28702  11.401   5.449  15.454 -0.2331  0.1350 -0.3601
12894W        W28703   7.468  14.299   3.295  0.3855 -0.3144 -0.0300
12895W        W28704  14.199   0.679  14.759  0.0221  0.4664  0.1587
12896W        W28705   4.001  17.445   5.137  0.2733 -0.0793 -0.0963
12897W        W28706   7.260   3.616  12.720 -0.1465 -0.0840 -0.1288
12898W        W28707  12.952   9.947   4.561  0.1200  0.2040 -0.3999
12899W        W28708   1.796  10.677  15.613 -0.2373 -0.0303 -0.4154
12900W        W28709  14.823   7.897   1.189  0.0368 -0.1066 -0.2210
12901W        W28710  13.494   6.928  15.020 -0.3782 -0.0266  0.0238
12902W        W28711  10.407  15.812   3.406 -0.3998 -0.3133  0.0522
12903W        W28712   4.984  13.058  13.770 -0.0734  0.0243 -0.2210
12904W        W28713  17.830   9.743   1.879 -0.1814  0.2775 -0.3688
12905W        W28714   2.099  15.241  14.226  0.2704 -0.0730  0.0982
12906W        W28715   4.704   8.247   5.945  0.2451  0.1346  0.1173
12907W        W28716  11.863  13.048   1.423  0.1465  0.1358  0.1958
12908W        W28717  13.666   1.672   0.680 -0.0634 -0.0214  0.0662
12909W        W28718   7.896  15.636  12.476 -0.2424  0.0496 -0.0202
12910W        W28719  18.450   1.261   2.822 -0.1590 -0.0285 -0.1660
12911W        W28720   6.783  11.815  12.332  0.1246  0.1029 -0.3431
12912W        W28721  17.732  10.369  14.601  0.2224 -0.0294 -0.0986
12913W        W28722   6.191   5.163  11.568  0.1069 -0.1598 -0.0868
12914W        W28723  17.791   9.691   5.697 -0.1352  0.1507 -0.0396
12915W        W28724  18.340  16.425  11.979 -0.1069 -0.0052  0.2114
12916W        W28725  10.269  14.466  15.358 -0.0878  0.0670 -0.1714
12917W        W28726  12.740  11.285  10.909  0.1884  0.0355  0.0782
12918W        W28727  16.563   9.274   0.249  0.1329  0.2804  0.1441
12919W        W28728  11.526  17.145   5.400  0.0870 -0.0933  0.1786
12920W        W28729   8.372  15.992   3.683  0.1466 -0.1487 -0.3442
12921W        W28730  16.040  10.069  15.562 -0.2524  0.3365  0.2522
12922W        W28731   1.385   2.230   3.572  0.3488 -0.0232 -0.0608
12923W        W28732  12.307   3.312   3.156 -0.1048 -0.2376  0.0001
12924W        W28733   8.195  17.590   0.877 -0.0083  0.0665  0.1232
12925W        W28734   2.175   8.571  15.656  0.0260  0.5359  0.0209
12926W        W28735  10.039  13.862  15.041  0.0358  0.2058 -0.1816
12927W        W28736  17.147   4.678   0.698 -0.2252  0.0345 -0.0908
12928W        W28737  17.355   3.668  15.465 -0.0602 -0.0475  0.3995
12929W        W28738   6.684  10.488  13.040  0.0653  0.1621 -0.1129
12930W        W28739   4.894   5.643   4.341  0.3158 -0.0153 -0.2333
12931W        W28740   8.866   9.281   0.921  0.2049  0.3138  0.1003
12932W        W28741   3.672   6.234   3.731 -0.1968 -0.3182 -0.2043
12933W        W28742   4.149   9.860  13.099 -0.0206  0.1280  0.2187
12934W        W28743   4.181  10.274  13.482 -0.1850 -0.0373  0.1376
12935W        W28744   4.116  18.152  12.730 -0.0766  0.1196 -0.0549
12936W        W28745  16.237   5.296  15.415 -0.0072 -0.0655 -0.2385
12937W        W28746  11.014  13.996   4.680  0.0440  0.2390 -0.2687
12938W        W28747  14.036   2.774   2.956  0.5741 -0.0590 -0.4561
12939W        W28748  17.085   2.691  15.202  0.1503  0.0726 -0.2096
12940W        W28749   6.031   3.421  11.951  0.3032 -0.2095  0.1263
12941W        W28750   0.916  14.870  13.475  0.1213  0.2308 -0.0669
12942W        W28751   4.761   0.748  11.113 -0.1242  0.0940 -0.1842
12943W        W28752  14.491   1.680   3.887 -0.0812  0.2267  0.3029
12944W        W28753  17.608   9.923   0.355  0.0145  0.1216  0.0701
12945W        W28754  14.941   9.780  13.953 -0.1497 -0.0694  0.1165
12946W        W28755  12.348   1.516   2.691 -0.1836 -0.2062 -0.0580
12947W        W28756  14.985   0.388   2.458 -0.3630 -0.5850 -0.2307
12948W        W28757  10.668   5.033  14.019 -0.0285  0.2687  0.4184
12949W        W28758  12.124  12.497   5.193  0.0409  0.0769  0.4024
12950W        W28759   7.568  14.771  13.818  0.0099  0.0452  0.0580
12951W        W28760  16.379   1.430  13.413 -0.0925 -0.2831  0.1062
12952W        W28761   0.776  18.251  11.076 -0.1510 -0.0026  0.5346
12953W        W28762  18.319  13.871   0.783 -0.0734 -0.1828 -0.0375
12954W        W28763   8.181  12.565  11.987 -0.4530 -0.3067  0.2111
12955W        W28764   0.746  18.660  14.447 -0.2888 -0.0358  0.1495
12956W        W28765   5.513  14.614  14.152  0.2615 -0.3035 -0.2576
12957W        W28766  10.549  13.559   0.651 -0.4586  0.1906  0.3106
12958W        W28767   8.774   5.720  11.850 -0.2014  0.0960 -0.3451
12959W        W28768  13.318   9.601  12.733  0.0298  0.0709 -0.2618
12960W        W28769   4.623   4.349   5.680 -0.1681  0.1267  0.2123
12961W        W28770  11.812  16.210   1.795  0.3745  0.0680 -0.1252
12962W        W28771   2.060   3.598  12.238  0.0104  0.0295 -0.2854
12963W        W28772   0.325   5.199   3.696  0.1821 -0.3014 -0.2188
12964W        W28773   8.856  12.523  13.788  0.1027 -0.0025  0.0276
12965W        W28774  11.277   9.994   0.343 -0.1713  0.0203 -0.0707
12966W        W28775   8.951  16.367   5.711 -0.2463 -0.3369 -0.0360
12967W        W28776  16.012  18.011  13.939 -0.2395  0.1658 -0.0397
12968W        W28777  14.345  12.031  11.881  0.0253 -0.1537 -0.0572
12969W        W28778   7.136  13.528  12.944 -0.2945  0.0082 -0.2379
12970W        W28779   1.013  10.642   4.787 -0.2713  0.1670  0.0858
12971W        W28780   3.149  11.583   1.871 -0.0710 -0.0398  0.2002
12972W        W28781   0.357   6.443   3.025 -0.0839  0.0017  0.0498
12973W        W28782   5.525   3.380  14.287  0.0896  0.0144 -0.0668
12974W        W28783   7.724  18.353   3.553 -0.0105  0.3978 -0.0232
12975W        W28784  13.073  18.500   0.474  0.3742  0.0662 -0.0017
12976W        W28785   0.661  14.630  11.722 -0.1419  0.3186 -0.1122
12977W        W28786   4.639  10.379   0.737  0.0280  0.0743  0.0078
12978W        W28787  14.110  11.457  12.016  0.4961 -0.3629 -0.0953
12979W        W28788   7.356   0.685   2.320 -0.0379 -0.0068  0.1373
12980W        W28789  17.962   0.915   5.793  0.4091  0.0576  0.1346
12981W        W28790   7.776   4.752   2.125  0.1341 -0.2095 -0.2741
12982W        W28791   4.665   9.350   0.503 -0.0766 -0.1936 -0.0578
12983W        W28792   2.866  16.523  12.897 -0.1514 -0.4842 -0.1152
12984W        W28793   5.282   6.075  14.689 -0.0318  0.0284  0.1315
12985W        W28794   5.252  17.855  12.527  0.1385 -0.1384 -0.0545
12986W        W28795  16.889   7.192  14.304 -0.0647  0.0279  0.2272
12987W        W28796   2.443   0.428   1.177 -0.0759  0.1115  0.1380
12988W        W28797  13.125   1.571   4.161  0.0552  0.2485  0.1205
12989W        W28798   8.355  13.884  13.778  0.1155  0.2023  0.1689
12990W        W28799   0.709   1.946  13.415 -0.0531 -0.0987 -0.2258
12991W        W28800   6.755   7.414  15.534 -0.3147 -0.2249 -0.1573
12992W        W28801   7.183  16.500   3.631  0.0011 -0.0311  0.0161
12993W        W28802   2.155  11.550   4.344  0.3746  0.1482 -0.2019
12994W        W28803   8.457  16.294   1.024 -0.0173 -0.2172 -0.2191
12995W        W28804  12.703  12.682   3.400  0.0538  0.2833  0.3611
12996W        W28805  12.069  16.369  12.677 -0.3371 -0.2924 -0.0721
12997W        W28806   8.265  14.034  11.836  0.0493 -0.0342 -0.1736
12998W        W28807   7.727  10.088  10.750  0.0841  0.3072 -0.0002
12999W        W28808   8.630  10.107   0.932 -0.0151 -0.0040  0.3060
13000W        W28809  14.241   8.181   3.009  0.1242  0.0431 -0.0007
13001W        W28810  18.656   0.416  14.564 -0.1711  0.0411  0.0980
13002W        W28811   1.663  16.486  12.406 -0.0966 -0.1279 -0.3424
13003W        W28812   0.271   6.442  13.039  0.0144  0.0770  0.3199
13004W        W28813  14.254  10.943  12.409 -0.3830  0.4525 -0.1618
13005W        W28814   4.063  14.366  13.915 -0.1058 -0.0417 -0.1383
13006W        W28815   4.355  14.356  15.129 -0.0860 -0.1437 -0.1130
13007W        W28816   9.730  17.739   5.122  0.2549  0.0547 -0.1100
13008W        W28817   1.381   4.782   4.410 -0.1781  0.1972  0.0349
13009W        W28818   0.226  15.234   2.277 -0.0532  0.0124 -0.1695
13010W        W28819  12.125  17.474  10.794  0.0493 -0.1028  0.0505
13011W        W28820  14.909  14.940   1.485  0.0449 -0.1705 -0.2391
13012W        W28821   4.905  10.129  13.820  0.4219 -0.1579 -0.2555
13013W        W28822  16.138  10.704  12.369 -0.1986 -0.0190  0.1608
13014W        W28823  16.586  12.042   0.440 -0.3514  0.2522  0.0123
13015W        W28824   3.805   0.640  15.584 -0.2665  0.2561  0.2279
13016W        W28825   3.962   0.817   0.872 -0.0560 -0.1860  0.2434
13017W        W28826   3.269  11.944  12.670  0.2007 -0.3481 -0.0956
13018W        W28827  10.862  12.655  12.917 -0.0687 -0.4186 -0.2539
13019W        W28828  13.483  18.530   4.709 -0.1066 -0.2986  0.2158
13020W        W28829  11.229   2.306   2.769 -0.1499 -0.0926  0.0678
13021W        W28830   6.064   4.616   4.877 -0.1184 -0.4232  0.0185
13022W        W28831   7.373  16.517   0.902  0.0185  0.0682 -0.1231
13023W        W28832  12.890  12.777  11.479 -0.1328  0.0493 -0.1509
13024W        W28833  18.498   6.506  13.310  0.0672 -0.1177 -0.2639
13025W        W28834   5.348  17.616  12.983 -0.0718 -0.3295  0.2263
13026W        W28835   8.239  11.831   1.754 -0.2112 -0.0327  0.2631
13027W        W28836   3.429   4.234   4.449  0.0830  0.0623  0.1429
13028W        W28837   3.550   5.165  14.133  0.0613  0.2386 -0.3397
13029W        W28838   5.230   4.830   1.039  0.0636  0.3629  0.1995
13030W        W28839   7.420  10.159  15.225 -0.1699 -0.1163  0.0294
13031W        W28840  14.854  14.205  10.761  0.2638 -0.0052  0.0770
13032W        W28841  18.486   5.867   4.261 -0.2557  0.1369 -0.3102
13033W        W28842  14.202   3.894  14.636 -0.0517  0.1740 -0.0451
13034W        W28843  15.660  15.101   2.158  0.0572  0.1814  0.3876
13035W        W28844   9.143  17.804  13.419 -0.2502  0.0230 -0.0192
13036W        W28845  18.036  17.181   1.878 -0.1753 -0.1078  0.1635
13037W        W28846  16.058   4.125   4.458 -0.1229 -0.3481  0.0028
13038W        W28847   2.672   1.450   1.527  0.0466 -0.1033  0.1238
13039W        W28848  13.610  17.734  11.962  0.2893  0.0345 -0.0273
13040W        W28849  17.694   3.080   5.394  0.1389  0.2318  0.0536
13041W        W28850  10.948   4.461  11.983 -0.2755  0.1784 -0.1647
13042W        W28851   6.223  16.130  13.493  0.2747 -0.1121 -0.0818
13043W        W28852  16.018   1.249   1.328 -0.2782  0.2396 -0.0169
13044W        W28853  15.897  15.729  13.424  0.1564 -0.0186  0.5908
13045W        W28854   1.119   9.388   4.225 -0.0222 -0.1169 -0.0125
13046W        W28855   3.955   8.838   2.922 -0.0626  0.0203  0.1684
13047W        W28856  10.624   1.955   3.880 -0.2621  0.0832 -0.0821
13048W        W28857  14.824  17.923  14.673 -0.3090  0.0768 -0.1564
13049W        W28858   1.619   0.609   2.922  0.3285 -0.0373 -0.1668
13050W        W28859   8.059   3.365  13.297 -0.0923  0.1113 -0.0445
13051W        W28860   0.622  15.433   4.683  0.1773 -0.1526  0.0591
13052W        W28861   2.324  12.059   1.138  0.1014 -0.0635 -0.1602
13053W        W28862  16.925  12.357   3.692  0.0496  0.2212 -0.0020
13054W        W28863  13.900  11.915   2.130  0.0408  0.1881  0.2041
13055W        W28864  16.829   1.308  11.710  0.0680  0.1010  0.0848
13056W        W28865   0.873  11.862  13.208  0.1209  0.1309 -0.0560
13057W        W28866  16.105   5.611  10.908  0.1917 -0.2395  0.0466
13058W        W28867  12.445   9.063   3.467 -0.0934 -0.0902  0.0416
13059W        W28868   9.268   1.223   1.887 -0.0121 -0.0126 -0.1421
13060W        W28869   5.987  11.204   3.520 -0.0481  0.1492  0.0474
13061W        W28870   7.076  14.403   0.687 -0.4080 -0.0276 -0.1102
13062W        W28871  11.520  11.615   5.876 -0.0305  0.1952 -0.1994
13063W        W28872  11.897  16.833  12.607 -0.1894  0.2978  0.0147
13064W        W28873   2.592   4.941  14.839 -0.0384 -0.0304 -0.2130
13065W        W28874   8.005  10.032   3.208 -0.1251 -0.0669 -0.0839
13066W        W28875   4.501  13.083  13.715 -0.2084 -0.2179  0.0433
13067W        W28876  18.416  15.879  14.497 -0.0674  0.3391  0.0720
13068W        W28877   9.253  17.025  11.999  0.0740  0.3599 -0.1534
13069W        W28878  15.786  16.969  15.570  0.2853 -0.2413 -0.1795
13070W        W28879  13.903   7.238  13.786 -0.2132  0.0012  0.0977
13071W        W28880   2.127  17.544   1.057 -0.2067 -0.1817 -0.0957
13072W        W28881   0.670   4.946   0.027 -0.0868  0.1323  0.0906
13073W        W28882   4.974   4.294  12.629 -0.1479  0.0908  0.0443
13074W        W28883  11.267  10.125  13.485  0.0035 -0.2524 -0.1022
13075W        W28884   1.222  14.922   4.551  0.0504 -0.1274 -0.4589
13076W        W28885   3.546   5.956   0.308  0.0614  0.1894  0.0235
13077W        W28886  17.044   1.786  12.314 -0.2473  0.0690 -0.1372
13078W        W28887  15.941   1.084  14.958 -0.0246 -0.4304 -0.2028
13079W        W28888  12.169  16.342   4.167 -0.4537 -0.0819 -0.0912
13080W        W28889  14.648   1.429  14.286 -0.1494 -0.1684 -0.1544
13081W        W28890   0.814  13.403   0.442 -0.1496 -0.1420  0.0779
13082W        W28891  11.725  16.298   4.332  0.0503  0.1301  0.0191
13083W        W28892   7.027   5.179  12.841 -0.1801 -0.1060 -0.2445
13084W        W28893   8.606   0.077   1.392  0.0754 -0.2434  0.2019
13085W        W28894   7.861   2.500  14.650  0.3387 -0.4422  0.1504
13086W        W28895  16.185   8.587  14.089  0.1175 -0.0565  0.3645
13087W        W28896  13.830   0.133  14.783 -0.1739 -0.3038  0.1438
13088W        W28897  11.127   1.036   0.177 -0.0427  0.0554  0.1813
13089W        W28898   9.907   2.870  12.852 -0.0929 -0.0344  0.4900
13090W        W28899   2.858   4.027  14.944  0.0740  0.0180  0.2373
13091W        W28900   2.399   7.941   5.063  0.0150 -0.2254 -0.2215
13092W        W28901   8.265  13.803   0.993  0.0792  0.2361  0.2812
13093W        W28902  18.344  17.150   5.657 -0.1659  0.2538  0.2317
13094W        W28903  10.275   6.263   0.788  0.0932 -0.1066  0.4277
13095W        W28904   0.450  10.694   4.716 -0.0872  0.0802 -0.0015
13096W        W28905  17.498  10.532   3.021 -0.1039  0.0613  0.0616
13097W        W28906  10.972  12.389  11.347  0.3243 -0.0430 -0.1419
13098W        W28907   9.515  14.045   0.151 -0.1285  0.1132 -0.1126
13099W        W28908   7.114  10.397   1.318 -0.0031  0.0469 -0.0732
13100W        W28909   8.191  15.323  12.228  0.3921  0.0476  0.0194
13101W        W28910   1.064   2.419   5.565  0.0161  0.1596  0.2338
13102W        W28911   8.848   3.075  15.518 -0.2641 -0.0879 -0.0362
13103W        W28912   8.259   9.282   2.613 -0.1375 -0.3989 -0.2216
13104W        W28913  18.433  15.689  14.979  0.0505 -0.0142  0.3884
13105W        W28914  12.499   2.925  10.987 -0.2719  0.0648 -0.0464
13106W        W28915   2.462  13.883   3.373  0.0222 -0.1277 -0.0070
13107W        W28916  10.740   9.461   2.478 -0.0245  0.1739 -0.0810
13108W        W28917  11.111   6.039  13.353 -0.0114 -0.2053 -0.1490
13109W        W28918  12.610   7.090  14.068  0.0358  0.0805  0.0142
13110W        W28919  17.647  12.484   1.650  0.3063  0.0772 -0.2195
13111W        W28920  10.061  15.894   1.097  0.0147  0.0616  0.0397
13112W        W28921   6.000  14.565  10.908  0.3975 -0.1406 -0.0946
13113W        W28922   8.863   0.170  10.717  0.1549 -0.0768 -0.4247
13114W        W28923   3.110  13.106   1.941  0.3094  0.3319  0.2490
13115W        W28924  11.069  17.300  11.883 -0.0756  0.0102  0.0627
13116W        W28925  13.226  13.075  12.718  0.3668  0.0763  0.0744
13117W        W28926   2.105   0.191   3.592 -0.0892  0.3132  0.0235
13118W        W28927   4.552   3.779   1.206 -0.0765  0.1486  0.0970
13119W        W28928   8.963   2.244   4.673  0.1260  0.1187 -0.1782
13120W        W28929   7.071   3.660  10.726  0.2529  0.0368 -0.3311
13121W        W28930   2.644  13.893   4.440  0.1699 -0.1264  0.0596
13122W        W28931  11.487   3.753   4.262 -0.0318  0.2213 -0.2309
13123W        W28932   8.581   4.722   4.455  0.0342 -0.1806  0.0944
13124W        W28933  10.617   8.387   2.855 -0.0450  0.2181 -0.1996
13125W        W28934   1.337  11.049   5.378 -0.1200 -0.1028 -0.3558
13126W        W28935   4.153  12.590   2.738  0.0350  0.0888  0.0397
13127W        W28936  13.810   5.959  12.601 -0.5531 -0.0544  0.0012
13128W        W28937  11.282  15.609   0.070 -0.1113 -0.2807  0.0890
13129W        W28938  13.727  10.489   2.918 -0.1304 -0.1396 -0.0276
13130W        W28939  13.979   1.896  13.227  0.2797 -0.0035  0.2830
13131W        W28940   2.148  15.210  10.909  0.1998 -0.2686 -0.0498
13132W        W28941  10.808   7.072  14.946 -0.1070 -0.1573 -0.2646
13133W        W28942  12.086   2.017   3.929  0.2193  0.1669 -0.2681
13134W        W28943   7.366  14.440   1.190 -0.2459  0.1068 -0.0116
13135W        W28944   5.766   9.596  13.700 -0.0077  0.0979 -0.2427
13136W        W28945   6.357   9.675  13.517 -0.1126  0.0070 -0.3226
13137W        W28946  10.659   2.208   0.417 -0.2949  0.0403 -0.0907
13138W        W28947  12.953  13.939   3.739 -0.3934 -0.0958 -0.2621
13139W        W28948   1.526  17.683   2.497 -0.1596 -0.2051  0.0555
13140W        W28949  12.401  10.007  11.591  0.0471  0.1545 -0.0084
13141W        W28950   8.037  12.155   4.512  0.5562 -0.0024  0.0494
13142W        W28951   2.266   4.546   4.400  0.0011  0.0785 -0.0460
13143W        W28952   2.040  11.166  14.552 -0.1040 -0.2428 -0.1071
13144W        W28953   3.537  16.403  10.774 -0.1365  0.2479  0.0603
13145W        W28954  12.045   8.642  15.424  0.3742 -0.0955  0.1600
13146W        W28955  18.262  14.974   1.886 -0.0722 -0.0250 -0.0871
13147W        W28956   2.145  17.377   1.682  0.2598 -0.1289 -0.0705
13148W        W28957   3.755  11.238  12.947  0.1147  0.0267  0.2285
13149W        W28958  15.546  17.046  12.660  0.2607  0.2400  0.0814
13150W        W28959  14.831   6.760   3.982 -0.2463 -0.1958  0.2202
13151W        W28960  14.617   0.530   3.973 -0.1020  0.3837 -0.1290
13152W        W28961   3.072   1.942   5.918  0.0416  0.3203 -0.0641
13153W        W28962  17.509   4.358   3.361 -0.2628  0.0962 -0.0904
13154W        W28963  16.356  14.903   4.051  0.4298 -0.1738 -0.0183
13155W        W28964   6.475   4.146   5.645 -0.2360 -0.2794 -0.2864
13156W        W28965   5.496  11.027  11.622 -0.0160  0.4232 -0.0605
13157W        W28966   5.244   0.288  14.089  0.0855 -0.1652  0.0801
13158W        W28967   1.604  11.729  15.607  0.0375 -0.0925 -0.0810
13159W        W28968  18.626  11.597   0.459  0.4833  0.0233 -0.1897
13160W        W28969   7.445  15.853  11.852  0.2354 -0.4194 -0.0498
13161W        W28970  12.548   8.475  14.543  0.1058  0.3007 -0.0807
13162W        W28971   1.946   8.525  11.370  0.0967 -0.3180 -0.1530
13163W        W28972   6.017   3.999  13.930 -0.0822  0.1910  0.0825
13164W        W28973  15.436   2.793   2.892  0.2021 -0.0293 -0.2161
13165W        W28974   0.077   6.799  12.310 -0.0011  0.0001  0.1600
13166W        W28975   0.548   1.382  12.701 -0.0652  0.2065  0.1490
13167W        W28976   0.333  16.755  13.531 -0.1662  0.0603  0.1311
13168W        W28977   8.170  10.153   5.387  0.4105 -0.0041  0.0336
13169W        W28978   9.581  11.189   0.618  0.0608  0.1134 -0.0193
13170W        W28979   1.975  10.812   1.601  0.0302 -0.0690  0.0899
13171W        W28980  10.563   4.077  11.935  0.1323  0.1688  0.2023
13172W        W28981   0.244   7.311  13.733  0.0586  0.1322  0.2272
13173W        W28982   9.571   4.899  11.521 -0.2879  0.1319 -0.0556
13174W        W28983  14.578  16.530  11.670 -0.1702  0.0896  0.2315
13175W        W28984  16.267   8.277  13.392 -0.1401  0.1313  0.3052
13176W        W28985  13.363  15.865   5.375 -0.0094  0.1418  0.0189
13177W        W28986  13.906   8.109  13.621 -0.0651  0.2302 -0.0018
13178W        W28987  13.454  17.829  15.162  0.1546  0.2012 -0.2739
13179W        W28988  14.997   3.826  12.101  0.0212  0.3674 -0.4365
13180W        W28989  17.358   6.485   5.298  0.0945 -0.1196 -0.0030
13181W        W28990  11.629  12.134  13.008 -0.0288 -0.0716 -0.0538
13182W        W28991   4.647   9.957   0.323  0.3640 -0.1299  0.1450
13183W        W28992  18.295   5.614   0.390 -0.1375  0.3901  0.2520
13184W        W28993  11.715   9.846  12.248 -0.0683  0.1039  0.1292
13185W        W28994   7.864   7.490   0.963 -0.0539  0.2273 -0.0219
13186W        W28995  16.637  14.934   1.047  0.0940 -0.1615 -0.0882
13187W        W28996  10.029  13.680   0.402 -0.0851  0.1541 -0.1662
13188W        W28997   5.395   7.972   5.157 -0.0121  0.2551 -0.3328
13189W        W28998  18.337  12.711   5.635  0.0284 -0.4216 -0.1779
13190W        W28999  17.891  17.260   1.412  0.0544 -0.1222  0.0072
13191W        W29000   4.264  16.133   2.422 -0.1421  0.2483  0.0895
13192W        W29001   1.031  11.367   3.638 -0.1994  0.2695 -0.0722
13193W        W29002  10.995   8.040  14.737 -0.2580 -0.0344 -0.2816
13194W        W29003   4.433   7.665   1.344 -0.1034 -0.2699  0.3526
13195W        W29004   8.628  10.076   5.116 -0.2050 -0.1427  0.0305
13196W        W29005  16.212  17.842   4.497 -0.1948  0.2380  0.6216
13197W        W29006  10.781  13.838  12.291  0.1219 -0.0644 -0.2812
13198W        W29007   8.749   1.389  11.062 -0.1747  0.3384  0.4213
13199W        W29008  12.286   1.199  15.375  0.0720 -0.1605  0.3322
13200W        W29009  14.237  14.412   4.062  0.0209 -0.1164  0.1752
13201W        W29010  12.997  17.522  13.021 -0.1273 -0.0184 -0.3631
13202W        W29011   9.446   4.125  13.665  0.0522  0.1655 -0.1027
13203W        W29012   6.657   8.217   0.583 -0.0090 -0.3828 -0.1758
13204W        W29013  14.555   4.529  11.549  0.0276  0.0244  0.2191
13205W        W29014  11.021   7.403   3.345  0.2476 -0.1918  0.1854
13206W        W29015   5.127  15.233  12.342 -0.1712 -0.3432 -0.0383
13207W        W29016  13.774  11.145  14.552  0.0604 -0.1875  0.0423
13208W        W29017   1.527  14.138   0.775  0.1156  0.1281  0.0010
13209W        W29018   4.645  13.099  14.206  0.1855 -0.0511 -0.4680
13210W        W29019   5.226  11.751  14.766  0.0456  0.1318  0.0462
13211W        W29020   1.479  13.668  13.506  0.3456 -0.1538  0.1635
13212W        W29021   5.955   7.639   2.586 -0.0659 -0.1177  0.0845
13213W        W29022   3.889   3.529  12.856  0.0256 -0.1573  0.0633
13214W        W29023  17.813  16.277  12.895 -0.0252  0.1304 -0.1378
13215W        W29024  15.115   5.606  11.646  0.1203 -0.0249 -0.2228
13216W        W29025   8.198   9.610   2.967  0.0918  0.4029 -0.1347
13217W        W29026   5.527  11.806   3.974 -0.0865 -0.0094 -0.1496
13218W        W29027   9.303   5.255   5.954 -0.0730  0.1968 -0.2909
13219W        W29028  17.256  13.052   4.883  0.3833  0.0469  0.1179
13220W        W29029   3.603  12.314   0.195 -0.2662 -0.1888  0.0095
13221W        W29030   2.459   9.208  13.776  0.0834  0.1548 -0.1839
13222W        W29031   8.233   9.722   0.246  0.0970  0.0771  0.2193
13223W        W29032  14.483  12.232   3.848  0.1331  0.0846 -0.2752
13224W        W29033  11.739  16.966  13.902  0.0425  0.2680 -0.1794
13225W        W29034   3.814   8.591  15.506 -0.3948 -0.0400  0.2216
13226W        W29035  10.522  14.564   4.318 -0.0523 -0.1705  0.0819
13227W        W29036   0.920   7.397  12.332 -0.1966 -0.1002  0.1731
13228W        W29037  10.314  12.021   0.698  0.1354 -0.0088  0.0823
13229W        W29038  18.467   0.745  14.183 -0.2250 -0.2585  0.1982
13230W        W29039   0.869  18.110   0.928 -0.1177  0.1357 -0.3124
13231W        W29040   5.458   9.673  11.070  0.2238 -0.0507 -0.0662
13232W        W29041   5.090   5.206  14.905 -0.1415 -0.0943 -0.4020
13233W        W29042  13.738  16.533   0.805 -0.0135 -0.0308  0.2663
13234W        W29043  18.049  14.401   9.820  0.0224 -0.0147  0.2505
13235W        W29044  11.425  15.888   3.525  0.2740  0.3747  0.0560
13236W        W29045  12.939  18.309  12.116 -0.0071  0.1243 -0.0004
13237W        W29046   3.929   5.094  15.485 -0.1854 -0.1379  0.1453
13238W        W29047   0.798  13.886   2.867  0.1336 -0.0791 -0.0305
13239W        W29048  12.852  12.308  10.177 -0.0325 -0.4601  0.2940
13240W        W29049  10.888   0.825  12.923  0.1523 -0.1729 -0.0533
13241W        W29050   4.951   1.279  14.311 -0.2318 -0.0518 -0.2128
13242W        W29051  15.989   7.184   0.121 -0.3177  0.3366 -0.2397
13243W        W29052  15.391   0.766   2.499 -0.1417  0.0590 -0.4220
13244W        W29053  18.531   2.991   0.788 -0.0896 -0.0459 -0.0382
13245W        W29054  10.799  14.657   2.965  0.3207  0.1496 -0.0021
13246W        W29055  15.663  17.445  13.690  0.1145  0.1462 -0.3644
13247W        W29056  15.780   6.126  13.113 -0.4207 -0.2792  0.2172
13248W        W29057   9.946   8.137   2.390 -0.1035 -0.1466  0.3032
13249W        W29058   0.247   6.159  13.468 -0.2372 -0.1213  0.1753
13250W        W29059  18.052   5.329   3.821 -0.0487  0.2284  0.3312
13251W        W29060  14.929   5.400  13.040 -0.1883 -0.2754 -0.1967
13252W        W29061   1.809  10.826  12.764 -0.2034  0.1388  0.0605
13253W        W29062  10.187   1.469  14.425 -0.1339  0.0155  0.1406
13254W        W29063  13.910  11.147   1.787  0.1901  0.0375  0.1779
13255W        W29064  10.316  10.197   4.251 -0.1687 -0.1150  0.2097
13256W        W29065  12.447  11.684  13.927  0.1744 -0.0634  0.2249
13257W        W29066   3.642  11.326   5.709  0.3003 -0.0373  0.1031
13258W        W29067  12.086  15.699   1.107 -0.0225  0.0250 -0.1592
13259W        W29068   9.808  16.893   0.970 -0.2026  0.0681 -0.3355
13260W        W29069   8.362   6.858  14.364 -0.1238 -0.3432 -0.0250
13261W        W29070   5.126   7.037  14.741 -0.2930 -0.0052 -0.1734
13262W        W29071  12.379   1.249  12.091  0.0416  0.0623  0.0239
13263W        W29072  11.732   2.871   2.140 -0.2288  0.0691 -0.1280
13264W        W29073   3.921  17.232  15.537  0.0362 -0.0313 -0.1649
13265W        W29074  14.239  16.460  14.753 -0.1513 -0.0108  0.1055
13266W        W29075   0.777  14.560  12.665  0.1200 -0.0366  0.1124
13267W        W29076  12.335   5.499   2.981 -0.0568  0.0395  0.0004
13268W        W29077   8.041   5.753   4.728  0.2309  0.0562 -0.3796
13269W        W29078   0.170   4.211   3.218  0.0153  0.0438  0.2095
13270W        W29079   7.959  10.019  12.753  0.0416 -0.0881 -0.1988
13271W        W29080   0.144  11.289   0.886  0.3236  0.2360 -0.0335
13272W        W29081   0.576  13.152   5.815  0.1688 -0.0407  0.0866
13273W        W29082  10.958  18.071  14.509 -0.1222 -0.0306 -0.0874
13274W        W29083  10.194  11.636   3.908 -0.2285  0.0822  0.0390
13275W        W29084  17.556  17.548  12.847 -0.0356 -0.1561  0.0225
13276W        W29085  17.261   0.030   3.189 -0.2644  0.0706  0.1799
13277W        W29086  12.345   7.025  10.432  0.1043  0.1690  0.0728
13278W        W29087  14.845   3.669   3.060 -0.2241  0.0690  0.0299
13279W        W29088  15.737  15.981   2.041  0.0623  0.0175  0.1703
13280W        W29089  17.109   9.023  13.899 -0.4688 -0.2771  0.2013
13281W        W29090  14.235   7.707   1.460 -0.0376  0.2165  0.0959
13282W        W29091  15.946   9.678  13.485 -0.0845  0.2326 -0.0958
13283W        W29092  11.920  18.098  10.624  0.0244 -0.4636 -0.1717
13284W        W29093  10.284  16.558  13.130 -0.1093 -0.2261  0.0745
13285W        W29094   6.742  17.069   2.842 -0.1265  0.0030 -0.1287
13286W        W29095  17.386  11.769   0.966  0.0141  0.3109  0.0529
13287W        W29096  12.223  14.291   0.275  0.1217 -0.2067 -0.1036
13288W        W29097   2.969  17.124  10.913 -0.1395 -0.0085 -0.0198
13289W        W29098  15.032   6.247  10.931  0.0719 -0.1816  0.0774
13290W        W29099   0.609  13.286  13.655 -0.2242 -0.2198  0.1667
13291W        W29100  11.987  16.627   0.503  0.0900 -0.0591 -0.1629
13292W        W29101  17.242   7.643  12.045 -0.0120 -0.0644 -0.1791
13293W        W29102   7.571   9.103   1.924 -0.0432  0.2171 -0.0321
13294W        W29103   4.520   4.947   3.774 -0.1391 -0.0456 -0.0548
13295W        W29104  14.920  15.107  12.245 -0.3778 -0.1885  0.2793
13296W        W29105  10.677  10.733  15.014  0.2634 -0.2203  0.1267
13297W        W29106   2.092  11.587   5.530  0.2448 -0.0999  0.1432
13298W        W29107   2.428  16.409  14.072  0.0327  0.0317 -0.1579
13299W        W29108   9.789  18.314  11.963  0.1144  0.0867 -0.2392
13300W        W29109  17.175  15.015   9.443  0.3341 -0.0833  0.2491
13301W        W29110  11.090  13.281  13.774  0.1740 -0.3576 -0.2586
13302W        W29111   2.707  16.785   2.817 -0.0471  0.1144 -0.0622
13303W        W29112   2.145  15.626   5.201 -0.1674 -0.1378  0.0128
13304W        W29113  15.655   5.211  12.091  0.1136 -0.3142 -0.1095
13305W        W29114  12.830   0.300  11.007  0.1012 -0.2190 -0.2559
13306W        W29115   7.272  15.440   5.076  0.0339  0.1287 -0.4339
13307W        W29116   4.096  11.219  13.285 -0.1173  0.5139 -0.0515
13308W        W29117   3.661  15.264   3.017 -0.1337  0.0419 -0.2953
13309W        W29118   1.402  14.877  10.964  0.0587 -0.0319  0.2592
13310W        W29119   1.864  18.110   0.955  0.0304 -0.0141 -0.2236
13311W        W29120  13.235  17.112   9.193  0.0794  0.1201  0.2187
13312W        W29121  17.459  18.625   3.672 -0.1460 -0.2873 -0.3563
13313W        W29122  11.926  11.560   3.189 -0.0639 -0.3304  0.0708
13314W        W29123  14.135   9.104   4.499 -0.2903  0.1068  0.0680
13315W        W29124   3.367  16.617   0.227 -0.0261  0.1046  0.0999
13316W        W29125  10.358  12.900  14.745  0.0455  0.0078  0.2636
13317W        W29126  16.797  15.334   3.123  0.2478 -0.1811  0.1627
13318W        W29127  10.118  10.663   2.946  0.0597  0.2048 -0.3019
13319W        W29128   4.534   0.684   3.542  0.1964 -0.0051 -0.0486
13320W        W29129  12.071  11.106   3.780  0.1345  0.1551  0.0670
13321W        W29130   5.050   9.192   5.778  0.3884 -0.0962  0.0044
13322W        W29131   9.996   6.958   4.325  0.1106  0.3140  0.0283
13323W        W29132   0.369  12.849  11.743  0.1067 -0.1987 -0.1681
13324W        W29133   8.890   4.324  15.557 -0.0150  0.0426  0.0364
13325W        W29134   3.118   8.285   3.403  0.4443 -0.0296 -0.1505
13326W        W29135  16.610  13.893   4.081  0.0162 -0.0581  0.1016
13327W        W29136   5.621   9.749   5.253  0.0433 -0.3482  0.2086
13328W        W29137   0.234  11.172   2.221 -0.2667 -0.0629  0.1887
13329W        W29138  18.061  14.550  12.778  0.3890 -0.3480 -0.0229
13330W        W29139  18.002   6.443   5.849  0.0260 -0.0901  0.0040
13331W        W29140   2.929  10.475   5.919 -0.1449  0.0240  0.0772
13332W        W29141   9.062   6.388  14.144  0.0710 -0.2064 -0.0693
13333W        W29142   9.025  10.956   5.221  0.0055 -0.1397  0.0343
13334W        W29143  14.809   9.014   3.447 -0.0386  0.1324  0.1289
13335W        W29144   5.220   2.437   2.161  0.1920  0.1022  0.2291
13336W        W29145  11.781   2.756   3.457 -0.6020 -0.0659  0.1293
13337W        W29146   8.061   5.350  12.171  0.3893  0.2037 -0.4142
13338W        W29147   1.021  17.864  11.249 -0.1656 -0.0772  0.1317
13339W        W29148   1.502  12.269   1.385 -0.1134  0.0624  0.1038
13340W        W29149   9.781  10.990   4.389 -0.0959 -0.3222 -0.0507
13341W        W29150   1.070   1.665   2.659  0.1409 -0.0516  0.0069
13342W        W29151   9.645  16.590   2.193  0.3047  0.0602 -0.1520
13343W        W29152  17.411  13.809  15.071  0.0317  0.1440 -0.4152
13344W        W29153  11.801   0.147   0.408 -0.5207  0.2272  0.2831
13345W        W29154   4.313   5.615  14.477  0.1903  0.0085  0.3444
13346W        W29155  12.833   3.766   0.846  0.2788 -0.1413  0.2632
13347W        W29156   3.708   5.508   0.948  0.0475 -0.3290 -0.1580
13348W        W29157  17.535  12.019  10.479  0.1792 -0.0656 -0.3816
13349W        W29158  18.397   0.356  13.872 -0.4188 -0.2320  0.1732
13350W        W29159   9.563  13.617  14.947 -0.1205 -0.2150 -0.2049
13351W        W29160  15.104   4.563   5.110 -0.3116 -0.0603  0.3488
13352W        W29161   3.611  15.937  14.134 -0.1386  0.2228 -0.0610
13353W        W29162   2.314   4.815  11.515 -0.1371 -0.0509  0.0631
13354W        W29163   3.636  12.774  12.723 -0.0047 -0.2040 -0.1492
13355W        W29164  12.314   3.452   3.770 -0.0776  0.0630 -0.2696
13356W        W29165  16.837   7.315   5.261  0.2484  0.2216  0.0421
13357W        W29166   6.036   9.368  12.370  0.1385  0.0692  0.5218
13358W        W29167  14.149   6.696   0.499  0.1243  0.2058 -0.0510
13359W        W29168   8.767  17.577  14.977 -0.1841  0.2915  0.4665
13360W        W29169   1.999  18.122  14.396 -0.1109 -0.1313  0.1937
13361W        W29170  14.078   0.942  13.630  0.2893 -0.2334 -0.0790
13362W        W29171  17.917   0.306  13.729 -0.1689  0.1007  0.0016
13363W        W29172   5.304   1.404   4.700  0.0883 -0.1823  0.0090
13364W        W29173   3.314  18.214  11.626 -0.0117  0.1186 -0.0031
13365W        W29174  12.332  12.139  13.348  0.0337  0.0394 -0.0717
13366W        W29175   8.551  11.140   5.074  0.2407 -0.1825  0.2138
13367W        W29176  13.152   1.892   2.199  0.1420  0.0156 -0.0660
13368W        W29177  10.168   4.059  12.280  0.2609 -0.0314 -0.0006
13369W        W29178  11.726   8.948  15.701  0.0044 -0.0370  0.4062
13370W        W29179  11.623  12.506   1.965  0.1080 -0.0913 -0.0624
13371W        W29180   1.786  16.616  13.908  0.0913  0.1675 -0.2482
13372W        W29181  16.715   4.818   2.249 -0.3599 -0.1887 -0.3210
13373W        W29182   4.222   2.339   4.462 -0.0496  0.3894 -0.3726
13374W        W29183   8.126  17.307  10.491  0.0507  0.1531  0.0938
13375W        W29184   1.868   5.477   3.550 -0.0991 -0.1052 -0.0213
13376W        W29185  15.536   8.066  13.998 -0.0546 -0.0857  0.1791
13377W        W29186   8.428   9.828   4.483  0.0165 -0.0244 -0.2576
13378W        W29187  13.472  11.977   1.823  0.2610  0.0920  0.1815
13379W        W29188  15.525   2.657  13.713 -0.3770 -0.1673  0.2835
13380W        W29189  18.136  10.508  11.286 -0.1005  0.2788 -0.2389
13381W        W29190  12.495   5.574   1.627 -0.1556  0.0359 -0.0333
13382W        W29191  14.305   4.581   2.304  0.1108 -0.3183 -0.0818
13383W        W29192  12.654  11.768   1.312 -0.0555  0.0597  0.0802
13384W        W29193   5.456   7.885  15.533 -0.0731 -0.0979 -0.1674
13385W        W29194  18.482  14.409  15.550  0.1669  0.0125  0.2213
13386W        W29195  11.581   2.703  15.386 -0.2989  0.2113 -0.1665
13387W        W29196   9.952   4.319  10.966  0.0105 -0.1817  0.1296
13388W        W29197   7.183  13.104  13.280 -0.1055  0.2088  0.0225
13389W        W29198   3.037  12.091   5.030  0.3055 -0.1081 -0.0400
13390W        W29199   5.882   2.887   3.190 -0.1907  0.1278  0.3175
13391W        W29200  15.506   2.505   3.473  0.0807 -0.3199 -0.1746
13392W        W29201   7.083   4.339  12.546 -0.0306  0.1507  0.1177
13393W        W29202  11.517  17.950  11.273 -0.2955 -0.0596 -0.1086
13394W        W29203  15.333   1.548   3.217 -0.0617 -0.1807  0.1671
13395W        W29204  12.186   5.164   4.446 -0.0700 -0.0542 -0.1837
13396W        W29205  11.369  15.615   2.364  0.0377  0.1105  0.0930
13397W        W29206  14.083   4.781  12.217  0.0581 -0.1745  0.1123
13398W        W29207  11.432   6.332  13.070 -0.0074  0.0548  0.2633
13399W        W29208   4.696   8.020   4.919 -0.3861 -0.0316  0.0502
13400W        W29209  12.426  14.188  10.990  0.0819 -0.0577 -0.0068
13401W        W29210   2.670  12.470  11.583 -0.0126  0.1149  0.0896
13402W        W29211   2.004  14.686  13.440  0.2959  0.1283 -0.1726
13403W        W29212   7.800   1.819  11.912  0.0672  0.1262 -0.0262
13404W        W29213  14.876   4.299   1.492  0.0598 -0.0239  0.2702
13405W        W29214   9.397  16.436  11.469 -0.1086  0.1945  0.0655
13406W        W29215  13.088  16.051  13.677  0.4496 -0.2954 -0.1052
13407W        W29216   9.346   4.152  10.211  0.2953  0.2593  0.0893
13408W        W29217   2.107   3.466  11.783 -0.1413 -0.0830 -0.0972
13409W        W29218  12.726   0.689   5.276 -0.1740  0.2115  0.2680
13410W        W29219  14.107  14.825   2.799  0.0941 -0.1233 -0.4199
13411W        W29220   6.566  13.632   0.049 -0.0436 -0.0678 -0.0225
13412W        W29221   4.031   7.998  12.821 -0.4084 -0.0372 -0.0025
13413W        W29222   9.189   1.641  15.326  0.3647  0.0008  0.2128
13414W        W29223  16.699  12.695   1.967  0.1601 -0.1868 -0.3265
13415W        W29224  12.568  18.453  11.338  0.0383  0.2981 -0.1789
13416W        W29225   4.480  14.208  11.012  0.4573 -0.1257 -0.2726
13417W        W29226   6.850  12.333  14.964 -0.1720  0.1112  0.0608
13418W        W29227   4.380   1.863  13.166 -0.0451  0.1681 -0.0584
13419W        W29228  11.656   1.162  11.531  0.3552  0.0033 -0.0433
13420W        W29229  17.190  11.228   0.586 -0.0646 -0.1389  0.2723
13421W        W29230   2.556   6.131   0.293 -0.1470  0.1708  0.0657
13422W        W29231   2.682  10.983  13.736  0.0456 -0.0680 -0.1427
13423W        W29232   4.164  14.500   1.955  0.1909 -0.3430 -0.0485
13424W        W29233   5.094  12.316   0.547 -0.1683  0.0340  0.3234
13425W        W29234  11.424   2.246  15.347  0.1905 -0.1161  0.2129
13426W        W29235  11.250  11.266   4.265 -0.2029  0.3045 -0.1137
13427W        W29236  14.973   2.163   0.982 -0.0779 -0.0176 -0.3111
13428W        W29237   6.807   8.848  14.951  0.2481  0.1428  0.3028
13429W        W29238  17.874  11.402   3.071 -0.1371  0.5681  0.1056
13430W        W29239   1.130  13.702   4.331  0.0707  0.2467 -0.3346
13431W        W29240   9.897  13.901  14.080 -0.2803  0.0008 -0.2171
13432W        W29241  16.977   0.834   5.521 -0.0886  0.0618  0.0014
13433W        W29242  14.427   4.501   4.088  0.1928  0.3285 -0.1985
13434W        W29243   7.538   9.902  12.978 -0.3580  0.1277  0.3783
13435W        W29244   9.257  10.694   0.841 -0.0749 -0.0602 -0.0620
13436W        W29245  15.253  12.610  11.208 -0.2029  0.1573 -0.0233
13437W        W29246   6.158   1.666  13.259 -0.0496  0.2940 -0.1152
13438W        W29247   8.509   3.894  11.586 -0.2820 -0.0211 -0.1484
13439W        W29248   3.240   9.597   2.926 -0.0333 -0.1104  0.1470
13440W        W29249   6.106  12.568  11.219  0.1225  0.0631 -0.3821
13441W        W29250   8.494  15.807   2.691 -0.2707  0.1008  0.2666
13442W        W29251   2.800  10.723   4.570 -0.1116 -0.1397  0.0399
13443W        W29252   0.369  16.754   3.939 -0.1366  0.1348  0.0480
13444W        W29253   5.629   7.334  13.189  0.3553 -0.2897  0.0025
13445W        W29254   7.502   0.694  15.450  0.0183  0.2796 -0.0712
13446W        W29255   0.596   2.010   1.386 -0.0424  0.0473  0.1134
13447W        W29256   7.737   6.697   3.167 -0.2092 -0.0302 -0.1010
13448W        W29257   8.244   9.899  13.125 -0.0149 -0.1475 -0.2575
13449W        W29258  15.128   2.759   0.559  0.1478 -0.1195 -0.2079
13450W        W29259  11.060  14.941   1.042  0.0239  0.1867 -0.1654
13451W        W29260   4.489  15.766   3.801 -0.3758 -0.3180 -0.1197
13452W        W29261  17.583   0.236   2.722  0.0023  0.0140 -0.0883
13453W        W29262   8.200  15.080  11.719 -0.0444 -0.2017 -0.0810
13454W        W29263  16.153  11.306  11.156 -0.0798  0.2546  0.1823
13455W        W29264   7.789  12.288  15.055 -0.0305 -0.0075 -0.1150
13456W        W29265  12.900  17.915   2.020  0.0029 -0.2520 -0.0522
13457W        W29266   1.433   9.691   1.961  0.3130  0.0002  0.0956
13458W        W29267  17.808  11.747   0.023 -0.0211  0.0863  0.0643
13459W        W29268  16.746   0.214   2.632  0.2039  0.0154 -0.2277
13460W        W29269   2.109   9.715  14.432 -0.1339  0.0117  0.1067
13461W        W29270   4.576   6.340  15.192 -0.0993  0.0498 -0.1954
13462W        W29271  12.574  12.305  11.630  0.0702  0.1719  0.0575
13463W        W29272   8.074  10.382  12.448  0.2263  0.1236 -0.2082
13464W        W29273   8.521  11.340   4.549 -0.2450  0.0149 -0.0790
13465W        W29274   6.254  15.608  13.401  0.0114  0.1443  0.0078
13466W        W29275  13.146   7.146   3.351 -0.0258 -0.0752  0.0387
13467W        W29276   9.387  16.079   1.875  0.0754  0.1423 -0.2383
13468W        W29277   3.450   5.040   0.583 -0.1405 -0.0523 -0.0680
13469W        W29278   6.933   4.236   4.247  0.1762  0.3975 -0.0634
13470W        W29279  13.312   0.671  12.156  0.0628  0.1627 -0.0201
13471W        W29280  13.300   2.818  14.620  0.3221 -0.0235  0.1134
13472W        W29281   9.015   4.891  15.548 -0.0021 -0.1036  0.1241
13473W        W29282  17.763   5.342  12.578  0.1336  0.3439 -0.0101
13474W        W29283   7.645   4.938   4.818 -0.2271 -0.2398  0.2471
13475W        W29284  18.577   0.632  11.118  0.0676  0.0821 -0.0261
13476W        W29285   6.688   8.714   1.947 -0.1560  0.1337 -0.0367
13477W        W29286  17.874   6.464   1.367 -0.3205 -0.2578  0.2481
13478W        W29287  17.297  17.591   2.701 -0.2326 -0.1031  0.0243
13479W        W29288   6.095   8.818  13.694 -0.1716  0.0581  0.0860
13480W        W29289   1.355   0.307  15.038 -0.2613 -0.0120  0.2275
13481W        W29290  17.620  12.858   3.495  0.4431 -0.2132 -0.3031
13482W        W29291   4.018  16.735   1.727 -0.3205  0.1388  0.0178
13483W        W29292  15.570   0.275   2.685 -0.0890 -0.1392  0.2333
13484W        W29293  15.315  14.871   5.156 -0.1534 -0.1308  0.1145
13485W        W29294   8.326  10.913   2.648 -0.2029 -0.3538  0.0280
13486W        W29295   7.971   0.971  11.369 -0.2409 -0.1503 -0.0122
13487W        W29296  12.435  13.407   2.796 -0.2613  0.0409 -0.1236
13488W        W29297  11.711   6.462   1.608 -0.1945 -0.2550  0.0588
13489W        W29298   8.415  18.144   2.437  0.2042 -0.1124 -0.2980
13490W        W29299  13.299   2.852  13.772 -0.0047 -0.2377  0.2938
13491W        W29300  10.415   8.032   2.531 -0.2347  0.0286  0.1164
13492W        W29301   8.907   7.464   1.344  0.2919 -0.0187  0.1428
13493W        W29302   7.545  16.737   1.379  0.2533 -0.0996 -0.0377
13494W        W29303  14.589  16.488  12.211 -0.0416 -0.1673  0.2825
13495W        W29304   0.568   7.888  11.018  0.1001  0.1617 -0.0194
13496W        W29305  12.229   6.263   5.043 -0.2787  0.1230  0.4758
13497W        W29306  16.724   8.490   4.626 -0.2403  0.0648 -0.3888
13498W        W29307   3.577   9.939   4.231  0.0136 -0.2402 -0.2276
13499W        W29308   7.952  18.651  11.063 -0.4317  0.0473 -0.0163
13500W        W29309   5.037   5.817  15.593  0.0022  0.0540 -0.2164
13501W        W29310   5.503   6.502   1.557 -0.1844 -0.1264  0.0662
13502W        W29311   8.292  10.063  12.140  0.1477  0.2188 -0.1850
13503W        W29312  17.859   8.622   3.929  0.1500  0.0322  0.1023
13504W        W29313  14.945   0.934   1.919 -0.0865 -0.0710  0.1653
13505W        W29314   1.622   1.329  14.608  0.2442  0.0066 -0.0280
13506W        W29315  11.612   1.393   1.263  0.0665  0.0479  0.0588
13507W        W29316   3.236   4.622   3.706 -0.1007  0.0607  0.1241
13508W        W29317   5.322  15.582  13.320 -0.0287  0.0784  0.2579
13509W        W29318   7.043   4.947  11.312 -0.1928  0.0112  0.4304
13510W        W29319   7.964  14.527   1.353 -0.1395 -0.1108  0.3041
13511W        W29320   7.549  13.649   0.158  0.0028  0.2500  0.1084
13512W        W29321   6.046   2.493  12.006  0.1004  0.1307  0.3917
13513W        W29322  10.878  11.069  12.802 -0.1525  0.0165  0.3600
13514W        W29323   6.730   6.537   5.379 -0.0934 -0.1903  0.1489
13515W        W29324   2.131   3.925   3.738  0.0672  0.2539  0.0653
13516W        W29325   0.076  14.184   0.522  0.2401 -0.2089  0.1090
13517W        W29326   7.772   3.134  15.420  0.2629  0.0099 -0.3698
13518W        W29327  11.775   5.632   0.873  0.0543 -0.0410  0.2610
13519W        W29328   4.379  13.309  13.217 -0.3308 -0.0441 -0.1185
13520W        W29329   4.898  14.476   5.012 -0.0641 -0.0367 -0.2810
13521W        W29330   6.513  15.216   2.252  0.0623 -0.0657  0.1112
13522W        W29331  14.740  15.965  14.492 -0.0722 -0.2135 -0.1668
13523W        W29332  17.330  15.242  10.766 -0.0137 -0.0583  0.2811
13524W        W29333  17.808  11.880  12.644  0.3061 -0.0164 -0.1940
13525W        W29334   5.361   9.788  15.685 -0.1968 -0.3381  0.2115
13526W        W29335   5.166  16.001   1.712  0.1008 -0.1071  0.0425
13527W        W29336   7.488   2.037  13.957  0.0930 -0.0235  0.4223
13528W        W29337  13.069   9.011  14.305  0.0971  0.2385  0.0403
13529W        W29338  15.470  11.231   4.169  0.0821 -0.3045  0.0500
13530W        W29339   9.869  16.489  12.861  0.0787 -0.1450  0.0303
13531W        W29340   9.067   7.485   2.731  0.1961  0.2338 -0.0603
13532W        W29341  14.416   5.797  13.733  0.3470  0.0392  0.4085
13533W        W29342  10.775  10.418  13.553  0.1591  0.1510 -0.1246
13534W        W29343  10.118   3.591  11.268  0.2502 -0.0734 -0.1106
13535W        W29344  18.244   7.522   3.396  0.1211 -0.0514  0.0542
13536W        W29345  13.363   6.797   3.853  0.1618 -0.0372 -0.2338
13537W        W29346   9.813   5.069  14.359  0.6036 -0.0403  0.0989
13538W        W29347  16.129  14.149   0.363  0.0531  0.1050 -0.3791
13539W        W29348  10.751  10.488  14.405 -0.3425 -0.0835 -0.0280
13540W        W29349   9.465   0.165  14.945  0.0493  0.0133 -0.1846
13541W        W29350   0.347   3.741  13.149  0.1253 -0.2314 -0.1668
13542W        W29351   6.872   8.160  13.788 -0.1478  0.0480  0.0517
13543W        W29352   6.841   0.731   4.448 -0.1112 -0.1863  0.0701
13544W        W29353  14.534  15.841   1.375 -0.0220  0.0412  0.2277
13545W        W29354  10.044   2.217   2.349 -0.0390  0.3358 -0.0353
13546W        W29355   7.948   9.225   0.380  0.1153  0.0476 -0.0618
13547W        W29356  16.243  17.403  12.376  0.2199  0.0637  0.0230
13548W        W29357  16.704   6.707   0.304 -0.1147 -0.1516 -0.0723
13549W        W29358   9.284   1.708  11.874 -0.2039 -0.0749 -0.1386
13550W        W29359   6.862   7.187   0.768 -0.0519  0.2854  0.0016
13551W        W29360   9.656  16.219   1.355 -0.2024 -0.0245 -0.3570
13552W        W29361   2.555  13.955   5.124  0.0694  0.2924 -0.1666
13553W        W29362   4.426   9.756  15.287  0.1460 -0.2130  0.0734
13554W        W29363  16.800   3.190   2.448  0.2141 -0.0014  0.2209
13555W        W29364   6.257   2.996  12.136  0.0808 -0.0196 -0.0552
13556W        W29365   8.386  16.503   3.282  0.0466 -0.4547  0.1129
13557W        W29366  10.532   0.594   2.006 -0.2426 -0.0702 -0.0411
13558W        W29367   1.971   4.000  11.758  0.1920 -0.3299 -0.0631
13559W        W29368   6.566   8.912  13.900  0.1640 -0.3373  0.2462
13560W        W29369  15.691   6.996   0.571  0.3272  0.0191  0.1992
13561W        W29370  10.398   6.812  12.587 -0.0271  0.0864  0.0337
13562W        W29371   9.034  17.442  13.789 -0.0460  0.0054  0.1848
13563W        W29372   9.857   6.188  11.169 -0.1314  0.2362  0.1152
13564W        W29373  14.132  14.179  12.478  0.0643 -0.1437  0.3667
13565W        W29374  13.400  18.533   1.899 -0.3012  0.1307  0.1194
13566W        W29375   4.721  14.355   0.144  0.2203  0.1139  0.1297
13567W        W29376   9.733   7.928   4.025 -0.1331 -0.0789  0.0939
13568W        W29377  17.801  16.375  12.066  0.0150  0.1184 -0.0559
13569W        W29378   4.209  15.554  10.810  0.1216 -0.1958 -0.0485
13570W        W29379  18.067  11.423   3.544  0.3209 -0.0353  0.0871
13571W        W29380   2.747  10.978   4.033  0.0129 -0.0515  0.2775
13572W        W29381  16.802  14.060  11.421 -0.3355 -0.0531 -0.3225
13573W        W29382  12.628   4.995   0.596  0.0565 -0.1970 -0.0050
13574W        W29383   4.852  18.454   1.836  0.2017 -0.1880 -0.0311
13575W        W29384   0.959   8.809  11.068 -0.1176  0.1105  0.0487
13576W        W29385   5.812  11.768  12.058  0.1400 -0.0328  0.0316
13577W        W29386  17.912   4.537   2.463  0.1622 -0.0165 -0.0529
13578W        W29387   0.085  15.119   9.653 -0.0030  0.0655 -0.0299
13579W        W29388  17.011   3.960   2.585 -0.0626 -0.0966 -0.3825
13580W        W29389  18.353   6.061   0.615  0.1838  0.2486  0.0134
13581W        W29390   2.700  15.303  13.376  0.1606 -0.1320 -0.0037
13582W        W29391  18.526  17.782   2.314 -0.0070 -0.0224  0.0626
13583W        W29392  12.397  14.285   5.305  0.1323  0.4596 -0.0562
13584W        W29393  18.654  12.094   0.370  0.3007  0.0970 -0.0311
13585W        W29394  14.074   7.425   2.515  0.0783  0.0265  0.1803
13586W        W29395  13.952   5.910  14.303  0.1216 -0.4114 -0.1961
13587W        W29396   2.879   6.639  10.854 -0.0446  0.2280 -0.0498
13588W        W29397   9.277  10.316  12.539  0.0205 -0.0263 -0.0296
13589W        W29398  14.969   1.313  14.614  0.1844 -0.1187 -0.2135
13590W        W29399  13.616  17.362   1.009 -0.1284  0.1583 -0.3102
13591W        W29400   0.091   8.287  14.929  0.3981 -0.0946  0.0351
13592W        W29401   3.439  13.048   2.594 -0.0453 -0.4033  0.2022
13593W        W29402   0.654  16.765  10.714  0.0209 -0.2379  0.0427
13594W        W29403  12.159  10.952   5.774 -0.3408  0.4008 -0.1952
13595W        W29404   3.963   0.417   2.705  0.0191 -0.1349  0.2572
13596W        W29405  11.559  17.539   2.877 -0.0722  0.0177  0.2970
13597W        W29406  17.650  11.328   0.817 -0.1677 -0.1042  0.1976
13598W        W29407  12.833   5.752  14.528  0.0183  0.1243  0.1250
13599W        W29408  12.519   0.064   3.568 -0.2904  0.0582  0.2196
13600W        W29409   9.056   2.579  13.011  0.0589  0.1862 -0.2022
13601W        W29410   3.115  12.504  13.934 -0.0780  0.1388 -0.5224
13602W        W29411  14.081   0.131  10.599 -0.2851 -0.0584 -0.0841
13603W        W29412  10.078   1.165   0.101  0.4053 -0.1560  0.0760
13604W        W29413   8.452   0.821  12.646  0.0763  0.1174 -0.2156
13605W        W29414  10.795  17.237   4.633 -0.2395  0.1018  0.1633
13606W        W29415  18.024  18.556  13.949  0.0765 -0.0905 -0.2352
13607W        W29416   1.831  14.758   3.915 -0.0378  0.1200 -0.1044
13608W        W29417   6.312   6.443  15.513  0.2509  0.4388 -0.0978
13609W        W29418  15.690  12.753   3.220  0.2225  0.0499  0.0204
13610W        W29419   3.406   1.680   2.647  0.3434  0.0207  0.2465
13611W        W29420  16.167   9.627   1.391 -0.1042 -0.0149 -0.0332
13612W        W29421  10.347   7.661  10.956 -0.0591  0.1413  0.3806
13613W        W29422   2.335  13.163  15.515 -0.0323 -0.2507  0.0758
13614W        W29423   7.312   6.861   2.876  0.0774  0.1176 -0.3999
13615W        W29424   8.220  15.837  12.188 -0.2178  0.1395  0.1097
13616W        W29425  14.358   5.247   1.604  0.2844 -0.1402 -0.2210
13617W        W29426  13.825  17.629  10.757 -0.2349  0.0414 -0.0127
13618W        W29427  17.627   6.930   3.275 -0.0464 -0.3973  0.3297
13619W        W29428  14.485   3.433  10.864  0.0739  0.1373 -0.0308
13620W        W29429  18.184  16.811  15.497  0.1543 -0.3025  0.0878
13621W        W29430  15.727  12.721   5.164  0.0258  0.2141  0.2053
13622W        W29431   5.078   4.005   4.460  0.1384 -0.0750  0.0158
13623W        W29432   1.522   9.102   4.256  0.4050 -0.3145  0.3016
13624W        W29433   3.192  10.047  13.466  0.0209 -0.0263 -0.2606
13625W        W29434  11.996  10.827  12.478 -0.1941 -0.1748  0.0838
13626W        W29435   1.758  17.805  13.945  0.0769  0.0839 -0.3005
13627W        W29436  16.710  13.462   0.732 -0.1704  0.1777 -0.0657
13628W        W29437  17.829   3.776   1.384  0.3062 -0.0841 -0.1620
13629W        W29438   8.067   6.872   2.471 -0.4505 -0.1590 -0.1791
13630W        W29439   9.860   4.450  12.361  0.0531  0.0741 -0.0378
13631W        W29440  11.181   6.858   0.094 -0.0965 -0.3818  0.0311
13632W        W29441   9.101  18.140   4.835 -0.0415 -0.2461 -0.1393
13633W        W29442  14.525   2.944  14.436  0.0323  0.3030 -0.3238
13634W        W29443   6.304  17.425  12.786 -0.1370  0.2029 -0.0507
13635W        W29444   1.302  10.580   5.790 -0.0004 -0.0473  0.2330
13636W        W29445   1.405   6.533  15.139 -0.0336  0.0814  0.0896
13637W        W29446  12.267  11.593   2.848 -0.1079 -0.1387 -0.2177
13638W        W29447  18.287   0.749  13.488  0.0501  0.1141  0.0835
13639W        W29448   7.262  15.460  13.236 -0.0336 -0.2284 -0.1393
13640W        W29449  14.731   2.396  15.118  0.1094  0.3189  0.1390
13641W        W29450   0.691   4.853   2.722 -0.1976 -0.1875  0.0963
13642W        W29451   8.565   6.350   5.579 -0.3003  0.0707  0.2731
13643W        W29452  13.390  12.534   2.229 -0.0075  0.0817  0.1131
13644W        W29453  17.751   8.097  15.001  0.1323  0.3337  0.3526
13645W        W29454   3.066  16.451   3.079 -0.0553  0.1872 -0.1011
13646W        W29455   8.738   2.417   2.719 -0.1596  0.1649  0.2498
13647W        W29456   0.169  16.183  12.901 -0.1482 -0.0082 -0.2847
13648W        W29457  15.322  10.333   1.380  0.0053 -0.0432 -0.0597
13649W        W29458  15.585   5.255   1.940 -0.1777  0.2555 -0.3286
13650W        W29459   7.317   4.831  12.512  0.4805  0.1434 -0.1193
13651W        W29460   1.083   1.938   3.769  0.0123  0.2425  0.4993
13652W        W29461   5.796  16.745   5.322 -0.0373  0.2647  0.0077
13653W        W29462   4.324   6.297  12.102 -0.1689  0.0691  0.1493
13654W        W29463   2.962   9.563   2.152 -0.1736  0.1935  0.2293
13655W        W29464  16.874  15.776  14.565  0.0712 -0.0308 -0.1887
13656W        W29465  11.898  16.934   2.283 -0.1301  0.1760 -0.0060
13657W        W29466  10.843   9.899  12.182 -0.4167 -0.4958 -0.0034
13658W        W29467   5.157   0.223   2.104  0.1164  0.0463  0.1116
13659W        W29468   8.148   0.969   3.295 -0.1432 -0.2204  0.0569
13660W        W29469   4.887  14.204  12.370  0.1001 -0.1281 -0.1183
13661W        W29470   0.739   1.793   2.980  0.2999  0.4842  0.1539
13662W        W29471  16.993  15.356  11.156  0.1960  0.0100 -0.0193
13663W        W29472  17.162   7.854  12.978 -0.0860  0.1556  0.0193
13664W        W29473  17.405  16.305  13.356  0.3004 -0.1832 -0.1348
13665W        W29474  14.517   3.610  13.826  0.2098  0.0035 -0.1025
13666W        W29475   7.970   1.484  15.368  0.1545  0.1881  0.1936
13667W        W29476   3.245  15.303   2.551 -0.3043  0.0526 -0.0550
13668W        W29477  14.607   6.811   1.873 -0.1889 -0.0961  0.0097
13669W        W29478   0.491   5.960   0.177 -0.1062  0.2015  0.0923
13670W        W29479  16.664   3.464   2.825  0.1627  0.1000 -0.0648
13671W        W29480  16.013  16.521   4.510  0.0433 -0.3113 -0.2905
13672W        W29481  10.637   5.291   2.094 -0.1890 -0.2398  0.0246
13673W        W29482  10.747  16.873  11.467  0.0111 -0.2281 -0.2656
13674W        W29483  14.844   5.159   3.578  0.1843  0.2106 -0.0520
13675W        W29484   9.226  15.161  11.555  0.1631 -0.1205 -0.0164
13676W        W29485   2.709   5.618  12.131 -0.2334 -0.3235 -0.0760
13677W        W29486  17.498   6.009   1.311 -0.2613 -0.1604  0.2873
13678W        W29487  10.320   6.422  13.270  0.0001 -0.3046 -0.3287
13679W        W29488  11.537   3.706   0.469  0.0420 -0.2462 -0.1026
13680W        W29489   4.421   8.592  13.366 -0.2477  0.2610 -0.3242
13681W        W29490   9.316   9.867  14.627  0.1505  0.0705 -0.2298
13682W        W29491   4.913   2.430  10.907  0.1837  0.0808  0.2758
13683W        W29492   7.859   2.174   2.939  0.0010  0.1372  0.1719
13684W        W29493  17.637   6.278  15.123  0.0676 -0.0634  0.3294
13685W        W29494  12.728  14.149   0.907 -0.0008  0.1956  0.2654
13686W        W29495  14.801  17.496   9.850  0.0303 -0.1381  0.2306
13687W        W29496   1.789  16.369  14.856 -0.0518 -0.1009  0.4895
13688W        W29497   6.986  18.090  11.336 -0.1575  0.1093  0.4524
13689W        W29498   6.925   5.823   2.802 -0.2012 -0.0647  0.1626
13690W        W29499  12.457   3.364  13.544  0.1653  0.0814 -0.0395
13691W        W29500  17.628  12.211  13.608 -0.0100  0.1007 -0.1810
13692W        W29501  13.875  16.045   4.600 -0.0731  0.0982 -0.0981
13693W        W29502  16.737   1.708   3.569 -0.4338  0.2097  0.0334
13694W        W29503   7.808  14.479  13.109 -0.0361  0.0641 -0.2214
13695W        W29504  10.765  11.552   3.078 -0.3296 -0.0200  0.1074
13696W        W29505   8.691  12.058   2.375 -0.2389  0.1677  0.1438
13697W        W29506  18.119   6.884  13.518 -0.0592 -0.1605 -0.2056
13698W        W29507   2.438   8.739  11.438 -0.1526 -0.0521  0.0296
13699W        W29508   6.974  15.413   2.208  0.1550  0.1827 -0.1193
13700W        W29509   2.069  12.473   0.367 -0.2779 -0.1978 -0.0394
13701W        W29510  12.952   0.795  14.896 -0.0739  0.2426  0.4399
13702W        W29511  17.386   2.196   0.893 -0.0574  0.2643 -0.2954
13703W        W29512  15.529   3.902   1.583  0.2262 -0.1081 -0.2143
13704W        W29513   8.408   2.819   5.066 -0.3099  0.0551  0.1175
13705W        W29514   8.944  16.615  13.371  0.0287 -0.1543  0.3414
13706W        W29515   0.770  18.197  14.314 -0.3004  0.2264 -0.2925
13707W        W29516   0.022  10.896  14.540  0.2112 -0.1899  0.0114
13708W        W29517  17.368  18.059  12.162  0.2118  0.0344  0.0197
13709W        W29518  11.523   9.444   3.191 -0.1387  0.3142  0.1665
13710W        W29519   5.256  11.642  12.604 -0.0603  0.2429  0.0621
13711W        W29520   8.795  15.728   0.315  0.1551 -0.0939 -0.3063
13712W        W29521   6.426  13.378  10.821  0.0180 -0.1548  0.1111
13713W        W29522   8.228   2.318   2.577 -0.2896  0.0511  0.0869
13714W        W29523   8.171   5.382   5.553  0.0675 -0.3689  0.0897
13715W        W29524  18.380  12.628   5.105  0.0788  0.0103  0.0155
13716W        W29525  17.454  13.217  13.115  0.1763 -0.2206 -0.2260
13717W        W29526   5.551   7.491   2.196  0.0844  0.1265  0.1287
13718W        W29527  11.247   0.639   0.476 -0.0714 -0.3173  0.3502
13719W        W29528  12.805   9.862   0.353  0.0382  0.0043  0.0232
13720W        W29529  13.395   9.780   3.589 -0.0651 -0.1897 -0.2735
13721W        W29530   8.474  17.950  10.960  0.0971  0.0900  0.0123
13722W        W29531  11.792   1.017   2.527 -0.4830 -0.2002  0.0756
13723W        W29532  17.956  14.307  10.597  0.1892  0.1174  0.1553
13724W        W29533  13.282   3.670  11.926  0.3055 -0.1466 -0.1361
13725W        W29534  12.593   8.424  15.449 -0.4223 -0.0251  0.1877
13726W        W29535  10.714  10.995  15.585 -0.4610 -0.4782 -0.2281
13727W        W29536   5.749   8.500  12.279  0.0951 -0.0429 -0.4987
13728W        W29537  12.182   1.039   9.532 -0.0949  0.2187  0.0940
13729W        W29538  15.725  12.443   1.395  0.1603 -0.2356  0.0076
13730W        W29539  14.464   2.737   2.130  0.0298  0.2386  0.0752
13731W        W29540  10.600   3.351   4.529  0.1698  0.0208  0.0038
13732W        W29541   7.900  16.821   2.978  0.0692  0.2782 -0.2606
13733W        W29542  14.144   2.744  12.716  0.1016  0.2850 -0.1145
13734W        W29543   5.599  16.534  12.878 -0.6125 -0.0556  0.5799
13735W        W29544   3.087   3.686  14.670  0.2101  0.1387  0.0178
13736W        W29545  11.106   7.458  13.468 -0.3805  0.0853  0.2007
13737W        W29546   2.462  11.867   0.367  0.3424  0.1387 -0.0287
13738W        W29547   4.353   5.387  15.465 -0.4503  0.1867  0.0710
13739W        W29548  10.854   1.473  11.089  0.4798  0.0625 -0.1342
13740W        W29549   4.197   1.558   3.112 -0.0190  0.0060  0.0915
13741W        W29550   0.509  18.255  12.622  0.2073 -0.0836 -0.2544
13742W        W29551   8.213   3.833  12.994  0.1725  0.3766 -0.0037
13743W        W29552  11.602  16.772  10.783  0.0247 -0.0799  0.3008
13744W        W29553   2.007   7.263   5.513 -0.1957  0.2991  0.1113
13745W        W29554  15.232  12.414  15.158 -0.1112  0.2379 -0.0619
13746W        W29555   4.973   3.804   1.620  0.0117  0.0220  0.0196
13747W        W29556  14.523  17.895   0.075 -0.2281 -0.2111 -0.0746
13748W        W29557  15.928   2.244  14.407 -0.3065  0.0649  0.2444
13749W        W29558   4.104   6.726   0.199 -0.1246 -0.0081  0.3090
13750W        W29559   8.464   2.814   0.667 -0.2839  0.3202 -0.0340
13751W        W29560  14.297  14.727  15.043 -0.0627  0.1651 -0.2899
13752W        W29561   9.405   1.816  12.621  0.2457 -0.0404 -0.0255
13753W        W29562  13.269  17.989  11.732  0.0451  0.3291 -0.0342
13754W        W29563   6.734  10.638  11.526 -0.1402 -0.1716 -0.0458
13755W        W29564  18.061  16.979   1.010 -0.1874 -0.1541 -0.0670
13756W        W29565  17.685   6.905  14.666 -0.1315 -0.0730 -0.1392
13757W        W29566  13.118  10.830   2.555  0.0403 -0.0150 -0.1577
13758W        W29567  15.727   1.569  12.161 -0.2266 -0.1105  0.5562
13759W        W29568  15.008  10.102   4.138 -0.0371 -0.1617 -0.0431
13760W        W29569   4.468   6.677  13.454 -0.0351  0.1118 -0.1072
13761W        W29570  17.382  15.696  11.031 -0.1919 -0.0097  0.1051
13762W        W29571   6.851   2.111   9.845 -0.0583  0.2893  0.2154
13763W        W29572   2.752   7.688   1.441 -0.4106  0.2721  0.0715
13764W        W29573   7.610  15.877  12.852 -0.0025 -0.0104  0.0361
13765W        W29574   5.948   8.578   5.091 -0.2557  0.0168 -0.0171
13766W        W29575   4.218   4.806  12.595 -0.0119  0.1032  0.1257
13767W        W29576  12.518   2.684  14.446 -0.0577  0.1910 -0.0349
13768W        W29577  13.026   7.547   4.720 -0.0753 -0.2185  0.3566
13769W        W29578   9.520   5.063   3.455 -0.2794 -0.0527  0.1635
13770W        W29579  16.913   2.111   2.775  0.2501  0.0636 -0.2311
13771W        W29580  10.345  12.041   1.374  0.0228 -0.1614 -0.1512
13772W        W29581   6.455   8.143  12.062  0.1333  0.1184 -0.1109
13773W        W29582   0.260  18.048   3.022  0.0126 -0.5633  0.0629
13774W        W29583   6.714   2.212  13.640 -0.3979 -0.1317 -0.1286
13775W        W29584  13.399  15.246  11.200  0.1944  0.2806 -0.0520
13776W        W29585   3.756   4.893  10.358 -0.0732 -0.0566  0.4323
13777W        W29586   6.012  13.739  12.065 -0.1996 -0.1293 -0.0313
13778W        W29587  17.397  11.810  12.923 -0.1032 -0.1155 -0.0283
13779W        W29588   0.006  13.020   5.734  0.0433  0.2285  0.1711
13780W        W29589   2.145   5.720  14.907 -0.1490  0.0123 -0.0641
13781W        W29590  10.143  12.742   3.632 -0.4238 -0.3419 -0.1664
13782W        W29591  12.843   7.970   5.417 -0.0734  0.4059  0.0711
13783W        W29592  11.572   4.434   2.992 -0.3499  0.0468 -0.0053
13784W        W29593  17.294   9.041  14.653 -0.1790 -0.0814 -0.0184
13785W        W29594  14.065  18.246  15.733 -0.0398 -0.0051  0.2576
13786W        W29595   3.261  18.321  13.158  0.2033  0.2586  0.1122
13787W        W29596   7.881  10.512  12.913  0.2035 -0.0853  0.0545
13788W        W29597   5.801  10.309   4.465 -0.1695 -0.2068 -0.0219
13789W        W29598   0.601   4.183   1.952  0.0449  0.0216  0.2027
13790W        W29599  15.039   4.522  14.538  0.1223  0.0827 -0.1909
13791W        W29600  16.249   4.402   3.054  0.2165 -0.0683  0.0582
13792W        W29601  16.854   8.716  12.631  0.2379 -0.1735  0.3736
13793W        W29602   7.721   5.387   4.660  0.1240  0.1320  0.4863
13794W        W29603   9.056  15.545   4.036 -0.0280 -0.1939  0.0662
13795W        W29604   1.350   4.510  12.211 -0.1667 -0.2043  0.0455
13796W        W29605   0.765  15.920   4.610  0.1114 -0.0553 -0.1817
13797W        W29606   9.619   8.116   2.872  0.0756 -0.2402 -0.2110
13798W        W29607  10.535   1.947   4.673  0.1623  0.0368  0.1099
13799W        W29608   4.251   0.833   2.048 -0.1576 -0.0207  0.3376
13800W        W29609  10.555  14.794   3.433  0.0157 -0.1920  0.0348
13801W        W29610   6.372   0.236   1.602  0.1340 -0.0402  0.4755
13802W        W29611  16.198  17.507   4.095  0.3125  0.0743  0.4840
13803W        W29612   9.963  10.497  12.928  0.1590  0.0620 -0.0027
13804W        W29613   9.890   6.169   4.282  0.2541  0.3046  0.2760
13805W        W29614  10.447   8.494   6.222 -0.1494  0.1592  0.2875
13806W        W29615   2.088  14.450  12.657 -0.0000  0.1556  0.1784
13807W        W29616   4.558   7.316  12.599 -0.2525 -0.1991  0.3070
13808W        W29617  13.006   0.279  12.465  0.0382 -0.0797 -0.0618
13809W        W29618  15.135  15.497   3.684 -0.2302  0.0950 -0.1513
13810W        W29619  16.237  12.144   1.236 -0.2047 -0.0528 -0.0394
13811W        W29620   7.312  14.142  12.235  0.0311 -0.2898  0.0807
13812W        W29621  11.792  11.832  15.168  0.2791 -0.2187 -0.1412
13813W        W29622  18.368   7.264   1.503 -0.3113  0.0699 -0.0269
13814W        W29623  17.889  18.646  11.673  0.0394  0.4104  0.1550
13815W        W29624  14.865   1.928   4.167 -0.3072 -0.2734 -0.0124
13816W        W29625  11.255  16.054   4.479  0.1218 -0.3126 -0.1010
13817W        W29626   5.256   3.115   5.404  0.0816  0.0114  0.1656
13818W        W29627   9.343  14.802  13.315  0.0011  0.3668 -0.2969
13819W        W29628  11.258   0.907  12.015  0.4604 -0.2073  0.1532
13820W        W29629   1.391  10.432  15.622  0.0599  0.1846 -0.3234
13821W        W29630   3.320  13.849  12.162 -0.3694 -0.0398  0.0200
13822W        W29631   0.386  13.856   3.625 -0.0507  0.0112  0.0622
13823W        W29632   3.809  11.255  11.556 -0.1706  0.0313  0.0144
13824W        W29633  11.038   4.622   1.539 -0.0626 -0.0407 -0.3577
13825W        W29634  14.730  10.362   4.538 -0.0665 -0.1905 -0.1191
13826W        W29635  16.437   1.314  10.269  0.3154 -0.4637 -0.2039
13827W        W29636  17.902   9.772  12.983  0.2796  0.3118  0.4217
13828W        W29637  12.610   6.527  14.978 -0.0781  0.0948 -0.4635
13829W        W29638  17.170  12.708   2.023 -0.1177 -0.1259  0.1857
13830W        W29639   7.939   1.540   2.143 -0.0453 -0.0768  0.0863
13831W        W29640   8.205   8.042   4.791  0.1304  0.1131  0.1304
13832W        W29641  14.164  11.934  15.192  0.1124  0.3782  0.1653
13833W        W29642  10.939  15.059  14.522 -0.0514 -0.3346 -0.1406
13834W        W29643  18.373  17.873   3.219  0.0080  0.2146  0.1080
13835W        W29644  10.863   1.221   1.060  0.4471 -0.3446 -0.0431
13836W        W29645   9.340   7.200  15.220  0.0066  0.1986  0.2381
13837W        W29646  16.534  17.999  15.419  0.1540 -0.1804 -0.0386
13838W        W29647  13.250   0.446  13.943  0.1131  0.0709 -0.0493
13839W        W29648   0.949   7.168   2.288 -0.2271  0.2130 -0.2637
13840W        W29649   3.238   3.044  14.264  0.1502  0.0580  0.0276
13841W        W29650   3.457   7.552   0.329  0.1430 -0.1476 -0.0962
13842W        W29651  14.427   0.965  10.533 -0.0386 -0.0535  0.0563
13843W        W29652  14.943  11.358   0.738  0.1188  0.0737 -0.0082
13844W        W29653   3.773  15.380  11.889  0.0180  0.0131  0.4672
13845W        W29654   3.727   3.466  13.804  0.2691 -0.1185  0.0559
13846W        W29655  12.237  11.020   4.235 -0.1290  0.2908 -0.1485
13847W        W29656   5.871   1.046   3.696 -0.0693  0.2672  0.3254
13848W        W29657   0.332   5.288   4.790 -0.3039 -0.1218  0.1589
13849W        W29658  15.350   0.020  10.794  0.1936 -0.5116  0.1381
13850W        W29659   6.470  17.853   3.961  0.0506 -0.2660  0.0302
13851W        W29660   9.946  15.641  13.731 -0.2164  0.1822 -0.1758
13852W        W29661   8.753   5.662  13.922  0.0095  0.1330  0.1558
13853W        W29662  15.155  18.125  14.130  0.0188  0.0025 -0.0390
13854W        W29663   4.714  13.575  15.053 -0.3147  0.2347 -0.2733
13855W        W29664  13.713   1.211   1.030  0.1059 -0.2744 -0.1917
13856W        W29665  10.470   5.299  15.214 -0.1072 -0.0050  0.1139
13857W        W29666  18.613   4.362  14.790 -0.3717 -0.0622  0.1894
13858W        W29667   9.367   8.271  12.396  0.4272  0.0110  0.3163
13859W        W29668  10.384   2.118  11.632  0.1104  0.2287  0.0107
13860W        W29669   6.759   7.894  15.355 -0.1888 -0.3091 -0.1321
13861W        W29670   6.816   7.606  11.083 -0.0682 -0.0938  0.3621
13862W        W29671  18.653  13.593   5.127 -0.1064  0.0115 -0.0389
13863W        W29672   8.955   6.871  15.461  0.6644  0.1357  0.0529
13864W        W29673  10.895   1.036  15.136 -0.0998 -0.0101 -0.2309
13865W        W29674  15.644  12.277  11.374 -0.0864  0.2398  0.2208
13866W        W29675  17.066   0.441  11.307 -0.1877  0.1398  0.0636
13867W        W29676  18.333  16.496  12.831 -0.2668 -0.0280 -0.0295
13868W        W29677   4.402   7.981   2.590  0.1516 -0.0694  0.0041
13869W        W29678   4.549  13.984   3.240 -0.1272 -0.1778 -0.0284
13870W        W29679   4.118   6.164   3.994 -0.0279 -0.0614 -0.0112
13871W        W29680   1.601   2.363  11.026 -0.2023 -0.0154 -0.1811
13872W        W29681   0.799  14.777   3.817  0.2130 -0.1469 -0.0779
13873W        W29682  11.941   8.917  11.860 -0.3241  0.0438  0.1082
13874W        W29683  13.761   4.922  11.414  0.1488 -0.2247 -0.2661
13875W        W29684   9.054   6.950   1.427 -0.0873 -0.1962  0.3695
13876W        W29685  17.109   3.638  12.835 -0.1366 -0.0203  0.0088
13877W        W29686  12.145   4.584  13.090 -0.1007 -0.3714 -0.0013
13878W        W29687   5.250   6.952   5.759  0.2058  0.2607 -0.1843
13879W        W29688   6.904   5.371  13.609  0.0792  0.0205  0.1633
13880W        W29689  10.679  17.641   4.887  0.2809 -0.1160 -0.0118
13881W        W29690   0.733  16.003   4.105  0.1715 -0.1895 -0.0770
13882W        W29691  15.124  17.962   3.081 -0.0089 -0.0790 -0.1199
13883W        W29692   2.945  14.271   9.890  0.1120  0.2378  0.1821
13884W        W29693   4.960   4.506   5.345  0.0506  0.1221  0.1602
13885W        W29694  15.413   9.776  11.197 -0.4283  0.0915 -0.1395
13886W        W29695  17.855  11.496   6.088 -0.0037 -0.0912 -0.1507
13887W        W29696   1.612  13.061  11.614  0.1495 -0.4216 -0.1489
13888W        W29697  16.000   5.960  11.908  0.1738 -0.2284 -0.1613
13889W        W29698   2.219   0.243   4.483  0.0766  0.0096 -0.1058
13890W        W29699   8.547   5.069   3.628  0.1990 -0.2663  0.3875
13891W        W29700  17.064  10.892  13.302 -0.0692  0.1001  0.0925
13892W        W29701  15.706   2.094   0.900 -0.0336 -0.2499  0.0345
13893W        W29702  15.056   7.912   4.912  0.0126 -0.0426 -0.3595
13894W        W29703   2.202  13.991   4.693 -0.0022 -0.0921  0.0433
13895W        W29704   5.712  12.817   2.868 -0.0832  0.4241 -0.1342
13896W        W29705  17.356   2.510  11.648 -0.1035  0.3857 -0.0243
13897W        W29706   1.025   5.231  12.956  0.1484 -0.1656 -0.2664
13898W        W29707   0.420   6.662   5.189  0.0690  0.0362  0.0291
13899W        W29708   0.582  13.643  15.134  0.2717  0.2314 -0.0014
13900W        W29709  18.231   3.843   1.943  0.1461 -0.0206 -0.0435
13901W        W29710  13.981  14.768   0.090  0.2890  0.1033  0.1415
13902W        W29711   3.564  15.996  15.178 -0.1143 -0.0735  0.0762
13903W        W29712   0.792  12.765  11.428 -0.0543  0.0120 -0.1252
13904W        W29713   9.779   0.191   0.077 -0.4617 -0.1989  0.0555
13905W        W29714  15.169   8.442  11.440 -0.0889 -0.1110 -0.2799
13906W        W29715   0.803  12.423  12.452  0.1395 -0.2731  0.1712
13907W        W29716   4.957   1.968  11.764  0.0014  0.2419  0.1727
13908W        W29717  13.915   6.595  13.191 -0.4463  0.2025  0.2479
13909W        W29718  15.217  10.296  14.467 -0.1757 -0.0989 -0.0783
13910W        W29719   3.428   5.583  14.409  0.2580  0.1330  0.3006
13911W        W29720  17.408   9.594   2.219  0.1573 -0.1447 -0.2733
13912W        W29721   4.802  10.119  14.362  0.1028 -0.0069 -0.1094
13913W        W29722  16.840  16.967  11.846 -0.2073 -0.2851  0.1607
13914W        W29723  14.453  15.253  15.155  0.1375 -0.0055 -0.1824
13915W        W29724   7.162   1.400  12.980 -0.1212 -0.2684  0.1927
13916W        W29725  14.916   8.727   2.574  0.0205 -0.3524  0.0661
13917W        W29726  17.803  11.976   4.904  0.0665 -0.0694 -0.1346
13918W        W29727   2.955   3.434  11.158  0.0036  0.1493  0.0335
13919W        W29728   6.163   8.214  14.891 -0.0407 -0.2392  0.1370
13920W        W29729  10.435   3.837   1.211 -0.3652  0.0253  0.3884
13921W        W29730  13.569  15.650  12.020  0.0045 -0.2933 -0.2760
13922W        W29731   2.525   9.974  12.751 -0.2323 -0.0045  0.0446
13923W        W29732   0.797   6.233  14.066 -0.2477  0.0249 -0.3256
13924W        W29733  12.036   3.833   0.313 -0.4705 -0.2346 -0.3317
13925W        W29734   8.527   1.050  14.728 -0.0649 -0.0626 -0.3917
13926W        W29735   2.826  12.171   1.202 -0.1538 -0.1944  0.1264
13927W        W29736  12.138   1.605  11.161  0.2579 -0.0653  0.1403
13928W        W29737  16.625   2.222   0.812  0.2703  0.0955 -0.1715
13929W        W29738   3.090  17.048   3.236  0.3954 -0.0538  0.2713
13930W        W29739  13.488   9.421  14.121  0.3029  0.0152 -0.0144
13931W        W29740   5.411   4.987  13.034 -0.2007  0.2416  0.2998
13932W        W29741  15.527  12.836  15.299  0.2258  0.0521 -0.4448
13933W        W29742  14.243  11.074  14.384  0.0001  0.3136  0.0924
13934W        W29743  14.047   9.446   0.555  0.6773 -0.3306 -0.0910
13935W        W29744  13.273   3.628   0.576  0.2966  0.1245  0.2393
13936W        W29745  16.864  11.692   3.520 -0.2246 -0.1016  0.3163
13937W        W29746  16.556  13.485  13.063  0.1331 -0.2618 -0.1261
13938W        W29747  11.834  15.955  10.872 -0.0809 -0.1441  0.0777
13939W        W29748  12.804  11.274   2.007 -0.2343  0.1337  0.0413
13940W        W29749  12.985  10.839  13.491 -0.1668  0.1426 -0.3199
13941W        W29750   7.750   7.145  14.668  0.0681 -0.1721  0.0712
13942W        W29751   9.588   6.896  10.957  0.2862 -0.2690  0.0119
13943W        W29752   8.881   5.563  11.400  0.2017  0.2414  0.1425
13944W        W29753   1.139  12.147  14.921 -0.0077  0.2556 -0.1037
13945W        W29754  11.042   3.766   4.478 -0.0093  0.0995 -0.1753
13946W        W29755   5.022   4.104  11.255 -0.0577 -0.3125  0.0492
13947W        W29756   2.890   3.689   1.863  0.3162  0.4797 -0.4052
13948W        W29757  10.668   8.736  14.138  0.1716  0.0545 -0.3000
13949W        W29758   0.113   3.998   0.883 -0.1040 -0.1095  0.0193
13950W        W29759  13.433  17.645   0.206 -0.1141  0.3164 -0.1729
13951W        W29760   4.456   3.770  15.404  0.0082  0.1752 -0.0996
13952W        W29761  18.641  10.980  13.956  0.1234 -0.0596  0.1365
13953W        W29762   9.528  15.964  10.434  0.2440  0.3536  0.1842
13954W        W29763   1.296  14.059   2.875 -0.1496 -0.2003  0.1376
13955W        W29764  13.825   5.628   5.225  0.0997 -0.0387  0.1981
13956W        W29765   1.344   0.844   9.990  0.1046  0.0889 -0.3615
13957W        W29766   2.976   8.322   5.379  0.1382 -0.0217 -0.0754
13958W        W29767  11.184   5.274   0.870  0.2413  0.4518 -0.1775
13959W        W29768  10.906   9.426   5.208 -0.0395  0.1015 -0.0497
13960W        W29769  13.568  12.146   4.463  0.2833 -0.1268 -0.0460
13961W        W29770   7.810   9.987  13.392 -0.0768  0.2150  0.2032
13962W        W29771  16.392   6.397   3.365  0.0673  0.1376 -0.2450
13963W        W29772  12.117  13.267   0.506 -0.3973 -0.0423  0.0631
13964W        W29773  15.384  16.561  10.468  0.0440  0.1712  0.0100
13965W        W29774   2.560   4.137   3.422 -0.0580  0.1627  0.0324
13966W        W29775   0.975  16.845  14.991 -0.1267 -0.1988 -0.1371
13967W        W29776   6.697  15.307   9.999 -0.1770  0.3463  0.0443
13968W        W29777  17.477   1.962  13.794 -0.1815 -0.0370  0.2086
13969W        W29778   5.531  12.711   2.248  0.0186  0.1145 -0.3039
13970W        W29779   4.205   1.128  11.212 -0.5545 -0.1016 -0.0106
13971W        W29780   2.206   3.799  11.348  0.1739 -0.0387  0.2614
13972W        W29781   0.708  14.459  14.350  0.2284 -0.0539 -0.3410
13973W        W29782   0.342  14.478  15.591  0.0597 -0.0198 -0.1824
13974W        W29783  12.859   1.467   1.383  0.2152 -0.1690  0.1210
13975W        W29784   9.605   7.044  12.211  0.0961  0.0688 -0.2610
13976W        W29785   4.242  11.246  12.787  0.0920  0.1752  0.0893
13977W        W29786   5.382  11.155  12.728  0.0333  0.3145 -0.0847
13978W        W29787   7.189  16.969   2.958 -0.1627 -0.1237  0.0551
13979W        W29788   6.958   0.970  12.992  0.0113  0.0490  0.1775
13980W        W29789   5.761   6.987  11.700 -0.1106 -0.0088  0.2691
13981W        W29790  13.570   5.348   0.055  0.1371 -0.1934 -0.0597
13982W        W29791   2.816   9.351  14.191 -0.0676  0.1287  0.0771
13983W        W29792  17.760   9.826   3.019 -0.3997  0.1840  0.1084
13984W        W29793  16.281  12.952  11.284  0.1925  0.1034  0.0336
13985W        W29794   5.881   4.580   3.604 -0.1205 -0.1186 -0.0375
13986W        W29795   6.313  10.623   1.467  0.4580  0.2690 -0.0883
13987W        W29796  11.484   8.656   0.835 -0.0572 -0.3326 -0.1414
13988W        W29797   8.322  12.639   0.612  0.1842 -0.2839  0.1441
13989W        W29798   1.041   1.336   0.037 -0.3270  0.0634  0.1740
13990W        W29799  15.972  15.783   3.130 -0.4013 -0.0060  0.3018
13991W        W29800   8.421   5.239   4.714  0.1826  0.0342 -0.1264
13992W        W29801  12.970   2.652  10.315  0.0093  0.2330 -0.1564
13993W        W29802  11.574  17.605   5.163 -0.4793  0.0066 -0.1102
13994W        W29803   3.073   3.983   2.312  0.1812 -0.1314  0.1499
13995W        W29804  13.806  16.278  14.130  0.0042  0.0077  0.1676
13996W        W29805   2.360   3.153   5.779 -0.1180  0.1982  0.0645
13997W        W29806  16.066   4.870  11.292 -0.2438 -0.3755 -0.0083
13998W        W29807  10.283  11.632   1.017  0.4004  0.1320 -0.1108
13999W        W29808   0.216  13.601  12.667  0.0435 -0.2869  0.0085
14000W        W29809   2.911  16.469  14.029 -0.0210  0.0872  0.2096
14001W        W29810  18.092   2.951  11.767 -0.2553  0.0090 -0.3398
14002W        W29811  11.061  15.678   4.784 -0.1682  0.0721  0.0107
14003W        W29812   4.128   3.619   1.393  0.3436 -0.0863 -0.1333
14004W        W29813   6.646   7.912   4.807  0.0366 -0.2056 -0.0751
14005W        W29814   1.433   6.529   0.922  0.2080 -0.0087 -0.2265
14006W        W29815  10.942  16.670  13.508  0.0911 -0.1716  0.0897
14007W        W29816  17.830   3.201  12.927  0.0901  0.1879  0.1900
14008W        W29817  16.259  15.531  13.634 -0.0619  0.0678  0.1590
14009W        W29818   7.495   7.826  11.826 -0.0027  0.0567  0.0367
14010W        W29819   1.087   4.874   1.582 -0.1498  0.3002 -0.2505
14011W        W29820  17.169  15.129   0.833  0.1095 -0.3583  0.1221
14012W        W29821  11.653   9.297  14.534  0.0979 -0.0730  0.0136
14013W        W29822   0.780   5.502  14.619  0.0917 -0.1158 -0.1389
14014W        W29823  14.445   7.871   2.592 -0.2548  0.0300 -0.1401
14015W        W29824   8.071   3.890   3.649 -0.0002 -0.1469 -0.0326
14016W        W29825   5.773  15.927   2.473  0.0722  0.0143  0.3393
14017W        W29826   7.213  13.339  15.122  0.2942  0.4364  0.3547
14018W        W29827   4.661   4.556  12.348  0.1309 -0.4327  0.1618
14019W        W29828  17.719  14.330   0.423 -0.2223  0.0236 -0.0210
14020W        W29829  13.972   3.415   3.800 -0.0838 -0.0350  0.1398
14021W        W29830   4.222  12.314   3.526 -0.3125 -0.0259 -0.0527
14022W        W29831   6.920   9.689  13.469  0.0436 -0.1469 -0.0309
14023W        W29832  17.310  10.132   3.899 -0.2751  0.0381 -0.0306
14024W        W29833  14.566  14.663  10.608 -0.2504 -0.2623 -0.3473
14025W        W29834  13.899  16.422   3.654  0.1127  0.4355 -0.0356
14026W        W29835  18.003  11.918   3.556  0.3246 -0.0776 -0.3964
14027W        W29836   4.797  13.802  11.218 -0.3433  0.0036 -0.3256
14028W        W29837   9.251  14.081  14.939  0.2156 -0.0238 -0.0500
14029W        W29838   3.724   7.913   0.483 -0.0904 -0.1671 -0.2163
14030W        W29839   8.330  14.519  13.817 -0.0032 -0.2994 -0.1231
14031W        W29840   3.985   9.544  14.445  0.2254 -0.0044  0.2124
14032W        W29841   7.990  18.090   0.751  0.0329 -0.0748 -0.1526
14033W        W29842  12.682   6.062  11.796  0.0351 -0.0974 -0.0545
14034W        W29843   1.551   2.160   1.170 -0.1780  0.0349  0.2048
14035W        W29844  14.536  16.437  12.719 -0.1366 -0.0212 -0.0877
14036W        W29845   8.026   2.939  14.887  0.1974  0.1634 -0.0683
14037W        W29846  14.770  16.461  13.558  0.0040 -0.2634  0.2115
14038W        W29847   0.238  15.114  11.235 -0.1998 -0.0108  0.0662
14039W        W29848   2.534  12.503   5.467 -0.0229 -0.0776 -0.1247
14040W        W29849  17.934  17.141  11.466 -0.1490  0.2459 -0.1281
14041W        W29850   0.802  11.519   1.775  0.2322  0.1035 -0.0399
14042W        W29851  16.923   8.656  10.984  0.3174  0.1964  0.4252
14043W        W29852   8.820  13.219  12.161 -0.0926  0.1194  0.0900
14044W        W29853  16.172   3.725  12.370 -0.2230 -0.2984  0.3003
14045W        W29854   7.537   6.903   1.936 -0.1092  0.0018 -0.1988
14046W        W29855  17.876  16.978  15.080  0.0119 -0.0293 -0.0523
14047W        W29856  16.026   5.565   0.819  0.0534  0.2637  0.0746
14048W        W29857   5.096   0.415  14.596  0.0279 -0.0196 -0.0202
14049W        W29858   3.463   5.694   3.767  0.3501 -0.1417 -0.2211
14050W        W29859   0.355   8.478   3.026  0.1874 -0.1335  0.1145
14051W        W29860   2.554  10.498   3.741  0.0600  0.2581 -0.1420
14052W        W29861  14.907   6.858  10.082  0.1295 -0.1132 -0.0519
14053W        W29862  17.898   2.492   2.537 -0.2518 -0.1695  0.1809
14054W        W29863   5.595  17.699  10.488  0.0565  0.0050  0.3172
14055W        W29864   0.595  18.471  15.475 -0.0053  0.0048  0.0783
14056W        W29865   1.511  12.214  12.123  0.1767 -0.0977 -0.3028
14057W        W29866   9.539   8.179  14.616 -0.1715 -0.0832  0.0734
14058W        W29867  17.980  12.401   4.632  0.2793 -0.1477  0.1702
14059W        W29868  18.317   1.946  13.606  0.3410  0.0628  0.0803
14060W        W29869  14.097   3.261   0.094  0.2008  0.2135 -0.0999
14061W        W29870  17.170  15.164   2.840 -0.0032  0.0195  0.1116
14062W        W29871   0.561   5.458  15.656  0.0236  0.2745 -0.0467
14063W        W29872   8.116  18.122  13.685  0.0896  0.0426  0.2196
14064W        W29873  16.664  10.697   3.416  0.1554  0.0724  0.4344
14065W        W29874  12.651   8.809   4.478  0.0475  0.0306  0.2962
14066W        W29875   5.034  10.944  13.569  0.0860 -0.1764 -0.2646
14067W        W29876  17.991   3.131  13.849 -0.0487 -0.1845 -0.2851
14068W        W29877   3.368  14.755   3.110  0.2881  0.0707 -0.3996
14069W        W29878   5.072   9.343   4.214  0.2575  0.0591  0.1114
14070W        W29879   7.181  10.407   1.815 -0.1435 -0.2146 -0.1932
14071W        W29880  15.536  12.254  14.154 -0.2333 -0.2681  0.0585
14072W        W29881   4.993   0.160   0.990  0.0843 -0.5611  0.1542
14073W        W29882   9.691   1.399  14.564 -0.1053  0.3008 -0.3297
14074W        W29883  15.888   1.457  13.479 -0.2404  0.0125  0.0492
14075W        W29884   3.016   8.837   0.559  0.1343  0.0011 -0.1061
14076W        W29885   9.576   1.904  11.308  0.3692 -0.2649 -0.1976
14077W        W29886  11.605  15.933   0.867  0.0818 -0.2696  0.0603
14078W        W29887   8.162  13.583   1.562 -0.0450 -0.0511  0.1418
14079W        W29888  13.692  12.005   3.933 -0.1522  0.2474  0.0320
14080W        W29889  12.933   2.686  12.744 -0.1958 -0.0013  0.1423
14081W        W29890   5.850   7.221   2.974  0.2018  0.1408 -0.0366
14082W        W29891   9.865   3.562  13.969  0.1129  0.1393  0.0299
14083W        W29892   4.905   5.355  11.367 -0.1720 -0.1330 -0.3701
14084W        W29893   2.696   3.772  12.853 -0.3473  0.1514  0.1547
14085W        W29894   0.487  17.724  13.660 -0.1055  0.0451  0.0435
14086W        W29895   3.943  16.496  12.598 -0.1933 -0.1123 -0.2625
14087W        W29896   6.380   2.112   2.444 -0.1151  0.1213  0.0083
14088W        W29897   4.041  16.508   3.452 -0.1945  0.2724  0.3537
14089W        W29898  14.205   2.061   0.145  0.2201 -0.0762  0.1316
14090W        W29899  18.352  12.295  13.327 -0.3662 -0.0085  0.0109
14091W        W29900   4.700   7.861  15.202 -0.3387 -0.1366 -0.0287
14092W        W29901  10.270  10.343  10.587  0.3010  0.0065 -0.0136
14093W        W29902  13.966  14.807  14.370  0.3497 -0.0976 -0.1150
14094W        W29903  13.765   5.402  14.430 -0.2513 -0.2167 -0.1479
14095W        W29904  10.717   8.246  15.086 -0.0944  0.1786  0.1638
14096W        W29905   7.404  14.304  10.881  0.0146  0.0181  0.0039
14097W        W29906   4.219  12.600  12.605  0.0789  0.3281  0.0494
14098W        W29907  16.386   4.265  12.217  0.0096  0.1859 -0.0527
14099W        W29908  12.069   0.519  11.537 -0.2234 -0.2710 -0.2487
14100W        W29909   5.310  16.816  13.958 -0.2899  0.0796  0.4711
14101W        W29910   3.563   8.200  15.284  0.3044  0.2239  0.3318
14102W        W29911  11.390   7.860  14.951 -0.0747 -0.1600 -0.1188
14103W        W29912   1.313   4.004  12.091 -0.1151 -0.2287  0.2192
14104W        W29913   5.692  14.482   1.867  0.1267  0.0119  0.1551
14105W        W29914  11.442   3.138  11.419 -0.2889 -0.0489 -0.1568
14106W        W29915  11.805  14.052   0.846 -0.2891  0.1070  0.1171
14107W        W29916   4.511   3.256   4.983  0.2920 -0.1621 -0.1358
14108W        W29917   0.280   3.003  12.574 -0.2611 -0.1401 -0.0553
14109W        W29918   3.526  15.183  14.638  0.1228 -0.2108  0.1582
14110W        W29919   7.334  15.172   3.403 -0.0433  0.0115  0.0557
14111W        W29920   5.165  17.313  12.583  0.1116 -0.5710  0.2242
14112W        W29921   2.727  12.978  15.107 -0.0853  0.2471  0.0919
14113W        W29922   9.553   6.046  13.347 -0.0179  0.0283 -0.2994
14114W        W29923  10.175   9.709  11.793  0.4101  0.3599  0.1997
14115W        W29924   1.616   5.569   2.026  0.1175 -0.1514  0.1989
14116W        W29925   3.885  14.887  12.968  0.0112 -0.1464  0.1300
14117W        W29926  11.384   6.831   3.363  0.2321  0.0831  0.0376
14118W        W29927  14.305  13.065   2.159  0.1983 -0.1335  0.0308
14119W        W29928   7.745   7.696   3.726 -0.1533  0.0861 -0.1813
14120W        W29929   9.047   9.187   3.156 -0.0080 -0.3593 -0.1259
14121W        W29930   5.296   1.267  15.446 -0.4527  0.0977 -0.4446
14122W        W29931  14.730  14.532   0.428  0.3182  0.2067 -0.0718
14123W        W29932  18.198  13.075   0.419 -0.0572  0.1427 -0.0744
14124W        W29933   0.666   9.818  12.444 -0.1775  0.2270 -0.0733
14125W        W29934   6.611  10.237   4.802 -0.2564 -0.1104 -0.4406
14126W        W29935   7.273   3.494   4.698  0.2425 -0.4018  0.1271
14127W        W29936   7.657  12.230  15.603  0.0321  0.0659 -0.1680
14128W        W29937  12.825   4.176  14.018  0.0244  0.3927  0.0147
14129W        W29938  13.604   2.826  14.206 -0.2435 -0.2013  0.4200
14130W        W29939  16.878   1.446   4.892  0.2072 -0.3977 -0.0399
14131W        W29940  14.333   1.192  15.619 -0.2291  0.0649  0.2180
14132W        W29941   1.445  17.981   3.411 -0.0072 -0.3172  0.2202
14133W        W29942   2.534   1.136  14.051  0.2388 -0.2345 -0.0299
14134W        W29943   7.192   0.577   5.265 -0.2481  0.0232 -0.2267
14135W        W29944  15.014  11.931   4.894  0.1455  0.3783 -0.1677
14136W        W29945   1.838   1.714  12.436  0.0271 -0.0550 -0.1807
14137W        W29946  14.219  14.558  10.301 -0.0527 -0.3730  0.0904
14138W        W29947  14.673   3.888   1.136  0.1425 -0.1123 -0.3180
14139W        W29948   2.853   8.816  15.019  0.1338 -0.1224 -0.4212
14140W        W29949   1.269   3.025  13.925 -0.0051  0.0911 -0.2648
14141W        W29950   7.749   6.508   5.035  0.0882  0.2736 -0.2320
14142W        W29951  13.385   4.451   2.394 -0.1293 -0.0818  0.1574
14143W        W29952  16.320  15.724  15.455 -0.0729  0.2085  0.0596
14144W        W29953  17.734   7.021  12.717  0.0160 -0.0686 -0.0037
14145W        W29954   6.448  16.895  13.799  0.2201 -0.0382 -0.1604
14146W        W29955   5.492   5.691   0.012 -0.1614  0.2376  0.2201
14147W        W29956   8.283   8.870   0.587 -0.4024 -0.1914  0.0999
14148W        W29957   7.257  13.279   1.230  0.0705 -0.5124 -0.2775
14149W        W29958   1.556   1.387   4.816 -0.0421 -0.0207  0.0619
14150W        W29959  15.726  16.094  14.660 -0.1070  0.1563 -0.0855
14151W        W29960  17.647   1.843   1.446 -0.4684  0.0378  0.2735
14152W        W29961   7.469  17.243   4.270  0.2380 -0.0599  0.0142
14153W        W29962   8.270   8.629   3.969  0.3873 -0.0551 -0.1916
14154W        W29963   3.168   5.855  13.330  0.0073  0.1574 -0.1284
14155W        W29964   5.382  12.274   1.855 -0.1347 -0.2213  0.0830
14156W        W29965   6.851   3.687  12.367  0.1621 -0.0329  0.2974
14157W        W29966  13.086  12.343  11.445 -0.1709 -0.2386  0.1300
14158W        W29967  17.870  17.504   3.046 -0.0798  0.2390  0.2038
14159W        W29968  13.297   4.698  13.889 -0.0227 -0.2019  0.1120
14160W        W29969   8.740   0.107  15.273  0.0246  0.0556 -0.4613
14161W        W29970   4.377   4.454   1.711  0.0253  0.0825  0.0769
14162W        W29971   0.007  17.744  13.300 -0.3379 -0.2700  0.1465
14163W        W29972   9.507  12.526   3.163  0.1524  0.1680  0.0196
14164W        W29973  15.471  16.587  14.758  0.2211 -0.1856  0.2121
14165W        W29974  12.107   4.043   3.008  0.1426 -0.3202  0.0629
14166W        W29975  18.524   0.863  15.728  0.1174  0.3468  0.1608
14167W        W29976   4.467   3.469   2.935 -0.0537  0.1799 -0.3918
14168W        W29977   4.409   5.442   0.681  0.0219 -0.0478 -0.0214
14169W        W29978  18.566  11.053   3.452 -0.0393 -0.2043 -0.1125
14170W        W29979  16.093   9.445   3.689 -0.0949  0.3461  0.0358
14171W        W29980  13.663  17.846   9.482  0.0181 -0.2517  0.0293
14172W        W29981   2.502   5.719   1.421  0.0589  0.1756 -0.2302
14173W        W29982   9.258   1.388   4.072  0.4838 -0.0147 -0.2609
14174W        W29983   1.820  12.960  15.461 -0.1554 -0.0341 -0.2180
14175W        W29984   9.590  11.644  11.514  0.1245  0.1631 -0.0381
14176W        W29985  13.183  16.628  12.161 -0.1073 -0.2853 -0.2042
14177W        W29986   2.533   9.950   1.967  0.1429  0.2241  0.0342
14178W        W29987  11.025   3.074   4.612 -0.2616  0.1203  0.0139
14179W        W29988  17.768   3.471  15.198  0.0095 -0.0311  0.2056
14180W        W29989   0.124   8.048  15.448  0.2555 -0.0578  0.0833
14181W        W29990  15.430  15.699  10.406 -0.4080 -0.1879  0.3109
14182W        W29991   4.846  18.081   4.564 -0.2021 -0.0393 -0.0883
14183W        W29992   1.221   9.038   0.653  0.0565 -0.0677  0.0701
14184W        W29993   2.353   5.584   4.388  0.1876  0.0607  0.1596
14185W        W29994  16.505  11.630  10.986  0.0554 -0.1152 -0.3265
14186W        W29995  11.778  18.333  12.416 -0.1770  0.1652 -0.0077
14187W        W29996   4.997  14.362  12.892 -0.3318  0.0601  0.0059
14188W        W29997   3.856  14.175  10.924  0.2246  0.3877 -0.0080
14189W        W29998  12.041  15.270  13.642 -0.2269  0.2270 -0.0073
14190W        W29999   4.188  18.542  15.335 -0.0334  0.1201 -0.3201
14191W        W30000   4.079   9.765   5.357  0.3444  0.2824  0.1400
14192W        W30001  17.157   1.974  11.042  0.0911  0.1078 -0.2735
14193W        W30002  10.046   9.104   0.108  0.0536  0.2225  0.2274
14194W        W30003  10.045   9.579   0.835  0.2715  0.0339  0.1016
14195W        W30004   3.167  12.533   0.061  0.1201 -0.1505  0.1198
14196W        W30005   1.051   7.377   5.072 -0.0127  0.2089  0.1651
14197W        W30006   4.417  12.282  11.617 -0.0474 -0.2862 -0.1758
14198W        W30007   6.032   4.111   2.611  0.3610  0.0502  0.2674
14199W        W30008  17.232   3.951  11.833 -0.3034 -0.3894  0.1915
14200W        W30009  13.871  11.443   3.181 -0.2514  0.1913 -0.1052
14201W        W30010   8.640  17.923  13.616  0.0559  0.1499 -0.0005
14202W        W30011  10.884  14.877  12.892  0.1812 -0.0735  0.2185
14203W        W30012   0.427   6.489   3.963 -0.1388  0.4051 -0.2362
14204W        W30013  15.596   7.748   1.421  0.0811 -0.1239 -0.0367
14205W        W30014   3.838  15.297  15.749  0.1556 -0.3934  0.2124
14206W        W30015  18.268   1.922  14.496  0.1629 -0.1029 -0.0715
14207W        W30016  13.653  10.164  10.906  0.0171 -0.1459 -0.0211
14208W        W30017   5.038  16.149   0.222  0.0786 -0.1781  0.1732
14209W        W30018  15.745   0.041  12.095 -0.0283  0.1711 -0.0894
14210W        W30019   9.349  12.135   0.574  0.0401  0.1046 -0.1559
14211W        W30020   6.709  13.173  14.919 -0.0076  0.0329 -0.1529
14212W        W30021   9.667   0.036   5.482  0.1888  0.1730  0.1142
14213W        W30022   2.057   8.197   0.221  0.2031  0.2689  0.1834
14214W        W30023   9.255  14.430   9.737 -0.1145 -0.2003  0.2426
14215W        W30024  17.878   5.733  13.336 -0.1791 -0.1176 -0.0568
14216W        W30025   9.508   8.098   0.660  0.0331 -0.0502  0.0809
14217W        W30026  16.423  13.208   4.169 -0.2954  0.0943 -0.1472
14218W        W30027   9.078   0.145  13.975 -0.2035  0.2120 -0.0419
14219W        W30028   8.668  15.224   4.728  0.2013  0.1126 -0.1942
14220W        W30029  18.485  18.202   3.560  0.0356  0.3112  0.1307
14221W        W30030   2.316   3.620   0.415 -0.4814 -0.1871 -0.1377
14222W        W30031   4.146   6.062   4.508 -0.0540 -0.2803 -0.0980
14223W        W30032  13.432   8.635   1.996 -0.1489  0.0870  0.0986
14224W        W30033  17.468  18.438  11.800  0.0784  0.1962 -0.0585
14225W        W30034   1.633   0.689  15.139 -0.0601  0.2114  0.1386
14226W        W30035  16.241  13.037   1.349 -0.3727  0.1973  0.1712
14227W        W30036  16.757   2.277  13.894 -0.1292 -0.0733  0.0260
14228W        W30037   4.328   4.583   2.993  0.1305  0.2106 -0.0136
14229W        W30038  17.581   7.537   2.061  0.7539  0.2226 -0.2118
14230W        W30039   2.936  11.075  15.156  0.0114  0.1193  0.1905
14231W        W30040   6.887   4.638  12.247  0.1183 -0.0313 -0.0875
14232W        W30041  14.327   0.268   4.493  0.2420 -0.0085  0.0030
14233W        W30042   2.194  10.616   4.532  0.2143  0.2349 -0.1034
14234W        W30043   9.286   2.273   4.019  0.0211  0.0270 -0.1561
14235W        W30044   5.023   1.975  14.796  0.1569  0.0403  0.0086
14236W        W30045   6.768  14.055   4.789 -0.2415  0.0157 -0.0925
14237W        W30046  15.916   7.412  10.960  0.0261 -0.0591 -0.1259
14238W        W30047  13.380  18.575   0.045  0.1534 -0.1075 -0.2311
14239W        W30048  12.089   8.699   0.161  0.1350 -0.2647  0.1046
14240W        W30049  18.246   8.037   4.977 -0.0480  0.1445  0.2742
14241W        W30050   6.033  10.979   1.638  0.0575 -0.0326 -0.1520
14242W        W30051  14.751  10.437   1.491  0.3559 -0.0828 -0.0946
14243W        W30052  15.800   8.944   0.767  0.1477  0.0786  0.1688
14244W        W30053  14.507  13.396  14.406 -0.0412 -0.3130 -0.1548
14245W        W30054  10.741  17.673  10.238 -0.1453 -0.2583  0.0426
14246W        W30055  14.146  12.567  12.491 -0.0538  0.0847  0.0001
14247W        W30056   1.266  15.392  12.705 -0.1258  0.0769 -0.3139
14248W        W30057   2.752  17.144   4.203 -0.0573 -0.4074 -0.1040
14249W        W30058  14.114   4.832   4.194  0.3171 -0.0134 -0.1052
14250W        W30059   8.396  18.518  12.519 -0.1848  0.1827 -0.1810
14251W        W30060  12.732   3.316   1.775 -0.1040 -0.2042  0.3002
14252W        W30061   1.384   8.238   5.215  0.1730  0.1053  0.1092
14253W        W30062   9.664  13.639   1.272 -0.0459  0.0321  0.1922
14254W        W30063   9.129  14.394   4.704 -0.1674  0.0232 -0.2091
14255W        W30064  16.458  16.603   3.562 -0.0921  0.1532  0.2748
14256W        W30065  18.544  18.269   4.457  0.4190  0.5750 -0.0990
14257W        W30066  10.605   0.815   3.349  0.2829 -0.0304  0.1986
14258W        W30067  10.928   1.939   4.270  0.0045 -0.1180 -0.1118
14259W        W30068   2.890   5.927   5.092  0.0213 -0.2683  0.2972
14260W        W30069  14.183  12.518  11.910 -0.0509 -0.0013  0.0453
14261W        W30070  10.030   0.164   4.127  0.2198  0.1657 -0.1227
14262W        W30071  12.257   0.136   2.720 -0.4622 -0.2135 -0.0995
14263W        W30072  13.507   3.250   3.476 -0.2338 -0.2358 -0.0369
14264W        W30073  15.371  10.156   0.257 -0.0833 -0.1354 -0.0119
14265W        W30074  15.280   5.363   2.485 -0.1897 -0.1339  0.2818
14266W        W30075   1.243  10.882   1.610 -0.1829 -0.1830  0.1029
14267W        W30076   8.781  10.069   4.123  0.0030 -0.1269 -0.2907
14268W        W30077  12.153  17.151  13.101  0.0318  0.1114 -0.0266
14269W        W30078  13.953   4.438   4.497  0.1051 -0.1203  0.1939
14270W        W30079  14.093   8.527   4.932 -0.1308 -0.0613  0.0397
14271W        W30080  15.713   8.819   3.018  0.1780  0.2602 -0.2783
14272W        W30081  15.261  13.071   2.014 -0.0510 -0.1410 -0.4829
14273W        W30082   4.082   4.616  15.533 -0.0662 -0.0368 -0.0857
14274W        W30083   9.370   8.335  11.097  0.0744  0.0293 -0.0204
14275W        W30084  12.195   3.783  12.004 -0.0326 -0.0234 -0.1374
14276W        W30085  16.245  18.012   3.929 -0.1633 -0.1672 -0.0893
14277W        W30086  11.625  10.364   3.014  0.2887 -0.1132  0.2003
14278W        W30087   6.945  17.471  11.398  0.1471  0.0282  0.1255
14279W        W30088  18.529   5.696   5.982  0.0577 -0.3589 -0.0436
14280W        W30089   3.016  17.993   0.401  0.0536 -0.2527 -0.1361
14281W        W30090   8.610   7.698   3.298 -0.0884 -0.0928  0.1173
14282W        W30091  11.617  12.801  10.554 -0.2585  0.1218 -0.0115
14283W        W30092  14.888   3.272   3.301  0.1978  0.3365  0.1278
14284W        W30093  16.421   3.452  14.115 -0.1879  0.2506  0.0996
14285W        W30094  11.624  17.707   0.598  0.2637  0.2444  0.2815
14286W        W30095   5.829   3.763  11.094 -0.3317  0.3709 -0.2099
14287W        W30096   2.630   1.466   0.371 -0.1010 -0.1970  0.2314
14288W        W30097   3.717   4.978  12.515  0.0541 -0.4386  0.1359
14289W        W30098  10.748  13.041  12.524 -0.0556 -0.0104  0.0320
14290W        W30099  12.013  13.582  11.556 -0.0341 -0.2027  0.0922
14291W        W30100   5.287   7.284  11.840  0.1865  0.1949  0.0377
14292W        W30101   4.136  18.513   1.875 -0.1681  0.1009  0.0196
14293W        W30102  13.446  15.427  10.379 -0.0014 -0.0299  0.3129
14294W        W30103  16.575  18.440   2.614  0.0179  0.1585 -0.0236
14295W        W30104   3.039   7.507  14.555 -0.0812 -0.0592  0.0633
14296W        W30105   9.931  15.952  15.710  0.2322 -0.0677 -0.1813
14297W        W30106  11.992   6.793   3.458 -0.2936 -0.1159 -0.1298
14298W        W30107   8.299  17.410  14.882 -0.0196 -0.1185 -0.2556
14299W        W30108   6.838   6.426  13.246  0.1204  0.0391  0.1456
14300W        W30109  14.705  10.164  14.795  0.4147  0.0411  0.1597
14301W        W30110   5.110   2.041   1.753  0.0119  0.1054  0.1020
14302W        W30111   7.992  18.332  14.891  0.1877 -0.3450 -0.0569
14303W        W30112   0.622  18.072   0.092  0.3133 -0.1836 -0.0648
14304W        W30113  16.750  10.034   6.165 -0.0659 -0.0089 -0.2465
14305W        W30114  13.609  18.474   1.358 -0.1467 -0.0624  0.1523
14306W        W30115   3.002  18.438   4.987 -0.1720 -0.1467  0.1873
14307W        W30116   8.351   4.211  14.744  0.0812 -0.1852  0.0572
14308W        W30117  14.375  12.450  12.939 -0.2421 -0.1104  0.1440
14309W        W30118   8.449  12.473   2.543  0.0337  0.0654 -0.2436
14310W        W30119   8.600  11.249   1.077  0.0076 -0.0292  0.4321
14311W        W30120  15.009  15.688   8.976 -0.1204 -0.0302 -0.2548
14312W        W30121  17.017  17.029   0.437 -0.0509  0.1602  0.2677
14313W        W30122   8.660  14.548  15.610 -0.1423  0.1439  0.1170
14314W        W30123   8.947   6.360  12.052 -0.0364  0.2358 -0.0055
14315W        W30124  10.655  15.480   3.093  0.3234 -0.1930 -0.2817
14316W        W30125  14.055   6.670  12.255 -0.0102 -0.2545  0.2778
14317W        W30126  10.594  10.783   4.737  0.0017 -0.0448  0.0929
14318W        W30127   5.205  16.899   1.562 -0.0809  0.0108 -0.0492
14319W        W30128  14.118  10.115  14.919  0.1863  0.3033 -0.0302
14320W        W30129   3.235  16.461  15.204 -0.1042  0.0270 -0.1405
14321W        W30130  14.406  17.765   1.308 -0.0982  0.0788 -0.3068
14322W        W30131  15.907  13.622   3.047  0.0433  0.0344  0.2335
14323W        W30132  18.556   0.320  12.110  0.1867 -0.1053 -0.2679
14324W        W30133   5.950   6.422  14.428  0.4108  0.2135 -0.0471
14325W        W30134   7.369   3.219   1.836 -0.0671  0.2253  0.0674
14326W        W30135   1.962   5.070  12.875 -0.2483 -0.4180  0.1666
14327W        W30136   4.591  10.545   1.231  0.0449  0.1482  0.2231
14328W        W30137  18.093  14.959   3.242  0.0926  0.0011  0.1584
14329W        W30138  17.128  17.844   1.302 -0.4098  0.0356 -0.0475
14330W        W30139   8.983   1.920   3.402  0.0438 -0.4779  0.1452
14331W        W30140  13.756   6.431  11.472  0.0805 -0.1831  0.1345
14332W        W30141  10.456  10.780   1.679  0.0679 -0.3127  0.0370
14333W        W30142   9.900   6.701  13.819 -0.1123 -0.0812 -0.0951
14334W        W30143  15.328  15.365   3.277 -0.3808  0.0675  0.3292
14335W        W30144   8.860   3.413   1.418  0.2848 -0.2633  0.0781
14336W        W30145  12.947   0.349   3.570 -0.4146 -0.0962 -0.0328
14337W        W30146   4.676  17.532   1.741  0.0748 -0.2142  0.2522
14338W        W30147  15.680  14.182  13.237 -0.2875 -0.1142 -0.2047
14339W        W30148   2.898  18.410  13.577  0.0087  0.0851  0.1370
14340W        W30149   7.874   2.132   0.794 -0.1381 -0.0876 -0.0326
14341W        W30150  18.253  14.611   0.309 -0.1080  0.0275 -0.0891
14342W        W30151  18.241  16.682  11.462  0.1019 -0.0012  0.4092
14343W        W30152  15.837  16.425   0.303  0.0429 -0.2892 -0.1564
14344W        W30153   0.136   7.773   3.315 -0.3118  0.2104 -0.4176
14345W        W30154  13.463  16.341  14.553  0.0194 -0.1911 -0.2219
14346W        W30155   8.111   7.306  11.997 -0.2761 -0.2089  0.1261
14347W        W30156   2.194  17.602  13.717  0.1838  0.2277  0.3054
14348W        W30157  12.445   7.428   2.705 -0.0523  0.1915 -0.1362
14349W        W30158  15.218  12.556   2.054  0.2346  0.1853 -0.0600
14350W        W30159  14.309   8.046   2.018 -0.1673 -0.1265  0.5301
14351W        W30160  13.627  12.493   4.059 -0.0304  0.2108  0.2643
14352W        W30161  17.636  17.886  10.459  0.1356  0.1753  0.0644
14353W        W30162  14.717  17.449   2.509  0.1887 -0.2677  0.0085
14354W        W30163  12.154   6.693  15.151  0.2137  0.3231 -0.1007
14355W        W30164   5.322  17.930  14.521  0.2616 -0.1429 -0.1439
14356W        W30165   8.655  15.724   4.946  0.1740 -0.0506  0.1290
14357W        W30166   0.874   7.627   2.545 -0.0329 -0.0195 -0.0025
14358W        W30167  14.231   3.246  11.767 -0.1347  0.0931 -0.3683
14359W        W30168   9.986  13.568  14.594  0.0505  0.0955 -0.1083
14360W        W30169   2.090   9.434   4.584 -0.3959 -0.1032 -0.0594
14361W        W30170   1.953  15.203  12.660  0.1842 -0.2966  0.1847
14362W        W30171  12.208   1.847   4.949  0.4905  0.1918  0.0177
14363W        W30172  10.246   8.328   4.681 -0.2455 -0.1797 -0.2067
14364W        W30173   5.004   4.545  11.564 -0.0511  0.1097  0.3716
14365W        W30174   0.394  12.880   1.614  0.1906  0.1052 -0.1934
14366W        W30175  14.520   8.346   4.347  0.2524  0.0936 -0.1156
14367W        W30176   0.785   7.707  14.927  0.2280  0.1752  0.1266
14368W        W30177   5.633   8.642  14.295  0.3073 -0.3403 -0.0269
14369W        W30178  17.013  10.933   3.707 -0.1022 -0.2250 -0.0179
14370W        W30179  11.148  15.532  10.605  0.1370  0.2256 -0.0702
14371W        W30180  14.043   6.026  14.850  0.0157  0.1304  0.1112
14372W        W30181  17.009  13.238  12.560  0.2135 -0.0119  0.0911
14373W        W30182   0.907  14.039  11.413 -0.1030  0.3563 -0.1567
14374W        W30183   2.575   3.174   2.539  0.0538  0.0329  0.2004
14375W        W30184  12.237   4.726  11.908 -0.0454  0.2361  0.1969
14376W        W30185   5.544   5.042  11.048 -0.2248  0.2622  0.0332
14377W        W30186   2.802   9.742   0.990 -0.0661  0.2911 -0.1450
14378W        W30187  15.946   9.027  14.257 -0.0803 -0.0251 -0.0210
14379W        W30188  17.426  16.584  12.662 -0.5282  0.0338  0.0978
14380W        W30189   9.208   0.699   3.004  0.2185 -0.1562  0.2822
14381W        W30190  16.341   9.078  10.159 -0.0090  0.3262  0.1358
14382W        W30191   7.135   0.899  14.011 -0.0202 -0.3576 -0.0297
14383W        W30192  11.683  17.287  13.402  0.0121 -0.1839 -0.1774
14384W        W30193   3.472  11.749  11.575  0.1033 -0.2219 -0.0072
14385W        W30194  12.597  12.831  14.556  0.1251 -0.2808 -0.2548
14386W        W30195   1.948  17.580  13.293  0.0082 -0.0606 -0.0821
14387W        W30196  17.463   3.368   4.114  0.2720  0.0827 -0.2718
14388W        W30197   3.151  13.192  11.365  0.0134  0.0557  0.2144
14389W        W30198   0.506  18.169  13.307 -0.2545 -0.2085  0.2410
14390W        W30199   7.882   2.438   1.200  0.1859 -0.2847 -0.0912
14391W        W30200  11.509  12.111  14.908 -0.3587 -0.0553  0.0613
14392W        W30201   0.923   1.465   3.904 -0.0813  0.1565  0.0175
14393W        W30202   4.816   9.656   4.535 -0.1392 -0.3552  0.0469
14394W        W30203   3.116   2.530   3.521 -0.0174 -0.0213  0.1222
14395W        W30204  14.254  11.873   3.067 -0.1890 -0.1642 -0.0280
14396W        W30205   7.772   6.383  13.749  0.1907 -0.2406 -0.1660
14397W        W30206  13.332   6.514   1.427 -0.1924 -0.1812  0.1694
14398W        W30207  13.693   6.156   1.128 -0.1735 -0.2610 -0.2630
14399W        W30208   3.259  17.664  10.643  0.1394  0.2982 -0.0245
14400W        W30209  10.177  13.040   4.753  0.1548  0.1300  0.3264
14401W        W30210  13.571   1.758   1.295  0.0260 -0.0552  0.1709
14402W        W30211   5.963  17.248   3.558 -0.0005  0.1345  0.0158
14403W        W30212   7.376  14.200   3.861  0.3029 -0.0026 -0.0865
14404W        W30213   8.376   4.209  11.159  0.0741 -0.1593 -0.3139
14405W        W30214   3.757  16.993  12.819  0.2733  0.2482 -0.0109
14406W        W30215  11.529  11.056  13.355 -0.0018 -0.4387 -0.1291
14407W        W30216  11.523  13.425   3.800 -0.0769 -0.0712 -0.3534
14408W        W30217   5.596  12.741   4.521 -0.0930 -0.3052  0.5902
14409W        W30218   5.713   6.901   1.886  0.1350 -0.0253  0.2800
14410W        W30219  15.231   1.234  12.910 -0.3606 -0.1490  0.0580
14411W        W30220   1.374  16.485   3.818  0.1318 -0.0680  0.1742
14412W        W30221  11.072  16.334  11.993  0.3563  0.2043 -0.1605
14413W        W30222  12.802  14.420   3.731  0.0462 -0.0179  0.0423
14414W        W30223  15.147  14.135   0.552  0.1482 -0.2357 -0.0468
14415W        W30224  14.791   5.482  14.758  0.0917  0.0711 -0.0899
14416W        W30225  16.976  11.157  15.500 -0.0912 -0.0189  0.1451
14417W        W30226   4.779   7.842  14.327  0.0251  0.1497  0.1088
14418W        W30227  10.254  17.262  11.866 -0.2957 -0.4102 -0.0219
14419W        W30228   9.753  11.666  13.990  0.1203 -0.1745  0.3145
14420W        W30229  11.649   6.776  15.609 -0.4356 -0.2314  0.0732
14421W        W30230   7.080  16.952  14.473 -0.0082 -0.4048  0.0952
14422W        W30231  17.946   5.800   3.091  0.0608 -0.0173 -0.3637
14423W        W30232  18.106  17.778  14.923  0.1970 -0.1174 -0.0952
14424W        W30233  12.066  13.159  14.864 -0.0405 -0.0506 -0.1889
14425W        W30234  15.191  16.270   2.957  0.1650 -0.0277 -0.1168
14426W        W30235  16.299  15.312   1.018  0.3424 -0.0273  0.1387
14427W        W30236  12.995  12.998  13.981 -0.2565 -0.1417 -0.2250
14428W        W30237  16.444  14.577  14.880 -0.0254 -0.3508 -0.1824
14429W        W30238  11.736   9.107  10.867 -0.2556  0.0828 -0.0286
14430W        W30239   4.288  11.411   3.644 -0.1207 -0.0877 -0.0537
14431W        W30240  13.483  11.581   4.666  0.0957 -0.0780 -0.3148
14432W        W30241  12.416   1.771   4.454 -0.2050 -0.1745  0.1579
14433W        W30242   7.429   5.119   5.671  0.0636  0.1767 -0.1192
14434W        W30243   0.786  15.596   3.309 -0.1490  0.3273  0.1211
14435W        W30244   1.107   2.264   0.865  0.0834 -0.0732 -0.1149
14436W        W30245  11.211   8.065  13.252 -0.2927 -0.2255  0.1020
14437W        W30246  14.408   4.669  10.728  0.0012 -0.3182 -0.1450
14438W        W30247  11.790  13.234  13.571 -0.1433  0.1674 -0.0957
14439W        W30248  11.046  18.373   5.197 -0.1064 -0.0453  0.1324
14440W        W30249   1.240   1.157  13.531 -0.1416  0.1933  0.1106
14441W        W30250   1.710   2.843  10.952  0.2126 -0.0224  0.1722
14442W        W30251  12.456  11.843   5.742  0.3484  0.0827  0.5138
14443W        W30252  15.149   6.966  15.380  0.3629  0.3717  0.0593
14444W        W30253  12.497  18.101   3.624 -0.4598 -0.1713  0.1874
14445W        W30254   9.334  16.524   3.649  0.0248  0.0491 -0.0737
14446W        W30255   6.234   8.914   3.364  0.4895 -0.0024 -0.0399
14447W        W30256   3.066  10.118   0.725 -0.1827  0.3277  0.2148
14448W        W30257  10.199   7.288   0.755  0.2522  0.1209 -0.0599
14449W        W30258   2.293  16.115   0.535  0.0997 -0.2546  0.1437
14450W        W30259   7.843  14.336  11.126  0.0846 -0.2698  0.2754
14451W        W30260  16.257   0.238   3.391 -0.3189 -0.0755  0.2091
14452W        W30261   7.523  13.408  14.433  0.1195  0.0815 -0.0615
14453W        W30262   0.551   1.904   3.479  0.2577  0.0574 -0.0379
14454W        W30263   8.724  16.151   0.607 -0.2004 -0.1369  0.2488
14455W        W30264  14.629  11.281   4.200 -0.2858  0.0748  0.4256
14456W        W30265  11.213   9.236   4.125  0.2123 -0.1302 -0.2649
14457W        W30266  11.322  12.047  10.295  0.2373  0.1480 -0.3592
14458W        W30267   0.301  16.800   0.034 -0.1177  0.0080  0.3312
14459W        W30268   3.715   1.866   3.762 -0.0066  0.2766 -0.2383
14460W        W30269   8.130  15.010   3.241  0.2428 -0.1030 -0.0141
14461W        W30270  10.469   3.955  14.055  0.2342  0.0698  0.1860
14462W        W30271   9.242   1.443  12.346 -0.1347  0.2790  0.0038
14463W        W30272   9.203  18.613   1.713  0.1567  0.2078  0.1978
14464W        W30273   5.384  11.794  13.791  0.3073 -0.0042  0.0153
14465W        W30274  13.156   8.051  10.828  0.1209  0.1617 -0.0660
14466W        W30275   2.438  16.898   0.607 -0.1015  0.1187 -0.0667
14467W        W30276   8.566   9.304   1.363  0.4339  0.0806  0.1999
14468W        W30277  13.165   9.655  15.376 -0.3184  0.1361  0.2633
14469W        W30278   8.885   3.052   4.330 -0.1177 -0.0219  0.0450
14470W        W30279  16.851   0.717   3.788 -0.2659  0.0881 -0.0885
14471W        W30280  10.082   8.929  11.558  0.1683 -0.1087 -0.0768
14472W        W30281   1.403  15.619   5.368  0.0532  0.2244 -0.0582
14473W        W30282   9.840   4.277  13.378  0.4732  0.4310  0.3724
14474W        W30283   9.347   8.905   5.973  0.0422  0.0341 -0.0159
14475W        W30284   3.875  12.700  14.019 -0.1090  0.0245 -0.1174
14476W        W30285   3.324  15.755   2.310  0.0318 -0.1653 -0.0106
14477W        W30286  17.444   6.616  12.946  0.4095 -0.1187  0.1501
14478W        W30287   1.130  12.315   1.791  0.1337  0.0786 -0.0586
14479W        W30288  15.087   9.646   1.972  0.1088 -0.3573 -0.0924
14480W        W30289   7.273   6.430  13.983  0.0763 -0.0233  0.1370
14481W        W30290  16.101  12.773   3.492  0.1097  0.0605 -0.1977
14482W        W30291  15.835  15.804  10.024  0.2108 -0.4861  0.0135
14483W        W30292   8.037   9.349   1.843 -0.0284 -0.0149 -0.4796
14484W        W30293   9.533   2.524   3.242 -0.0546  0.5209 -0.2392
14485W        W30294  15.608  10.925   2.341  0.0195  0.2622 -0.0192
14486W        W30295  13.921  11.750   4.331 -0.0638  0.0089  0.0611
14487W        W30296  16.899   2.806  13.202 -0.1692  0.0016 -0.2783
14488W        W30297  10.503  14.509   2.563 -0.0815  0.1037 -0.0277
14489W        W30298  12.551   9.419   0.087  0.1828  0.1159  0.1773
14490W        W30299  14.189   5.570   1.245  0.1918 -0.0504  0.1708
14491W        W30300   0.859   9.108  13.044  0.1836 -0.3505  0.0348
14492W        W30301   8.620   8.760  11.245  0.0884  0.1180 -0.0084
14493W        W30302  14.542   1.451  10.452 -0.1174 -0.0351 -0.2969
14494W        W30303   9.858  16.482  12.369  0.2090  0.3068  0.0000
14495W        W30304  11.627   2.650  14.651 -0.0922 -0.4787 -0.4392
14496W        W30305  15.334   8.161   1.921  0.2944 -0.2165 -0.0089
14497W        W30306  18.555  10.165   3.709 -0.1665  0.2220  0.2883
14498W        W30307   6.286  13.052  14.503 -0.1046  0.0326 -0.3069
14499W        W30308  12.558   1.485   3.132 -0.0836 -0.4960  0.1578
14500W        W30309  13.925  17.772  15.351 -0.0979  0.1337 -0.0919
14501W        W30310   3.726  11.649   0.863 -0.2845  0.0997 -0.2882
14502W        W30311  16.804  16.239  14.520  0.1875  0.0292 -0.0438
14503W        W30312   6.889  17.173   0.909  0.1449  0.0226  0.2201
14504W        W30313   2.337   7.099  15.636 -0.4105 -0.2074  0.0047
14505W        W30314  15.111   6.699   4.464 -0.1439  0.2767  0.1923
14506W        W30315   3.531   0.791   4.926 -0.0124 -0.0052 -0.0328
14507W        W30316   8.692  10.487   1.501 -0.0518  0.0133  0.0745
14508W        W30317  13.972   6.619   0.961  0.2230 -0.1033 -0.0906
14509W        W30318   1.909   3.104  12.366  0.0390 -0.5998 -0.5009
14510W        W30319   9.141  17.053   2.209  0.1421  0.2168  0.0733
14511W        W30320  17.850  16.068   3.757  0.2051 -0.2616  0.0276
14512W        W30321  16.787  14.106   4.575  0.2707 -0.0738 -0.0070
14513W        W30322  14.245   9.874   9.968  0.0692  0.3426 -0.1179
14514W        W30323   3.041  13.818  15.398  0.1665  0.0548 -0.2490
14515W        W30324  10.546  12.297   1.029  0.0634 -0.0265  0.1313
14516W        W30325   0.292   7.130  14.172 -0.3242  0.0914 -0.1167
14517W        W30326   0.839   5.198   4.025 -0.1646 -0.0456 -0.2950
14518W        W30327  11.650  11.710  13.308 -0.0390 -0.0815 -0.1822
14519W        W30328   4.040  13.862   4.616 -0.2414  0.0014  0.2273
14520W        W30329  10.818   8.972   2.399  0.1845  0.1157 -0.0824
14521W        W30330   7.446   7.486   2.829  0.2330 -0.1113 -0.2384
14522W        W30331  11.580  13.204  11.454  0.5002  0.0750 -0.0453
14523W        W30332  13.231  11.981   0.487 -0.2780 -0.1442  0.2023
14524W        W30333  11.274  10.265   5.683  0.0645  0.1752  0.1466
14525W        W30334  17.675  14.513  10.150  0.1750  0.3044  0.1313
14526W        W30335  17.279  12.464  13.753  0.2975 -0.1803  0.2033
14527W        W30336   2.010   8.093   1.913  0.2698 -0.1797 -0.0695
14528W        W30337   5.710  18.580   4.770  0.0688  0.0005 -0.1314
14529W        W30338  16.981  17.674   2.191 -0.1567 -0.3819  0.0693
14530W        W30339  15.760  11.522  12.683  0.2134 -0.1563 -0.1914
14531W        W30340   0.775   0.617  13.911  0.1228 -0.2372  0.3135
14532W        W30341  15.114   5.041   2.952  0.2119 -0.2508 -0.1120
14533W        W30342  16.088   7.000   5.454 -0.1516 -0.1244 -0.3129
14534W        W30343  13.300   5.471  13.574 -0.0342  0.2080  0.1606
14535W        W30344   4.579   0.233  11.307  0.0256 -0.1745 -0.1461
14536W        W30345  15.788  18.618  15.091 -0.0736 -0.0007 -0.1500
14537W        W30346   1.519  17.737  12.312  0.0106  0.3349  0.2259
14538W        W30347  10.019  13.705   3.924  0.1059  0.3485 -0.1699
14539W        W30348  11.832  12.289  14.453  0.0077 -0.3190  0.0615
14540W        W30349   6.632  10.665   3.514 -0.0289 -0.0933 -0.1292
14541W        W30350   8.318   4.402   4.185  0.3279 -0.1110 -0.0105
14542W        W30351  16.579  15.913   1.894  0.3965  0.1007  0.2030
14543W        W30352  14.368   6.079  14.461  0.0137 -0.2382 -0.2097
14544W        W30353  15.799   3.770  13.333  0.0439 -0.0972 -0.0309
14545W        W30354  12.540   2.634  15.031  0.1739 -0.0612  0.2169
14546W        W30355  11.032  14.974  13.372  0.0069 -0.0364  0.0656
14547W        W30356  13.489  10.587   1.003 -0.0475 -0.3272 -0.1910
14548W        W30357   1.860   1.929   3.487  0.1173  0.0704  0.1577
14549W        W30358   9.475   2.116   4.656  0.1701 -0.0215 -0.1895
14550W        W30359  16.977   3.935  13.744  0.1474  0.1031 -0.2199
14551W        W30360   4.591  15.855  14.471 -0.3149  0.1701  0.2674
14552W        W30361   8.196  10.615  12.027 -0.0396 -0.0808  0.0641
14553W        W30362  17.300  15.500  15.409 -0.2321 -0.2277  0.0640
14554W        W30363   6.463  14.730   2.187 -0.1353 -0.1625 -0.2198
14555W        W30364   3.677   2.123  15.433 -0.2072 -0.0167 -0.0025
14556W        W30365   6.460  16.687   0.831 -0.1057  0.1650  0.1540
14557W        W30366  12.691   1.094   4.945 -0.1879  0.4395 -0.0059
14558W        W30367  14.931   4.199  11.293 -0.1400 -0.0015  0.2311
14559W        W30368   2.743   3.939   0.401 -0.1784 -0.0417  0.1089
14560W        W30369  12.273   1.766   2.033 -0.0453 -0.0435  0.0647
14561W        W30370  15.598   6.251  12.629  0.0934  0.0306 -0.2244
14562W        W30371   5.395   6.197  15.745  0.2346 -0.0876  0.3865
14563W        W30372   2.276  16.064   2.206 -0.3011  0.0330  0.1519
14564W        W30373   1.683  17.956   5.089 -0.1882 -0.0818 -0.0864
14565W        W30374   7.995   3.200   4.428 -0.0395  0.0810  0.0157
14566W        W30375   7.382   7.595  12.552 -0.1024  0.1395 -0.0512
14567W        W30376   0.932   7.210   3.281 -0.4183 -0.1892  0.1513
14568W        W30377  14.936   9.376   0.547 -0.1846 -0.1098  0.0984
14569W        W30378   9.275   9.772   0.445  0.1952  0.1343 -0.3677
14570W        W30379   2.897  15.931   3.164 -0.0980 -0.0835 -0.0803
14571W        W30380  12.074   6.035   3.282  0.2894 -0.3426 -0.3254
14572W        W30381  14.237   2.933  12.220 -0.1211 -0.1617  0.1341
14573W        W30382  14.726  12.727  12.604  0.0437 -0.0187 -0.1314
14574W        W30383  11.346   0.513   9.529 -0.1885  0.1178  0.0925
14575W        W30384  18.408  15.055   2.472 -0.3156  0.0257  0.1650
14576W        W30385   9.074   6.108  13.049 -0.2755  0.0252  0.4414
14577W        W30386   0.019   3.272   2.406 -0.2300 -0.0371 -0.1184
14578W        W30387   2.988   5.794  11.520 -0.2406  0.2551 -0.0169
14579W        W30388   4.506  13.616   1.132  0.2124  0.1681 -0.0399
14580W        W30389   4.907  12.007   4.166  0.2511  0.0119  0.0496
14581W        W30390   5.823   6.150  13.335 -0.0105  0.0696  0.0277
14582W        W30391   8.270  10.847   3.605 -0.0675  0.1405 -0.1356
14583W        W30392  12.438   2.027  11.293 -0.0718  0.1105  0.0788
14584W        W30393  10.940  13.848   0.460 -0.2627 -0.3305  0.0793
14585W        W30394  13.328   2.223  15.368  0.0921 -0.0540  0.1612
14586W        W30395   9.471  17.804   3.471 -0.0563 -0.0247 -0.3069
14587W        W30396   1.187  18.597  11.078  0.5446 -0.0324  0.1892
14588W        W30397  11.739  11.455   2.082  0.1791  0.1817 -0.0158
14589W        W30398  11.986   6.411   4.551 -0.1591 -0.1145  0.0205
14590W        W30399  10.441   8.113   0.652 -0.1593 -0.0158 -0.1470
14591W        W30400   1.535  12.396   5.885  0.0689  0.1177  0.1400
14592W        W30401  14.952  12.291   4.147  0.2179 -0.1795  0.0190
14593W        W30402   2.440  13.095   1.207  0.1029  0.2056 -0.2672
14594W        W30403  13.037  14.330   4.163  0.2896  0.1073  0.0078
14595W        W30404   1.953   1.813   4.747  0.2007  0.1317  0.1891
14596W        W30405   1.360   8.493  13.530  0.1540  0.1099 -0.0348
14597W        W30406  11.648  13.428  14.512 -0.1090 -0.0283  0.1771
14598W        W30407   2.045  16.331  15.600 -0.2059  0.0144 -0.0906
14599W        W30408   9.836   2.214   1.332 -0.2442 -0.1504 -0.0769
14600W        W30409   8.100   2.730  14.195  0.3366  0.1289  0.0019
14601W        W30410  16.071  15.244   0.404 -0.0356 -0.2467  0.0267
14602W        W30411   7.926   4.279   2.155  0.2147 -0.4902  0.0729
14603W        W30412   2.072   7.068  12.485  0.2239 -0.2000  0.1561
14604W        W30413  16.257  16.732   1.521 -0.1070 -0.2044  0.2540
14605W        W30414  14.950  16.541  14.614 -0.1084  0.0664  0.1654
14606W        W30415  10.947  16.700  14.150  0.0030  0.0616  0.1988
14607W        W30416  18.637   3.512   1.124 -0.1882  0.2180  0.2069
14608W        W30417  11.187   2.316   3.977 -0.2314  0.3189 -0.0437
14609W        W30418  10.042   5.245   3.001 -0.1291  0.0925 -0.1550
14610W        W30419   9.655   2.259  14.911  0.1341 -0.2456 -0.1725
14611W        W30420  12.817   1.646  14.282 -0.4218  0.0582  0.0188
14612W        W30421   1.234  12.580  11.282 -0.1842  0.0470 -0.0791
14613W        W30422  18.299  17.307  15.165  0.0079  0.0633 -0.0182
14614W        W30423  18.630  15.134   3.796 -0.0462  0.1046 -0.2121
14615W        W30424  11.629  14.304   4.912 -0.0516 -0.2152 -0.3419
14616W        W30425   2.069   5.585  12.530  0.0361  0.1143 -0.3246
14617W        W30426   6.456   3.184   0.219  0.1214  0.0750  0.2106
14618W        W30427  15.363  13.257   5.032 -0.2520 -0.0841  0.0491
14619W        W30428   5.570   9.628   3.964  0.0943 -0.2757 -0.0061
14620W        W30429   8.540  11.149   2.149 -0.0395  0.3321 -0.4089
14621W        W30430   3.144   6.690  11.333  0.1131  0.0128  0.0930
14622W        W30431   9.674  13.267  10.605 -0.0681  0.2821 -0.1947
14623W        W30432   5.171   7.028   3.318  0.0025 -0.0264 -0.0728
14624W        W30433   7.844  16.384  13.018 -0.3297 -0.0479  0.0481
14625W        W30434   2.854   9.359   2.721 -0.1519  0.0618  0.0335
14626W        W30435   8.527   9.160   1.835  0.0766 -0.1676  0.3848
14627W        W30436  16.984  13.581  11.097  0.0402 -0.2006  0.3000
14628W        W30437   6.906  17.113   4.525 -0.1940  0.4758 -0.0249
14629W        W30438   0.632   7.577   0.978 -0.0488 -0.3441 -0.0991
14630W        W30439  13.426  17.376  15.308  0.1284 -0.0811 -0.1126
14631W        W30440   9.307   1.542   0.905  0.1309 -0.0113  0.1447
14632W        W30441   4.551   2.130   0.071 -0.1931  0.2153  0.0373
14633W        W30442   9.113  13.895   3.128 -0.2231 -0.3849  0.1699
14634W        W30443  16.740  14.106  10.947  0.0830 -0.2583  0.0678
14635W        W30444   1.812  12.859   4.098 -0.1915  0.4617  0.2863
14636W        W30445  16.144   0.498  10.749 -0.1178 -0.1212  0.1258
14637W        W30446  18.447   4.845   0.722 -0.0495 -0.0455  0.0908
14638W        W30447   3.075  17.320  15.331  0.1478 -0.1378 -0.0198
14639W        W30448  13.691  11.807   5.762  0.3278  0.0031  0.0203
14640W        W30449   5.857  13.930   4.287 -0.0547  0.1349 -0.3248
14641W        W30450   4.393  18.058   0.661 -0.4651 -0.0637  0.1479
14642W        W30451   3.404  15.217   1.013  0.2322 -0.0851  0.0845
14643W        W30452  17.827   3.153  11.427  0.0089 -0.0979 -0.2378
14644W        W30453   8.498   0.383   2.319  0.2731 -0.1657 -0.3585
14645W        W30454   6.615  13.817  13.709  0.1355  0.1301  0.2017
14646W        W30455   9.361  12.930  14.057 -0.0242  0.1092 -0.0240
14647W        W30456   2.264   4.270  11.417 -0.2206 -0.1070  0.2586
14648W        W30457  16.507   4.287  14.473 -0.1972  0.2433  0.1509
14649W        W30458   5.515  13.919  11.726  0.0053 -0.2957  0.0409
14650W        W30459   3.979   4.918  13.477 -0.0674  0.1441 -0.1938
14651W        W30460   2.108   6.876  11.929 -0.1641  0.1358  0.1165
14652W        W30461  15.346   6.252   2.094  0.2188 -0.0089 -0.0077
14653W        W30462   5.521  10.546  11.467  0.1734  0.3280  0.1818
14654W        W30463   8.448  13.452   0.706 -0.0589  0.3195 -0.0808
14655W        W30464   2.540  10.149  11.207 -0.2521  0.1803 -0.0985
14656W        W30465  10.798   7.624   0.629  0.4609 -0.0602 -0.2100
14657W        W30466  10.161  12.539   2.457 -0.3982  0.1709 -0.1048
14658W        W30467  11.175  10.950   3.683  0.1071  0.1271  0.0598
14659W        W30468  14.818  12.800   0.357  0.0403  0.2032 -0.4249
14660W        W30469   6.366   9.798   4.272 -0.1508  0.3093  0.1158
14661W        W30470  17.967   8.384   0.550  0.1920 -0.0005  0.2460
14662W        W30471   7.614  14.314  13.623 -0.0961 -0.0835  0.2947
14663W        W30472   7.589  12.750  15.368  0.2684 -0.2317 -0.0040
14664W        W30473  17.949   8.466  11.951  0.4224  0.0741  0.3264
14665W        W30474   6.892  18.503   3.331 -0.2272  0.2018 -0.1337
14666W        W30475  11.865   6.216  15.028  0.0529  0.1428  0.0635
14667W        W30476  11.287   9.845  11.930 -0.0507  0.3044  0.0732
14668W        W30477   3.702   4.446   0.106 -0.0941 -0.0175 -0.0502
14669W        W30478   6.182  16.877   3.365  0.1321  0.0820 -0.0329
14670W        W30479  13.023  17.298   0.147  0.0980 -0.0819  0.2628
14671W        W30480  18.454   4.070   0.057  0.2444  0.0566 -0.0071
14672W        W30481  15.456  16.536  12.294 -0.3490 -0.0319  0.0717
14673W        W30482  14.755   9.487  12.691 -0.0136  0.0046  0.0420
14674W        W30483  14.109  11.543  12.624 -0.2205 -0.0837  0.1022
14675W        W30484  13.104   9.747   2.545  0.3149  0.0020 -0.0362
14676W        W30485   4.275   9.793  11.751  0.0200 -0.1461  0.0579
14677W        W30486  18.520  16.399   4.790  0.0598 -0.0349  0.1772
14678W        W30487   5.091  17.292   0.833  0.0952  0.2067 -0.2207
14679W        W30488  13.465  10.939   0.144 -0.4298  0.0344  0.0192
14680W        W30489   2.622  18.589   1.167 -0.2148  0.0710 -0.3518
14681W        W30490   7.889  15.757   3.756 -0.0151 -0.1117  0.0304
14682W        W30491   5.591   9.980   6.325  0.1030 -0.0951  0.0122
14683W        W30492   4.812   8.526  12.779  0.5319 -0.0019 -0.1095
14684W        W30493   9.456   3.487  12.578  0.1563 -0.1316 -0.1537
14685W        W30494  11.214   4.349  10.944  0.0366  0.2179 -0.0807
14686W        W30495  10.527   1.264  12.227  0.2281  0.0494  0.0848
14687W        W30496  16.735   7.056  13.327 -0.1912 -0.1957  0.3647
14688W        W30497  16.574  10.183   4.827  0.1752  0.0779  0.2542
14689W        W30498   7.723  18.494  11.616  0.1508  0.1586 -0.0934
14690W        W30499  17.226  15.686  10.460 -0.0974 -0.2292 -0.2224
14691W        W30500   5.875   8.240  12.871 -0.0520 -0.3732 -0.0796
14692W        W30501  15.561   6.919   2.718  0.2976 -0.0985  0.0127
14693W        W30502  12.757  12.934  10.938 -0.1306 -0.2149 -0.1530
14694W        W30503   4.635  11.255   1.226  0.2618  0.0395 -0.0978
14695W        W30504  13.371   9.653  13.725  0.1152 -0.3336  0.1395
14696W        W30505   8.958   9.990  14.041  0.4987 -0.1363 -0.0233
14697W        W30506   0.555   1.363  11.052 -0.1080  0.1076 -0.1549
14698W        W30507  13.838   3.488  14.864 -0.3901  0.1221  0.0328
14699W        W30508  18.328  17.085  13.044 -0.2089  0.1439 -0.0666
14700W        W30509   0.149  13.470  13.431  0.1604  0.1956 -0.0661
14701W        W30510  16.584   9.201   1.520 -0.0284  0.3824  0.0244
14702W        W30511   8.472   3.919   4.082  0.0567 -0.2787  0.0651
14703W        W30512   4.161  10.003   4.037 -0.1171 -0.0113 -0.2722
14704W        W30513  12.931  15.915  12.801 -0.2025  0.2005  0.1039
14705W        W30514   4.051  11.874   4.781  0.0998  0.0628  0.0962
14706W        W30515   0.817   6.565   5.499 -0.3443 -0.1644  0.0139
14707W        W30516   7.849   5.225   5.892 -0.0163  0.2174 -0.2503
14708W        W30517   3.016  12.121   4.167 -0.0690  0.1576  0.2625
14709W        W30518   8.833  18.459   3.011 -0.0579 -0.0533 -0.3799
14710W        W30519   8.126  16.196  13.368  0.0756  0.1159  0.1379
14711W        W30520   8.170  11.532   5.130  0.1204 -0.0474  0.0937
14712W        W30521   5.403   5.333   4.729  0.1952  0.0322 -0.0334
14713W        W30522  11.021  14.462   3.405  0.0324 -0.1535  0.0015
14714W        W30523   4.770   5.167   0.435  0.1335 -0.1101  0.1111
14715W        W30524   3.145   4.356   4.877 -0.0387 -0.1452  0.0149
14716W        W30525  13.019   9.570  14.243 -0.0622 -0.2260 -0.0040
14717W        W30526  16.735   4.479  12.565  0.1074 -0.1927  0.0609
14718W        W30527   3.437  13.666   0.419  0.0928 -0.1687  0.0383
14719W        W30528   1.394  10.987   4.881  0.0680  0.2042 -0.1081
14720W        W30529   9.732  13.579  12.439 -0.0250 -0.0521  0.3385
14721W        W30530   6.360  12.252   5.297 -0.0230 -0.1422 -0.0917
14722W        W30531  11.677   0.048  13.181 -0.2505  0.2889 -0.0498
14723W        W30532  16.589   5.734  11.993  0.0928 -0.0473 -0.1422
14724W        W30533   5.393  18.650   1.728  0.0936  0.1540  0.2746
14725W        W30534  12.691   1.443  11.773  0.0176 -0.0314  0.2593
14726W        W30535  17.011  13.215  11.857  0.0478 -0.0217  0.1148
14727W        W30536   2.104  12.904   2.035 -0.0642  0.0994 -0.0152
14728W        W30537  17.656  13.914  15.488 -0.0469 -0.2687  0.4490
14729W        W30538   9.567  12.523   5.177  0.1598  0.1413  0.0977
14730W        W30539  16.444  10.482  10.833  0.0131  0.1789 -0.1459
14731W        W30540   0.080   7.619  12.146 -0.2547  0.2752 -0.1242
14732W        W30541  15.772  11.113  15.508  0.0917  0.2081  0.1973
14733W        W30542  17.695  16.486   3.531  0.1580 -0.2346 -0.1298
14734W        W30543   2.024   1.185   6.019  0.0462 -0.0639 -0.0104
14735W        W30544  10.875  15.014  11.054 -0.1053  0.0295 -0.0613
14736W        W30545  18.362  14.472   3.094  0.1188 -0.1875 -0.1367
14737W        W30546  12.483   2.533  12.716 -0.0813 -0.1261  0.2265
14738W        W30547   6.615  18.574  14.769  0.1984  0.0945 -0.2067
14739W        W30548  13.342  14.873  15.399  0.1668  0.0819 -0.0385
14740W        W30549  11.830  17.439   2.460  0.0074  0.0533  0.0914
14741W        W30550   1.032  10.682  15.332 -0.0373  0.0530 -0.2077
14742W        W30551   3.942  10.604   3.397  0.1245  0.0084 -0.0605
14743W        W30552  10.815  17.974   3.064  0.1084  0.1250 -0.2908
14744W        W30553   1.173  13.065   5.584 -0.0823  0.2728 -0.1990
14745W        W30554  10.580  14.643  11.252  0.0254 -0.1420  0.0477
14746W        W30555  12.576   5.013  11.123  0.0401 -0.0546  0.2985
14747W        W30556  12.094  16.435  13.293  0.3574 -0.4442  0.1919
14748W        W30557   3.888   9.154   1.728 -0.1356 -0.1101  0.1879
14749W        W30558  12.958  11.740  10.717  0.0059  0.0061 -0.2429
14750W        W30559  11.065  10.086  10.839  0.0775  0.3075  0.1905
14751W        W30560  16.658  18.315  13.519  0.0374 -0.2585  0.0229
14752W        W30561   1.026   5.599   1.967  0.3352  0.0986  0.1156
14753W        W30562   3.953   8.366  12.366  0.2718  0.1214 -0.1522
14754W        W30563  16.876   7.039   2.028  0.1542 -0.1573  0.0829
14755W        W30564   2.306   6.949   2.188  0.2496 -0.1211 -0.0158
14756W        W30565   9.902  12.097   5.593 -0.0461 -0.2392  0.1833
14757W        W30566   7.591   5.978  14.100 -0.3340 -0.0476 -0.0383
14758W        W30567   5.064  14.729  13.869 -0.3079  0.1401 -0.0603
14759W        W30568   0.199   7.786   5.467 -0.0778  0.3876  0.2048
14760W        W30569   5.804  17.171   2.419  0.0663 -0.1994 -0.1603
14761W        W30570   9.498  17.929  12.199  0.0819 -0.0006 -0.3240
14762W        W30571  17.105   1.184  14.312 -0.2530 -0.0240 -0.1872
14763W        W30572  11.648  12.035  15.625 -0.0895  0.2811  0.5488
14764W        W30573  16.051  17.133  13.726  0.0243 -0.0892 -0.0959
14765W        W30574   2.957  12.523  12.019 -0.1616 -0.0522  0.3034
14766W        W30575  17.750   3.970  15.203 -0.1284  0.0256  0.2429
14767W        W30576   4.587  18.534   0.801 -0.0999  0.0574  0.0228
14768W        W30577  15.810   4.041   2.386  0.3105 -0.0409 -0.1377
14769W        W30578   9.934  14.633  10.414 -0.1532 -0.0109  0.1193
14770W        W30579   0.261   9.097   3.737  0.2047 -0.1641 -0.0366
14771W        W30580   5.755  15.249   1.617 -0.0038 -0.0784 -0.0412
14772W        W30581  14.255   5.107  14.330 -0.1724 -0.1047  0.0346
14773W        W30582   3.010  17.397  11.398  0.1850  0.0843  0.0889
14774W        W30583   0.319   2.547  12.306 -0.2063 -0.1288  0.0664
14775W        W30584  17.135   1.807   4.600 -0.1749  0.2213  0.1676
14776W        W30585  15.266   4.797   3.601  0.1157  0.0810 -0.3027
14777W        W30586  15.864   1.645   3.213  0.1763  0.1991  0.2597
14778W        W30587  10.395  13.200  11.725 -0.2954  0.0402  0.2122
14779W        W30588   4.215   8.803   1.629 -0.3355 -0.1375  0.0583
14780W        W30589  16.564   5.721   4.906 -0.0713  0.0869  0.0621
14781W        W30590   0.558   6.728   1.307 -0.0637 -0.4124 -0.2479
14782W        W30591  14.375   8.845   0.451 -0.1005 -0.3714 -0.0164
14783W        W30592   2.549  13.656  14.524  0.1305 -0.1055  0.0338
14784W        W30593   7.216   3.046   3.669  0.3281 -0.1468  0.0552
14785W        W30594   5.594   0.848   1.590 -0.1213 -0.0165 -0.2660
14786W        W30595  10.135   0.868   2.107 -0.1105 -0.1322 -0.0013
14787W        W30596  11.854  18.479   1.194  0.1127  0.0601  0.0279
14788W        W30597   3.145  13.267  14.043  0.2462 -0.1590 -0.5900
14789W        W30598  12.857   0.132  13.982  0.0405 -0.3927 -0.1177
14790W        W30599   0.446   1.443  11.610 -0.1495  0.4409 -0.3350
14791W        W30600  12.063   7.592   5.405  0.0484 -0.0200  0.1144
14792W        W30601   7.149   9.493   1.415  0.0927  0.0956  0.4372
14793W        W30602   0.529  17.298   4.552  0.1981 -0.2393 -0.1329
14794W        W30603  12.046  12.625   2.177  0.2818 -0.2661 -0.1020
14795W        W30604   4.071   0.763   3.717  0.0510  0.1546 -0.1693
14796W        W30605   4.765  13.024   3.199  0.1635  0.3331  0.0915
14797W        W30606   8.330   0.161   4.639  0.1021 -0.1789  0.2222
14798W        W30607  13.285   7.379   0.500 -0.3139 -0.0965 -0.0538
14799W        W30608  18.564  14.983  12.756  0.1281  0.0058 -0.2263
14800W        W30609   0.764   3.826  12.278  0.0445  0.1981 -0.1650
14801W        W30610  16.025   1.699  10.283 -0.0148 -0.1153 -0.4249
14802W        W30611  18.502   1.948   1.955 -0.0764  0.0545  0.1774
14803W        W30612   4.500  13.142   0.566  0.2099 -0.1646  0.0640
14804W        W30613  17.857   8.386   5.806 -0.0086  0.1088  0.0004
14805W        W30614  16.893   2.340  12.376  0.1271  0.1124 -0.1414
14806W        W30615  10.542  15.311  14.392 -0.3222 -0.1966 -0.1388
14807W        W30616   4.715  16.467  13.258  0.0789 -0.0536  0.1015
14808W        W30617  10.456   8.703   0.242  0.0317 -0.2655 -0.0825
14809W        W30618  18.070  13.903   1.826  0.0995 -0.2793  0.1277
14810W        W30619   1.965   2.632  11.330 -0.0952  0.1043 -0.2332
14811W        W30620  15.142   7.923   3.672  0.0130  0.1432 -0.1379
14812W        W30621   9.430  18.025  15.416 -0.0147  0.1034 -0.0928
14813W        W30622  15.173   0.553  14.419 -0.0960 -0.1204 -0.0606
14814W        W30623   2.561   9.839  15.485 -0.1821 -0.0901 -0.1451
14815W        W30624  16.853  12.580  13.458  0.2611 -0.3237  0.3331
14816W        W30625   2.588   4.987   3.063 -0.0933  0.2626 -0.4007
14817W        W30626   5.793  15.902  12.611 -0.0340 -0.2847 -0.1815
14818W        W30627   2.252  11.072  11.201 -0.0305 -0.0121  0.3524
14819W        W30628   6.721  13.186  15.458  0.0759  0.0945 -0.0594
14820W        W30629  12.675  18.516   3.130  0.3921 -0.0315  0.0349
14821W        W30630   5.838  17.540  13.638 -0.0412 -0.1061 -0.0174
14822W        W30631   8.980  14.890  12.343 -0.2245  0.0730  0.1020
14823W        W30632  18.319  15.828   0.695 -0.2400  0.1750  0.0491
14824W        W30633  18.049   5.166   0.684 -0.0581 -0.3978 -0.1300
14825W        W30634   2.668   5.870  15.130 -0.1618 -0.1901 -0.0719
14826W        W30635  10.179   2.546   4.609  0.3342 -0.0415  0.1845
14827W        W30636  14.421  13.758   2.780  0.0655 -0.3697 -0.1186
14828W        W30637  17.073  14.441  12.440  0.3584 -0.1926 -0.1165
14829W        W30638   1.635  17.320  11.363 -0.0233  0.1452 -0.0174
14830W        W30639  10.353  13.741  11.526 -0.1939 -0.1193  0.0817
14831W        W30640  11.113   8.138   5.101  0.0370  0.0961 -0.2871
14832W        W30641  13.892   0.622  11.953  0.1853 -0.0001 -0.1253
14833W        W30642   2.807   7.294  12.622 -0.0659 -0.2693  0.2120
14834W        W30643  15.062   5.292   4.029 -0.3905  0.1332  0.0890
14835W        W30644   1.789   8.448   2.444 -0.3541  0.0313 -0.0243
14836W        W30645   6.619   2.277  14.128  0.1018  0.0193 -0.1281
14837W        W30646   9.816  17.977   1.721  0.0330  0.1356 -0.0587
14838W        W30647  11.934   6.310  15.612  0.0473  0.1017  0.0738
14839W        W30648  12.081  14.920  14.945 -0.2314  0.0446  0.0042
14840W        W30649   2.491  14.932   2.746 -0.2711 -0.0977  0.1409
14841W        W30650  18.378   4.763   3.134  0.0165 -0.1780  0.2797
14842W        W30651  16.752  16.543   2.599  0.2068  0.0678  0.1082
14843W        W30652   5.482   3.065  13.824 -0.2698  0.1447  0.0047
14844W        W30653   5.259   0.565   0.862  0.0243  0.1348  0.0750
14845W        W30654  12.323  16.980  13.985  0.1946  0.1812  0.1486
14846W        W30655   8.985   0.512  15.711  0.1918  0.1768  0.3044
14847W        W30656   3.663   5.943   5.954 -0.1272 -0.0478 -0.2240
14848W        W30657   1.253   1.554   5.760 -0.4099  0.1872 -0.1445
14849W        W30658   8.058   9.181  14.428  0.2005  0.3482 -0.1864
14850W        W30659  12.840  14.942   4.516  0.1623 -0.0551 -0.1499
14851W        W30660  14.031  15.458  14.883 -0.0421 -0.1705 -0.0176
14852W        W30661  18.512  12.510   2.182 -0.2125  0.2317 -0.0574
14853W        W30662   4.063   0.403   1.675 -0.2080  0.3495  0.1824
14854W        W30663   3.177  18.635   1.105  0.1063 -0.4359  0.0253
14855W        W30664  12.341  17.661  11.714  0.0146  0.3261  0.0625
14856W        W30665   5.970  13.260   3.277 -0.3032  0.1316  0.0654
14857W        W30666   6.527   0.247  10.859 -0.1104 -0.3541 -0.2583
14858W        W30667  16.052   7.805   4.843 -0.1944  0.0438  0.2570
14859W        W30668   5.622   9.044  13.431  0.1962 -0.2782  0.0758
14860W        W30669   5.403   1.006   2.086  0.0129  0.1654 -0.0715
14861W        W30670  13.980  10.657  11.146  0.2370 -0.2325  0.1841
14862W        W30671  10.499   8.883   2.778  0.0597  0.0864 -0.4215
14863W        W30672  14.101   3.764  12.538  0.0052  0.0848 -0.1109
14864W        W30673   2.118  12.758   1.553 -0.0323  0.0407 -0.2936
14865W        W30674   0.772   5.896  13.648 -0.0951 -0.0145  0.0502
14866W        W30675  16.988  11.612   0.022 -0.0202 -0.0463  0.0728
14867W        W30676  13.936   7.229  15.126 -0.1953  0.1477 -0.2500
14868W        W30677   5.519   1.671   3.021 -0.0407  0.0571  0.1892
14869W        W30678  14.147  14.347   0.524 -0.0482  0.3221  0.1263
14870W        W30679  11.309   5.732  12.982 -0.1751  0.2416  0.1154
14871W        W30680  17.986  12.036   2.638  0.2864  0.2838 -0.1264
14872W        W30681  11.197  16.680   0.626  0.0905 -0.1087  0.0638
14873W        W30682   4.043   9.221   3.343  0.4233  0.2193 -0.1104
14874W        W30683  10.086  10.865   0.191  0.1393 -0.2469 -0.3161
14875W        W30684   0.925  11.391  13.062 -0.4027 -0.3305 -0.3203
14876W        W30685   2.565   3.198  13.825  0.3879 -0.2047  0.2637
14877W        W30686   4.806  12.403  15.267  0.0231 -0.1352 -0.0844
14878W        W30687   6.945  12.245   0.964 -0.0168 -0.1371  0.1752
14879W        W30688   7.759   7.877  12.399  0.0511  0.0077 -0.0861
14880W        W30689   3.532   0.705   2.740 -0.3543  0.1219 -0.4612
14881W        W30690  16.422   2.948  13.152 -0.0181  0.1224 -0.0576
14882W        W30691   8.113   1.107   4.571  0.1524  0.0865 -0.1915
14883W        W30692  14.883   1.225  10.796 -0.1528 -0.1190 -0.0797
14884W        W30693  13.573  18.062   1.657 -0.2163 -0.4132  0.3006
14885W        W30694   6.979  18.454  15.648  0.0597 -0.0540  0.0084
14886W        W30695   9.367   4.409  15.530  0.0323  0.0228 -0.1177
14887W        W30696  18.380   0.414  15.487 -0.2363 -0.1246 -0.1607
14888W        W30697   6.808   5.666  12.737 -0.1444  0.1851  0.3086
14889W        W30698  11.059   7.433   4.120 -0.2889 -0.0065 -0.1124
14890W        W30699  14.287  14.133  11.128  0.1219 -0.1832 -0.0632
14891W        W30700   5.147  18.380   2.256 -0.1530  0.1810 -0.0681
14892W        W30701   4.006   8.819  10.682  0.1567  0.0794  0.0885
14893W        W30702  18.165   8.252   4.542  0.0654 -0.1522 -0.0754
14894W        W30703   1.117   6.255   2.638  0.3147 -0.0389  0.1828
14895W        W30704   1.872   4.380   4.993 -0.2149 -0.1851 -0.1013
14896W        W30705  11.829  17.782  11.731 -0.0040 -0.0349 -0.0139
14897W        W30706   5.786  10.029  15.604 -0.0495  0.2136  0.0229
14898W        W30707  13.639   6.602   3.440 -0.0663 -0.2108 -0.2460
14899W        W30708  10.877   7.891   4.192  0.3258  0.2053 -0.3082
14900W        W30709  15.208   1.334   1.688  0.2073 -0.3135  0.0363
14901W        W30710   3.965   6.285   1.330 -0.0006 -0.2889  0.1984
14902W        W30711  15.278  10.812   1.693 -0.0042  0.1284  0.0053
14903W        W30712  17.915   5.066  11.260 -0.1789  0.0458  0.1609
14904W        W30713  10.613  16.155   0.430  0.0938 -0.1065 -0.0548
14905W        W30714  11.773   8.515  13.698 -0.2920 -0.2426  0.1714
14906W        W30715   8.738   0.234  14.771  0.1015  0.3236  0.0749
14907W        W30716  15.633  15.817   4.971  0.0379  0.0431  0.2586
14908W        W30717  17.976  13.835   4.465 -0.3381 -0.0575 -0.1984
14909W        W30718   9.506   7.306   4.409 -0.0660 -0.4804 -0.0148
14910W        W30719   3.132   7.089   0.460  0.0241 -0.0637  0.1053
14911W        W30720   6.197   8.367  12.495  0.1288 -0.0382  0.0522
14912W        W30721   6.091  18.066   1.409  0.1691 -0.1401  0.0060
14913W        W30722  14.422   9.632   1.508 -0.0162 -0.0387 -0.1271
14914W        W30723  11.799  14.392   2.121  0.0845  0.1049 -0.0433
14915W        W30724  17.298   1.167  13.835  0.0334  0.2604  0.3424
14916W        W30725  13.123  17.164   1.002 -0.3300 -0.1490  0.1519
14917W        W30726   4.556  15.357   1.865  0.1143  0.3980  0.1565
14918W        W30727   8.789  15.652   3.130  0.4623 -0.1904 -0.2303
14919W        W30728   3.571  16.566   2.431 -0.1091 -0.0593  0.0226
14920W        W30729   7.277   5.768  14.396  0.1443  0.0959 -0.1061
14921W        W30730  11.063   9.080  11.550  0.2644 -0.2207  0.1257
14922W        W30731  10.181  14.285  12.875 -0.0179  0.0264 -0.1004
14923W        W30732   2.895  10.036  14.211 -0.1589  0.3097 -0.1068
14924W        W30733   6.173   1.211   5.320  0.0645  0.1716 -0.1044
14925W        W30734  12.393  17.060   0.501  0.5584 -0.0270  0.0782
14926W        W30735   7.516   3.853  13.853 -0.1012 -0.2954 -0.1556
14927W        W30736  13.742   7.067  13.367 -0.1519 -0.0496 -0.2954
14928W        W30737  16.813  16.609   0.643 -0.1276 -0.1480  0.0853
14929W        W30738  16.851   2.716  11.130  0.0701  0.1071  0.1574
14930W        W30739   7.662   8.404  12.058  0.1979  0.0822  0.0159
14931W        W30740  11.416  13.258   0.690  0.1650 -0.0449  0.1319
14932W        W30741   2.493   4.617   1.549 -0.0374 -0.1475 -0.0995
14933W        W30742  12.006   7.377  14.718 -0.0288  0.1166 -0.1938
14934W        W30743   6.646  14.647  15.543  0.2203 -0.1035 -0.0160
14935W        W30744   0.341   2.221  13.047 -0.0946 -0.1030  0.0826
14936W        W30745   3.840  10.872   1.982 -0.1746 -0.0364 -0.1885
14937W        W30746  18.180   7.513  11.959 -0.1849 -0.0092 -0.0183
14938W        W30747   1.428  16.989  14.276  0.0863 -0.1901  0.0866
14939W        W30748   1.584  18.063  15.289  0.3126  0.1495  0.3574
14940W        W30749  14.598   0.902   1.011 -0.2812  0.0119 -0.1745
14941W        W30750   7.153   1.980  14.867  0.0113  0.1458 -0.0132
14942W        W30751  16.800  16.204   4.575  0.0056  0.0466 -0.3226
14943W        W30752  10.468  10.017  13.602 -0.0927 -0.1553  0.0328
14944W        W30753  11.223  13.382  14.864 -0.2040 -0.0401 -0.1961
14945W        W30754   3.435   3.771  12.160  0.0640  0.0936 -0.0770
14946W        W30755  11.164   9.003   0.656 -0.1519 -0.1935 -0.2275
14947W        W30756   5.393  15.647  15.174 -0.0494 -0.0037 -0.4062
14948W        W30757  10.875   0.245  13.101 -0.0455 -0.1709  0.1396
14949W        W30758   8.625   3.696  12.201 -0.4090 -0.1333  0.2025
14950W        W30759   2.739   9.182  15.313 -0.2243 -0.0844 -0.3051
14951W        W30760  13.573   1.074  12.879 -0.1873  0.2235  0.1140
14952W        W30761   2.546  15.756  15.008 -0.1409 -0.0222  0.0454
14953W        W30762   0.286   0.914  14.401  0.3185  0.2354  0.0610
14954W        W30763  10.851  17.176   0.453  0.2208  0.1645  0.1941
14955W        W30764  14.475  12.846  12.143 -0.0745 -0.1779  0.0435
14956W        W30765   6.815   0.653  10.710  0.2156  0.1596 -0.2547
14957W        W30766  17.572  12.969  14.566 -0.0031  0.1676 -0.0255
14958W        W30767   0.319  10.443   3.676  0.2429 -0.0231 -0.0918
14959W        W30768   6.908   9.421  10.949  0.0854  0.4228 -0.1613
14960W        W30769  15.291  15.173  14.593  0.4741  0.0083  0.1218
14961W        W30770   0.766   4.633   3.223  0.0705 -0.3746  0.2045
14962W        W30771   2.129   1.904  13.474  0.2576 -0.1541  0.0278
14963W        W30772   2.185  11.744  13.099  0.0442  0.0498  0.0122
14964W        W30773   3.870  11.639   3.860  0.1013  0.2257 -0.1593
14965W        W30774   0.963   4.197   1.615 -0.1254 -0.2184  0.2214
14966W        W30775  15.288  15.886  15.430 -0.0055 -0.0566 -0.3195
14967W        W30776   9.356  15.079   5.205 -0.0441 -0.4088 -0.0567
14968W        W30777   5.636   4.608  13.305  0.1440  0.0759  0.0391
14969W        W30778   4.434   2.246   2.441  0.1194  0.1186 -0.2268
14970W        W30779  13.771   1.487  12.443 -0.1060  0.0941 -0.0763
14971W        W30780  12.954   2.117   2.707  0.0961 -0.0120 -0.4132
14972W        W30781   6.876   3.360   0.470  0.4078 -0.0885  0.2251
14973W        W30782  14.952   0.657   2.870 -0.1532  0.3906 -0.0358
14974W        W30783  16.788   4.000   3.049 -0.1298  0.1978 -0.1208
14975W        W30784  18.435  14.462  14.146  0.2717 -0.2234 -0.0633
14976W        W30785  10.294  18.292  15.081  0.1386  0.2178  0.4030
14977W        W30786   2.849   6.308  11.629  0.1346 -0.1340  0.1271
14978W        W30787  17.194   0.291   5.522 -0.0792  0.0692  0.0313
14979W        W30788   6.814   4.487   0.355  0.2851 -0.1542  0.1861
14980W        W30789   9.101  18.160  13.748 -0.2633  0.1396 -0.0457
14981W        W30790   3.872   5.749  15.229 -0.2696  0.0177 -0.0241
14982W        W30791  13.992   5.576  12.917 -0.1369  0.2373 -0.1608
14983W        W30792   7.893  14.372   1.846 -0.0666  0.2264 -0.0554
14984W        W30793   1.812  17.628   4.779  0.0124  0.0875  0.0466
14985W        W30794  13.454   6.598  14.251 -0.2051  0.4495 -0.5068
14986W        W30795   2.485  18.076  14.690 -0.0518 -0.1650 -0.0910
14987W        W30796   3.884   4.388   1.741 -0.0180 -0.1992 -0.0973
14988W        W30797   3.991   4.336  14.528 -0.3731 -0.1409 -0.0680
14989W        W30798   5.771  14.037   2.727 -0.2633  0.0738 -0.6267
14990W        W30799   0.520   0.395  14.377 -0.0829  0.0786  0.0097
14991W        W30800  11.186   2.174   4.672  0.0619 -0.5219  0.0784
14992W        W30801  15.634  11.271  14.286  0.2472  0.3795  0.2980
14993W        W30802   4.026   2.554   2.584 -0.1470  0.1751 -0.3281
14994W        W30803  10.147  16.177   1.486 -0.0808 -0.0244 -0.1337
14995W        W30804   4.882  11.210   0.407  0.0161  0.1239 -0.3897
14996W        W30805   1.719  15.825   1.539  0.0434 -0.2252 -0.2378
14997W        W30806  14.289   9.530   4.225  0.2005 -0.1832 -0.2818
14998W        W30807  16.217  18.508   3.765 -0.2202  0.0602 -0.0615
14999W        W30808   4.443  11.736  12.095  0.0680 -0.2031  0.0648
15000W        W30809   7.854   0.710  12.881 -0.1408 -0.0475  0.1664
15001W        W30810  12.041   7.117   2.636 -0.1489 -0.1622  0.1644
15002W        W30811  12.041  13.821  12.171  0.0058 -0.0567  0.0021
15003W        W30812   3.338  13.202  12.698 -0.1202 -0.0473  0.1127
15004W        W30813  14.596  17.589   0.852 -0.3831  0.0717  0.0548
15005W        W30814   0.335   3.728  14.246 -0.0016  0.2501 -0.1629
15006W        W30815   7.603   3.592   4.273 -0.0357  0.0475 -0.0808
15007W        W30816  10.950   6.262  12.191 -0.2359 -0.1231 -0.3974
15008W        W30817  14.033  16.645   4.786  0.1830  0.2941 -0.0821
15009W        W30818   8.222   7.614  13.069 -0.1510 -0.0682  0.3214
15010W        W30819   7.740  12.142  14.505 -0.0729  0.0698  0.1042
15011W        W30820  18.447  10.093   2.270  0.1742  0.2447  0.0926
15012W        W30821   1.466   6.107  12.908 -0.2079  0.0281 -0.1002
15013W        W30822   3.514  18.634  10.525 -0.0376  0.1281 -0.1718
15014W        W30823   4.464   4.825   5.017 -0.0078  0.1076 -0.1357
15015W        W30824   2.374  15.829   4.487 -0.0299  0.1828 -0.3180
15016W        W30825  17.752  14.882   0.183  0.1430 -0.0775 -0.1769
15017W        W30826  14.349   9.872  12.523  0.2428 -0.0719  0.3830
15018W        W30827   2.642   9.935   1.467  0.0637  0.1644 -0.1443
15019W        W30828  11.335   8.012   5.507 -0.1788 -0.0462  0.0781
15020W        W30829   5.772  17.748  14.142 -0.0008  0.0429  0.0209
15021W        W30830  17.031   8.041  11.781 -0.0770  0.3269  0.0331
15022W        W30831  18.257   4.330  11.592 -0.2430  0.1593  0.0348
15023W        W30832  15.582   7.780  12.921 -0.0140 -0.0028 -0.3365
15024W        W30833   6.446   1.467  12.211  0.1437 -0.2688 -0.7266
15025W        W30834  15.389  17.778   1.302 -0.1324  0.0309 -0.1722
15026W        W30835   9.440  11.188  11.454 -0.1394 -0.0124  0.0965
15027W        W30836   3.343  15.288  15.518 -0.3449  0.1041  0.1531
15028W        W30837  13.315   9.661  10.181  0.2005  0.0702 -0.1372
15029W        W30838  10.339   4.613  10.898 -0.2174 -0.3933 -0.3832
15030W        W30839  11.594   1.017   9.786 -0.3370 -0.1255  0.2207
15031W        W30840   1.883   8.965  10.524  0.0798  0.1833 -0.2359
15032W        W30841   8.764  10.568  13.667 -0.1489 -0.0735 -0.0232
15033W        W30842   1.241   9.757  14.865 -0.1915 -0.3497  0.2365
15034W        W30843  13.097  13.697  14.682  0.3153 -0.1856  0.4731
15035W        W30844   6.183   8.973   3.862  0.0127  0.1095  0.1267
15036W        W30845  10.520   4.918  14.914 -0.0369  0.1165  0.1535
15037W        W30846   0.780   6.244  12.292  0.1865  0.2760 -0.1533
15038W        W30847   7.670   0.826   3.258  0.2511  0.0952 -0.0858
15039W        W30848  17.967   9.747  13.475  0.0617  0.2699  0.0357
15040W        W30849  15.279  17.781  14.517 -0.2062  0.2748 -0.0988
15041W        W30850   6.383  16.158  14.358  0.0770 -0.0188 -0.2213
15042W        W30851  13.796   7.991  14.099 -0.0053 -0.1070  0.0263
15043W        W30852   2.667  15.632  12.864 -0.0787 -0.2032  0.1704
15044W        W30853   7.194  17.716  11.788 -0.1929 -0.1447  0.0122
15045W        W30854  13.607  13.416  10.885 -0.0889  0.0361  0.0662
15046W        W30855   7.736   5.602   5.091  0.3023 -0.0906 -0.1154
15047W        W30856  12.553  15.194   2.821  0.2290 -0.0612  0.2078
15048W        W30857  11.687  16.210   4.869  0.2614 -0.0621  0.1114
15049W        W30858   2.107  10.209   3.719 -0.0961  0.3494  0.1022
15050W        W30859  17.045  15.159   1.404 -0.0636 -0.0267 -0.1864
15051W        W30860  10.141  14.859   4.275  0.3936  0.2005 -0.2530
15052W        W30861  15.510  11.344   1.646 -0.1022  0.2338 -0.1247
15053W        W30862   3.582   4.212  14.392  0.2181 -0.0567  0.0877
15054W        W30863   2.766  13.011   3.990  0.2070 -0.0634 -0.3518
15055W        W30864   6.562   9.538  14.128 -0.0061 -0.0444  0.2720
15056W        W30865  18.496  10.686   1.429 -0.1133  0.0833  0.2708
15057W        W30866  15.934   0.559  13.203  0.0057  0.1151  0.0842
15058W        W30867  17.859   0.506  11.024  0.0165 -0.3020 -0.2389
15059W        W30868  13.616   5.125  13.421 -0.1104 -0.0133  0.0520
15060W        W30869   0.532  16.615  13.074  0.0149  0.0313  0.0761
15061W        W30870   0.602   0.507  11.481  0.1614  0.1657 -0.0373
15062W        W30871   9.782   6.543  11.491  0.0106 -0.3303  0.1177
15063W        W30872   7.066   3.647  15.251 -0.1483  0.0070  0.3218
15064W        W30873   8.668   6.049   3.561 -0.0488 -0.1241 -0.0096
15065W        W30874   5.740  17.895   3.380 -0.1370 -0.0972  0.1870
15066W        W30875   2.160   8.513   4.946  0.0729  0.3236 -0.0194
15067W        W30876  17.747   0.118   4.588  0.1173  0.1476 -0.1701
15068W        W30877   5.975   4.973  12.635 -0.1629 -0.4213  0.1140
15069W        W30878  17.669  16.086  10.872  0.1523  0.0456  0.1445
15070W        W30879   6.046   2.891  11.157 -0.1333  0.0582  0.0032
15071W        W30880   3.693  18.387   2.234 -0.0408  0.1376 -0.0545
15072W        W30881   3.260  14.397   0.002  0.0066  0.1112 -0.1043
15073W        W30882   3.831  17.014   0.749  0.1926 -0.3520  0.1510
15074W        W30883   5.470  18.026   3.788  0.1111 -0.0735 -0.1219
15075W        W30884   3.969   4.803   5.084  0.0406  0.1889  0.1095
15076W        W30885   7.535   6.564   5.534  0.3692  0.2730 -0.1148
15077W        W30886  15.311  12.260   1.096 -0.1685 -0.1278  0.1041
15078W        W30887   9.352  18.018  11.198  0.0234 -0.2131 -0.2315
15079W        W30888  16.008   7.573  13.691 -0.1877 -0.0665 -0.0216
15080W        W30889   5.422  12.044   1.337  0.0909 -0.3072  0.0470
15081W        W30890  11.215  10.773  15.476 -0.1958 -0.0787 -0.1048
15082W        W30891   9.230  18.049  12.992  0.1685 -0.1956 -0.0542
15083W        W30892  10.496   9.810   3.988  0.1036 -0.1085  0.0755
15084W        W30893   2.771  15.981  13.967 -0.0645  0.0642  0.1394
15085W        W30894  10.369  12.647  13.747 -0.0062 -0.0450 -0.0930
15086W        W30895  17.141  18.152  14.754  0.1877 -0.1354  0.0249
15087W        W30896  10.592   4.113   3.130  0.0244 -0.3993 -0.2507
15088W        W30897  17.218  17.204   1.282 -0.2516  0.0326 -0.0652
15089W        W30898  10.440   9.270  11.792 -0.1842 -0.0559  0.1571
15090W        W30899   7.091   5.176   1.917 -0.1511  0.1150  0.2724
15091W        W30900   9.182  11.413  15.573  0.0244 -0.1852 -0.1924
15092W        W30901  17.533   0.852  14.335  0.0582  0.0582  0.1021
15093W        W30902   3.750   5.027  15.008 -0.2033 -0.0478  0.1421
15094W        W30903   4.582   9.683  14.024 -0.1907 -0.1047 -0.1896
15095W        W30904  11.530   6.040   4.834  0.2194  0.1702  0.4539
15096W        W30905   0.051  18.636   4.803  0.0083 -0.0821 -0.0546
15097W        W30906   7.482   1.911  10.481  0.3485 -0.0207 -0.0899
15098W        W30907   4.437   5.164  14.319  0.0310 -0.0884 -0.1662
15099W        W30908  11.238   2.028   2.340  0.3932 -0.3980  0.0638
15100W        W30909   2.624  18.483  10.651  0.1787 -0.1844  0.1742
15101W        W30910  18.233  14.273   3.612 -0.0809  0.2536  0.2223
15102W        W30911   7.227   6.418  12.910  0.1946 -0.1220 -0.0126
15103W        W30912  12.070   5.029   1.666  0.0529  0.0943  0.2850
15104W        W30913  11.780  10.257   0.275 -0.1546  0.1178  0.0858
15105W        W30914  13.923  10.032  10.495  0.0923 -0.2544 -0.1476
15106W        W30915   0.203   2.907  15.316  0.3563  0.1940 -0.3139
15107W        W30916  14.951  10.197   5.050  0.1247 -0.2051 -0.1810
15108W        W30917   1.062  17.026   1.114 -0.3181  0.2627  0.0587
15109W        W30918  10.049   5.092   0.178 -0.0219  0.4848 -0.1136
15110W        W30919  14.250   3.234  10.475  0.0325 -0.1303 -0.2454
15111W        W30920  15.363  12.791   0.824  0.0678 -0.0326  0.1056
15112W        W30921  15.728  13.252   3.410  0.0966 -0.2163 -0.0539
15113W        W30922  18.175   4.870   4.474  0.0467  0.0808  0.2633
15114W        W30923   2.716   7.104   0.767 -0.1881 -0.1596 -0.1659
15115W        W30924   0.242  16.714  11.131 -0.0228  0.0034  0.0303
15116W        W30925   9.737  18.274  13.047  0.0580 -0.1834  0.0509
15117W        W30926   6.586   9.586  12.940 -0.4142 -0.0866 -0.1073
15118W        W30927  17.198  17.086  12.121 -0.4856  0.1514 -0.2122
15119W        W30928   9.783   6.534   3.990 -0.3443  0.4070  0.4534
15120W        W30929  13.627  12.700  12.750 -0.2399  0.0896  0.1417
15121W        W30930  16.005   2.347  15.355  0.1244  0.0895 -0.2175
15122W        W30931  17.666  13.321   2.388 -0.0949 -0.0431 -0.0677
15123W        W30932   1.806  12.348   4.826 -0.1082 -0.1857  0.2160
15124W        W30933  10.839   5.572  15.234 -0.1079 -0.1128 -0.1453
15125W        W30934  11.053   0.936  11.539 -0.2855  0.1229  0.0909
15126W        W30935   8.827  17.323   9.244  0.0700 -0.2284 -0.0887
15127W        W30936   3.995  11.331  14.113  0.0768 -0.0916  0.0294
15128W        W30937  14.570  11.506  15.115 -0.0693  0.0085  0.1894
15129W        W30938  17.866  14.813  11.298 -0.3840  0.0985 -0.3949
15130W        W30939  18.111   1.589  12.354 -0.2026  0.1067  0.1992
15131W        W30940   9.518   9.467  11.173  0.1655 -0.1936  0.1284
15132W        W30941  12.036  11.049   3.264 -0.1104 -0.2528  0.1017
15133W        W30942   6.682  18.007  13.425 -0.1284  0.1206 -0.0155
15134W        W30943   0.291   6.177   3.535  0.3419 -0.0680  0.0972
15135W        W30944  11.546   0.697   2.175  0.2944 -0.4767  0.0546
15136W        W30945   1.354   6.557   6.630 -0.0292  0.1332 -0.2789
15137W        W30946  17.702   2.556   5.726 -0.4482 -0.2068  0.0755
15138W        W30947  15.031   8.055   3.182 -0.0975 -0.0382 -0.1921
15139W        W30948   5.132   9.052  15.106  0.1114  0.0839 -0.2584
15140W        W30949  11.469   7.180  13.200 -0.1727 -0.2122 -0.0697
15141W        W30950   5.753   3.211   2.597  0.0770 -0.3225 -0.3202
15142W        W30951   1.106   2.485  10.918  0.0692  0.4871 -0.1337
15143W        W30952   6.785   0.072  15.266  0.0349 -0.2330  0.2249
15144W        W30953   7.255   7.154  12.431 -0.0462  0.1077  0.0026
15145W        W30954  12.535  10.213   0.641 -0.1833  0.4356  0.3087
15146W        W30955   2.863  13.832  12.932 -0.2525 -0.2227  0.1494
15147W        W30956  13.454   8.215   1.424  0.1945 -0.2623 -0.0390
15148W        W30957  13.886   7.562  13.370  0.0283 -0.2908  0.0673
15149W        W30958  10.942   3.350   3.211 -0.1751  0.0045  0.1613
15150W        W30959   9.457  10.635   3.831 -0.0421 -0.1539  0.1562
15151W        W30960  11.224  11.448  13.539  0.2170  0.1385 -0.0986
15152W        W30961  14.071  14.037   3.150  0.0033  0.4585  0.0854
15153W        W30962  10.844   7.831  13.706  0.0986 -0.0106  0.0384
15154W        W30963  13.445   3.589  15.303  0.0518 -0.2019 -0.2447
15155W        W30964   9.790  10.652   0.959  0.0098  0.1886  0.1946
15156W        W30965   0.863   0.360  12.635 -0.3789  0.0340 -0.2625
15157W        W30966  12.743  17.733   3.831 -0.2193  0.0725 -0.0767
15158W        W30967  13.096   3.188   3.140 -0.4990  0.3651  0.1499
15159W        W30968   8.298   7.867   2.128  0.0008 -0.0792 -0.1395
15160W        W30969   9.895  13.910  13.287 -0.1643 -0.1897 -0.1896
15161W        W30970   4.246   1.317  13.023  0.0497  0.4030 -0.2440
15162W        W30971   2.885  16.187  11.476  0.1340 -0.0634 -0.0238
15163W        W30972  13.431   8.414   4.845 -0.4730 -0.1609  0.4431
15164W        W30973   8.078   3.479  13.892  0.1354 -0.0694 -0.1444
15165W        W30974  12.686   3.402   5.445 -0.5433  0.2609  0.1864
15166W        W30975   2.230   5.206   1.106 -0.3163  0.0694 -0.1347
15167W        W30976  17.315   5.867  15.042  0.2076 -0.1339 -0.0739
15168W        W30977   0.420  18.206  11.429  0.2237  0.0493  0.2867
15169W        W30978   8.312   4.733   2.112 -0.1753  0.2843 -0.1163
15170W        W30979   4.402   7.240   3.656  0.0378 -0.1989 -0.1123
15171W        W30980  18.379   0.204   1.432 -0.0373 -0.2718 -0.1950
15172W        W30981  14.700   1.881   2.753  0.2711 -0.1232 -0.0682
15173W        W30982  11.995  17.204   3.620 -0.0544  0.0978  0.3944
15174W        W30983   1.316  18.557   1.748  0.1910  0.0525  0.0941
15175W        W30984  12.584  16.397  13.525 -0.0232  0.1600 -0.0123
15176W        W30985   1.720  15.287   5.131  0.0016  0.1696  0.0988
15177W        W30986  17.559   8.460   0.216  0.1060  0.0877  0.1402
15178W        W30987   8.940   1.127   0.678  0.3931  0.1099  0.1435
15179W        W30988   5.495   6.816  13.248  0.3471 -0.0137 -0.2423
15180W        W30989  16.540   3.416   0.956 -0.0353  0.0262 -0.0347
15181W        W30990   1.051   4.024   0.697 -0.0102  0.3163  0.0348
15182W        W30991   4.703  12.607   0.396 -0.0879  0.1254 -0.0238
15183W        W30992  10.468  15.176   4.348 -0.3899  0.0652  0.2839
15184W        W30993  15.064  16.924  14.941 -0.0452  0.0134  0.0787
15185W        W30994   0.791   6.057   3.007  0.1194 -0.0768 -0.1707
15186W        W30995  10.853  12.310  13.755  0.0294 -0.2197 -0.1128
15187W        W30996  12.298   9.138   4.777  0.1973  0.1503  0.0472
15188W        W30997  12.603   7.457   1.370  0.0256 -0.1533 -0.4801
15189W        W30998   3.007  11.382  11.343 -0.1186 -0.2187 -0.1276
15190W        W30999  17.324  15.968   0.854 -0.2326  0.1189 -0.2190
15191W        W31000  10.690  13.282  14.123 -0.0799 -0.0549  0.1149
15192W        W31001   3.603  16.778   3.289 -0.1453 -0.1027  0.1438
15193W        W31002  11.920  11.025   4.641 -0.2247  0.1785 -0.1315
15194W        W31003   4.077  14.523   0.968 -0.1302 -0.0291 -0.0827
15195W        W31004   8.074  15.967  11.217 -0.1850 -0.0903 -0.1083
15196W        W31005  15.166   5.065  14.712 -0.1617  0.3063  0.2030
15197W        W31006  10.483  13.887   3.705  0.1107 -0.2049 -0.0174
15198W        W31007   8.709  16.626   1.365  0.0366 -0.1301  0.3130
15199W        W31008  18.140  14.305  11.139  0.2908 -0.1132 -0.0839
15200W        W31009  10.460   4.936  13.576  0.3842 -0.1120 -0.0256
15201W        W31010   2.290  10.145   0.186 -0.1103 -0.2109 -0.3030
15202W        W31011  10.780  14.858   1.586 -0.0107  0.0491 -0.1255
15203W        W31012   7.848  16.064  11.682 -0.0450  0.0838 -0.0975
15204W        W31013  10.440   7.872  14.765 -0.1779  0.1298  0.1303
15205W        W31014   0.660   6.375  13.538 -0.0085 -0.1102 -0.2756
15206W        W31015   5.794   4.646   1.807  0.2147  0.1748  0.3404
15207W        W31016  11.639  15.072   0.721 -0.0105 -0.2513  0.3228
15208W        W31017  18.325   8.553   0.259 -0.1484 -0.0500  0.1076
15209W        W31018   3.388   1.613  15.216 -0.3065 -0.0706 -0.1224
15210W        W31019  13.601   7.157   0.069  0.2276 -0.1501  0.0736
15211W        W31020  11.434   1.131   1.695  0.0125  0.1181 -0.1643
15212W        W31021   3.896   8.860   0.773  0.1107 -0.1021 -0.1658
15213W        W31022  13.314   5.433   2.903 -0.1163  0.0831  0.0500
15214W        W31023  16.502  15.593   0.173  0.0293  0.0704  0.1545
15215W        W31024   6.018  14.511  14.288  0.1927 -0.0873  0.0476
15216W        W31025  11.308   7.871   0.049 -0.2361 -0.2370 -0.0224
15217W        W31026   6.334   8.270   5.243  0.0632  0.4179 -0.0444
15218W        W31027  16.067   1.794  14.388  0.3399 -0.1527 -0.0242
15219W        W31028  13.496   7.874   4.688  0.0994  0.3457 -0.1566
15220W        W31029   2.197   8.050  12.588  0.0406  0.1907  0.0523
15221W        W31030  15.411  13.278   4.256  0.2753 -0.1112 -0.0824
15222W        W31031  10.604  18.528   5.378  0.0678 -0.3325  0.2960
15223W        W31032   7.171   0.904  14.495  0.0247  0.2407  0.0412
15224W        W31033   7.002   8.267  14.279 -0.0369 -0.1251 -0.1373
15225W        W31034   8.782   9.119  15.734  0.0762 -0.0826  0.0548
15226W        W31035   9.402   8.325   4.290 -0.1819 -0.3094  0.0033
15227W        W31036  12.212   1.110  11.112  0.4196  0.2929  0.4701
15228W        W31037   4.032  16.369   3.991  0.0908 -0.1550  0.0170
15229W        W31038   0.143   4.845   3.391  0.1508  0.1854 -0.1230
15230W        W31039   3.759  10.468   3.868  0.2393  0.3046 -0.0159
15231W        W31040  16.314  13.446  11.598 -0.0958 -0.0265 -0.0194
15232W        W31041  12.947   1.593   2.600 -0.5057  0.2895  0.0985
15233W        W31042   7.196  18.192   3.096  0.2113  0.2191 -0.3130
15234W        W31043   3.040   9.813   4.282  0.0793 -0.4731 -0.1001
15235W        W31044  17.762   0.566  13.361 -0.1910  0.1659  0.2443
15236W        W31045  14.564   8.650   5.215 -0.2263  0.1336 -0.0082
15237W        W31046  10.096   0.851  13.727  0.0417  0.2236 -0.1478
15238W        W31047   8.078  14.071  12.965 -0.2001 -0.7281  0.1635
15239W        W31048   1.381  15.870  13.628 -0.0403  0.1347  0.0632
15240W        W31049   3.374  12.833  14.193 -0.1357  0.0292  0.1521
15241W        W31050   0.568  18.510   4.991 -0.1009  0.0919 -0.0600
15242W        W31051   9.220   6.745   1.905 -0.0048 -0.0918 -0.4047
15243W        W31052   2.848  10.072   5.557 -0.1832 -0.2593  0.0481
15244W        W31053   7.055   5.503  10.785  0.4336  0.2439  0.1869
15245W        W31054   6.234   4.155  13.118 -0.0734 -0.0546 -0.5197
15246W        W31055   0.452   7.774  12.426 -0.3120  0.2736  0.2565
15247W        W31056   2.348  12.919  11.565  0.1389  0.3173 -0.1696
15248W        W31057  14.676  10.419   0.578 -0.3467  0.1522 -0.0844
15249W        W31058  13.299  16.138   0.672 -0.0124  0.1092  0.1189
15250W        W31059   6.247   2.623  12.794 -0.1582 -0.2044  0.1605
15251W        W31060  12.215   9.042  11.022  0.0303 -0.3096 -0.0146
15252W        W31061   0.956   1.549   3.390  0.1592  0.0434  0.0672
15253W        W31062   3.512  16.628   4.179  0.1877 -0.0279  0.1149
15254W        W31063   1.361   9.153  14.354  0.0407  0.0947 -0.0665
15255W        W31064  14.200   8.306  14.998 -0.0651 -0.1221 -0.1089
15256W        W31065   9.214  10.311  15.436  0.4261  0.2825  0.3695
15257W        W31066  12.574   2.128  14.946  0.1841 -0.0465  0.2308
15258W        W31067   1.023   2.685  14.343  0.1158 -0.1419 -0.0755
15259W        W31068   8.168  14.272  10.785 -0.0069  0.1588 -0.0817
15260W        W31069  12.966   7.381   0.113  0.0862  0.0560 -0.1329
15261W        W31070   4.539   2.667  11.091 -0.0019  0.0614 -0.4177
15262W        W31071  11.018  10.882  13.658  0.0574 -0.0183 -0.1914
15263W        W31072  12.010  18.073   3.475  0.1108  0.0677  0.0050
15264W        W31073   1.162   4.674  14.628 -0.4342 -0.1735  0.2167
15265W        W31074  15.700   4.042   4.123 -0.0226  0.1028  0.1133
15266W        W31075   6.344  16.012   5.042 -0.0737 -0.1370 -0.0513
15267W        W31076  16.902  15.178  12.016 -0.3480 -0.1678  0.2037
15268W        W31077   0.869   1.958   1.827  0.3259  0.2095  0.3717
15269W        W31078   4.755   8.943   2.570  0.2048 -0.0932 -0.2035
15270W        W31079  15.939  17.991  11.198 -0.3069  0.3590  0.1233
15271W        W31080   8.250   4.479  11.690 -0.0874  0.2441 -0.1180
15272W        W31081   0.607   7.468  12.818 -0.2854 -0.4584 -0.3568
15273W        W31082   1.429   2.765  14.854 -0.0158 -0.0218  0.1947
15274W        W31083   3.988   2.962   0.103 -0.0660 -0.0456 -0.0167
15275W        W31084   2.302   1.724   3.268 -0.1407 -0.1808  0.4374
15276W        W31085   9.078   3.969  14.286 -0.0471  0.0382 -0.0818
15277W        W31086   5.318  15.282  13.794  0.1921 -0.3065 -0.1063
15278W        W31087  14.514  11.819  15.564 -0.0359 -0.0258 -0.1997
15279W        W31088  16.650  10.309   5.339 -0.0146 -0.1373  0.0088
15280W        W31089   6.533   9.166  12.455  0.2078 -0.1976 -0.0617
15281W        W31090  13.462   7.369   0.979  0.2492  0.1784 -0.2921
15282W        W31091   4.703   3.103  11.577  0.1717  0.0523  0.1647
15283W        W31092  17.958  11.231   4.691 -0.2754 -0.2329 -0.4450
15284W        W31093  12.689   3.621  14.038  0.1412  0.1000  0.3007
15285W        W31094   2.998  10.491   4.972  0.0493  0.2860  0.0826
15286W        W31095  11.783  10.323   5.245 -0.0726  0.2155  0.0427
15287W        W31096   9.450   7.333   1.201 -0.2119  0.0457 -0.2410
15288W        W31097  11.897   7.022  11.141 -0.0228 -0.3598 -0.0034
15289W        W31098   2.425  11.899  15.190  0.1354  0.0138  0.0424
15290W        W31099   7.687   5.945  15.363 -0.0818  0.2372  0.2918
15291W        W31100   0.087   4.044   5.333  0.2405  0.0066 -0.2189
15292W        W31101  16.256  15.573  12.874 -0.2103  0.1051  0.1647
15293W        W31102   0.377  10.158  14.535 -0.0793 -0.1050  0.2155
15294W        W31103  16.407   4.568   3.895  0.2819 -0.0521 -0.0477
15295W        W31104  17.468   4.389   5.983  0.1116 -0.0493  0.1442
15296W        W31105   5.639   3.766   5.873  0.0198 -0.1895 -0.2587
15297W        W31106   0.468   7.863  13.623  0.1630 -0.2731 -0.1481
15298W        W31107   2.282   8.937   5.170  0.1109 -0.1012 -0.1758
15299W        W31108  15.102   7.131   0.486 -0.0635  0.0282  0.1526
15300W        W31109   3.961  13.413  11.567 -0.0047  0.1062  0.1592
15301W        W31110   9.853   0.091  13.354 -0.0014  0.1866 -0.1741
15302W        W31111  13.380   4.515   0.073 -0.0357 -0.2129 -0.0209
15303W        W31112  10.534   1.155  13.762 -0.0042  0.0039  0.3488
15304W        W31113   0.940   9.198   5.478  0.1604  0.2381  0.0322
15305W        W31114  18.360   9.933  12.637  0.0250 -0.2022  0.2786
15306W        W31115  18.264   4.361   0.422 -0.1727  0.3721  0.1118
15307W        W31116   1.385   3.292  11.636  0.2854 -0.2655 -0.3155
15308W        W31117  13.936  15.871  13.281  0.1924 -0.1706  0.2284
15309W        W31118   4.231  18.578   5.167 -0.0783  0.1377 -0.3050
15310W        W31119   9.186   1.650   4.775 -0.1488  0.1141 -0.0697
15311W        W31120   8.300  15.692  13.286  0.0402 -0.0895  0.2704
15312W        W31121  15.500   7.131  14.213 -0.2930 -0.2820  0.0050
15313W        W31122  13.697   0.298  11.338  0.2121  0.2618 -0.0808
15314W        W31123   5.844   4.817   0.544 -0.0725 -0.1151  0.0736
15315W        W31124   0.776   3.756  12.965  0.0679 -0.3033 -0.0881
15316W        W31125  16.447   9.755   5.053 -0.1174 -0.0290  0.0808
15317W        W31126  11.155  16.034   0.384  0.3087 -0.2256 -0.2054
15318W        W31127  14.518   2.591  11.575  0.0710 -0.0453 -0.3961
15319W        W31128   6.856   4.051   0.059 -0.1399  0.1091  0.0717
15320W        W31129  16.982  14.255   0.873 -0.1681 -0.0084 -0.0638
15321W        W31130   7.352  17.316  13.613  0.3283 -0.2627  0.2015
15322W        W31131   1.252  15.499   0.398 -0.2764  0.1217  0.2343
15323W        W31132   8.623   2.819  11.184  0.0268 -0.0698  0.3545
15324W        W31133   8.819   1.475   2.637 -0.0989 -0.1075  0.1217
15325W        W31134  18.059   5.841   0.018  0.2282 -0.0441 -0.0791
15326W        W31135   8.452  16.599  13.451  0.2101 -0.1599  0.0177
15327W        W31136   5.491   6.449  14.217 -0.2670 -0.0360 -0.0409
15328W        W31137   4.224   9.294  15.380  0.1292  0.2123  0.1590
15329W        W31138   9.830   4.275  12.837 -0.2101  0.0451  0.2623
15330W        W31139  15.183  10.492   4.334 -0.0679 -0.1458 -0.0922
15331W        W31140  10.156  16.512   2.439 -0.1151  0.0085 -0.0201
15332W        W31141  10.799   0.972   0.624  0.0819 -0.1465  0.0627
15333W        W31142  14.325   0.684  15.372 -0.0115 -0.0730 -0.2552
15334W        W31143   3.197   7.012   6.019 -0.0504 -0.1806  0.1006
15335W        W31144  12.403  15.786   4.370  0.2177  0.3863 -0.2582
15336W        W31145   6.552   6.588   1.341 -0.3848 -0.0762  0.0957
15337W        W31146   3.092   5.943  14.566  0.0121 -0.2551 -0.2523
15338W        W31147  17.666  12.781   1.190 -0.4082  0.0370  0.1524
15339W        W31148  14.351  10.821  13.570 -0.0517  0.3174  0.1659
15340W        W31149   6.968  10.089  14.863 -0.0750  0.1869  0.1429
15341W        W31150   3.297  11.330   3.086  0.0638  0.4219  0.0602
15342W        W31151  10.319   1.069   4.895  0.1587 -0.0112  0.0524
15343W        W31152  14.695  12.991  11.190 -0.1513  0.0411  0.2676
15344W        W31153   0.890  16.591   5.695 -0.0436 -0.5235  0.0351
15345W        W31154  13.769  11.662   0.499 -0.0606 -0.0099  0.2747
15346W        W31155  11.180  10.944  11.391 -0.1418  0.0262  0.0367
15347W        W31156   1.550   0.795   1.914  0.1465  0.2055  0.1309
15348W        W31157   5.927  17.862   3.869  0.1705  0.0691  0.0094
15349W        W31158  18.627  18.421  14.683 -0.0535  0.2508 -0.0500
15350W        W31159   2.131  10.787  12.352  0.0395  0.1302 -0.0809
15351W        W31160   4.107   2.041  10.691 -0.1405 -0.0252 -0.0011
15352W        W31161  14.754  11.921  10.876 -0.0356  0.2972 -0.2399
15353W        W31162   1.943  17.927   3.352  0.2191  0.0891  0.1139
15354W        W31163  11.788   5.177   3.687 -0.0654  0.0919 -0.2239
15355W        W31164  14.242   7.025   2.887  0.2291  0.2829 -0.0108
15356W        W31165   1.077  13.992   1.537  0.2588  0.2216  0.1029
15357W        W31166   9.536   6.926  13.105  0.0068  0.0921  0.1252
15358W        W31167  17.292  14.299   6.132  0.0251 -0.0533 -0.1910
15359W        W31168  12.303  17.349   2.176 -0.1929  0.0029 -0.3032
15360W        W31169  17.186  11.919   0.451  0.1627 -0.3225 -0.1669
15361W        W31170   5.013  10.108  12.177 -0.2846  0.0159 -0.1812
15362W        W31171   5.185  18.072  14.045  0.3010  0.3689 -0.2074
15363W        W31172  17.649   1.576   2.293 -0.0024  0.0466  0.1070
15364W        W31173  14.623  18.213   2.652  0.0581  0.0400 -0.0737
15365W        W31174  17.839   2.336   3.019 -0.1313  0.0409 -0.1740
15366W        W31175  11.238   2.713  14.202 -0.3172 -0.1351  0.0422
15367W        W31176  11.840   0.361  15.620  0.1048 -0.2335  0.0583
15368W        W31177  14.812   3.245  15.597  0.1328 -0.0731 -0.0110
15369W        W31178  15.662  12.963   3.803  0.1563  0.1125 -0.2273
15370W        W31179   6.913  13.048  11.485 -0.0023 -0.2557 -0.2110
15371W        W31180  18.467   7.101  11.993  0.1012  0.1734 -0.0193
15372W        W31181   2.716  17.277   1.578  0.0705  0.1653  0.4343
15373W        W31182  10.095  14.547  11.438 -0.1378 -0.1150 -0.1650
15374W        W31183   8.552  18.072   1.970  0.1865 -0.0408 -0.1149
15375W        W31184   2.852  14.944  13.755 -0.0212 -0.2543 -0.0563
15376W        W31185   5.246  10.128   5.942 -0.2057  0.0660 -0.0737
15377W        W31186   5.204   2.158   4.328 -0.0116  0.1081 -0.0215
15378W        W31187  16.495  18.292  14.985 -0.1846  0.4385  0.1984
15379W        W31188   5.289   6.288  12.038  0.2299  0.0527  0.0490
15380W        W31189   7.274  10.327  14.037 -0.2283 -0.2140 -0.0752
15381W        W31190  15.262  15.245  14.087 -0.0285  0.1797  0.0855
15382W        W31191  17.746   2.321  12.400 -0.3354  0.3546 -0.0934
15383W        W31192  17.066  16.170  13.692  0.1636  0.1920  0.0057
15384W        W31193  17.621  15.444   2.814 -0.1701  0.0122  0.0404
15385W        W31194   1.184   6.740  12.244 -0.1283  0.2237 -0.2421
15386W        W31195  13.955  18.509  13.610  0.0322  0.0924 -0.1038
15387W        W31196   0.935  16.808   5.084  0.2170 -0.1259 -0.1454
15388W        W31197  14.641   2.712  12.069  0.0173 -0.1030  0.0280
15389W        W31198   0.638  16.071   3.128 -0.0077  0.1826 -0.1686
15390W        W31199  12.221  10.838  14.334  0.2697  0.0849 -0.3232
15391W        W31200   0.495   6.850  13.166  0.0217  0.0530 -0.1228
15392W        W31201   3.657   3.803   4.296 -0.2202 -0.1417  0.2942
15393W        W31202  13.354   1.339   2.743  0.1018  0.0658 -0.3765
15394W        W31203  13.476   1.976   2.567 -0.0103 -0.2080 -0.1416
15395W        W31204   7.000  11.625  11.215 -0.2839 -0.1874 -0.0136
15396W        W31205  18.423  16.855  14.988  0.4014  0.0068  0.0723
15397W        W31206   3.836   2.298   4.045 -0.0648 -0.1572  0.5920
15398W        W31207  16.556   8.154   0.286 -0.1920 -0.0544 -0.4563
15399W        W31208   4.161   3.876   4.145  0.1219  0.2918  0.0847
15400W        W31209   0.892  16.471   2.262  0.1077  0.2386  0.2046
15401W        W31210  18.289   6.964   0.659 -0.0751  0.1581 -0.0859
15402W        W31211   1.716   0.841   0.833 -0.0042 -0.1243 -0.1670
15403W        W31212  18.334   1.034  15.184 -0.1583 -0.0587  0.2617
15404W        W31213  11.759  13.894  14.898 -0.2233 -0.0328  0.3040
15405W        W31214  14.361   3.266  14.880  0.0820 -0.3029  0.2698
15406W        W31215   7.347   8.223   4.044  0.1337 -0.2071  0.0774
15407W        W31216   2.387   5.247  13.057  0.1307  0.0625  0.0202
15408W        W31217   0.809   1.951   4.291 -0.0582 -0.0181 -0.0142
15409W        W31218   9.597  18.531  15.324 -0.1006  0.1085 -0.1395
15410W        W31219   4.191  10.638   4.293  0.0942 -0.0306  0.1015
15411W        W31220   2.467   2.376   4.424 -0.2005 -0.2615  0.1330
15412W        W31221   8.950  17.399  10.617  0.0202  0.0216 -0.1925
15413W        W31222  12.701   0.359   4.017  0.0598  0.0174  0.0991
15414W        W31223  14.076   0.336  15.122  0.2372 -0.0936  0.3489
15415W        W31224   3.695   7.265  13.977  0.0729 -0.0727  0.1953
15416W        W31225  11.684  13.735   5.131  0.1368  0.0725 -0.1260
15417W        W31226  16.642   9.554  12.797 -0.1527 -0.5913  0.2391
15418W        W31227   5.153  12.776  15.127  0.2404 -0.2464  0.0097
15419W        W31228   2.054  18.326   2.896  0.0345  0.0597 -0.4881
15420W        W31229  16.901  18.365  15.236 -0.2099 -0.3640  0.1268
15421W        W31230  17.473   6.295  11.498 -0.0435 -0.2830  0.0923
15422W        W31231   9.840   6.379   1.288 -0.0284  0.1763  0.0105
15423W        W31232  11.658  18.569   4.004 -0.0639 -0.2798  0.2289
15424W        W31233  13.494  16.743   1.255 -0.3982  0.0107 -0.6670
15425W        W31234  17.100  13.752  14.109 -0.0905 -0.0593 -0.1222
15426W        W31235  17.626   7.682  13.597 -0.3071  0.0771  0.0629
15427W        W31236   5.836  13.310  14.766  0.0642  0.1538  0.1196
15428W        W31237  10.678   7.312   5.082 -0.0219 -0.1442  0.2136
15429W        W31238   0.204  11.754   4.093  0.1380  0.0259 -0.3380
15430W        W31239   1.186  12.402   2.296  0.3836  0.3111  0.1355
15431W        W31240   2.632  13.310  14.106  0.0010  0.1392  0.0415
15432W        W31241   3.142   4.633   4.452 -0.0227  0.0726  0.0051
15433W        W31242   5.004   5.000   5.452  0.3504 -0.1728 -0.1134
15434W        W31243   3.920   5.293  14.423 -0.2226 -0.2196  0.1690
15435W        W31244   2.405   7.868   5.575  0.1624 -0.2949 -0.3095
15436W        W31245  10.047   6.263  10.727 -0.0637 -0.2643  0.3050
15437W        W31246   5.433   0.861  13.267 -0.1284  0.2481 -0.0883
15438W        W31247  11.116   4.751  10.641  0.0207 -0.0096 -0.0131
15439W        W31248  10.003   9.988   1.289 -0.1987  0.3169 -0.2142
15440W        W31249   4.097   9.560  12.689 -0.0752  0.0650  0.0225
15441W        W31250   9.125  17.563  14.550  0.1084  0.1199  0.0560
15442W        W31251  14.556  15.773   8.851  0.0789  0.3036 -0.0697
15443W        W31252   9.437  10.120  13.164  0.4052 -0.0344 -0.1799
15444W        W31253   3.654  14.551  11.820 -0.0609 -0.1524  0.2211
15445W        W31254  18.474  12.015   3.845 -0.4053 -0.0563  0.0117
15446W        W31255   3.348  10.901  15.391 -0.1714  0.1212  0.0062
15447W        W31256  18.317   6.779  15.388 -0.0705  0.1029  0.1447
15448W        W31257  18.543  10.152   0.489 -0.1968 -0.2261 -0.0240
15449W        W31258   5.161  15.480  10.448 -0.2310  0.0208 -0.0121
15450W        W31259  18.270  16.816  10.571 -0.1488 -0.0390  0.0697
15451W        W31260   6.179   4.382   1.220  0.2803 -0.2540  0.3076
15452W        W31261   4.366   4.643   4.276  0.1094 -0.3628 -0.2661
15453W        W31262   4.995   8.715   2.186 -0.1103  0.2742 -0.1947
15454W        W31263   1.536   2.142  10.310 -0.0223  0.0887 -0.0173
15455W        W31264  17.092   3.621   3.030 -0.1889 -0.4371 -0.0747
15456W        W31265  13.876   3.745  15.648  0.0519 -0.0193 -0.2127
15457W        W31266  13.889   9.535  10.425  0.6478 -0.1365  0.1549
15458W        W31267  13.109  14.946   1.394  0.0708  0.1324 -0.0907
15459W        W31268  10.876  16.381   5.172  0.1426  0.1559  0.0086
15460W        W31269  17.273  16.595   2.465  0.0956 -0.0924  0.3814
15461W        W31270   9.091  17.902   3.839  0.3637 -0.1917 -0.2308
15462W        W31271   5.102   7.443  11.392 -0.1386  0.2792  0.1969
15463W        W31272  10.836  13.772   9.785 -0.0426  0.0768 -0.1064
15464W        W31273   5.497   5.493  13.766  0.1068  0.0336 -0.0155
15465W        W31274   4.221   0.633   9.579  0.1196 -0.0277 -0.3278
15466W        W31275  11.436   3.994  11.363 -0.1330  0.1122 -0.2126
15467W        W31276   3.668  16.385  13.909  0.1165 -0.1816  0.0409
15468W        W31277  12.228  15.433   3.743  0.1448  0.0995 -0.2032
15469W        W31278  10.214  15.442  10.246 -0.1358  0.0712  0.2247
15470W        W31279  10.962   9.433  11.931 -0.1652  0.2681 -0.3200
15471W        W31280   8.468   7.759  13.523 -0.0556 -0.1362 -0.1236
15472W        W31281  18.028   0.408   4.279  0.2512 -0.0006 -0.0302
15473W        W31282   8.002   6.852  13.726 -0.0287 -0.2215  0.1109
15474W        W31283  11.946   4.733  13.852 -0.2323  0.0164  0.2535
15475W        W31284  15.788  15.502   4.377  0.0042 -0.0199  0.1065
15476W        W31285   5.965   8.768   4.593 -0.0319 -0.3141 -0.0477
15477W        W31286   3.506  16.249  15.617  0.3980  0.0958 -0.1690
15478W        W31287   1.208  15.782   1.682  0.0692  0.2619  0.0065
15479W        W31288  17.807  16.514  14.137 -0.0522  0.1338  0.2601
15480W        W31289   4.422  13.498   2.232  0.1802 -0.1193  0.0062
15481W        W31290  13.631  14.360   4.922  0.2853 -0.1067 -0.4154
15482W        W31291  16.989   1.602   3.093 -0.2430 -0.0496 -0.0410
15483W        W31292  16.989   7.681   2.715  0.0681  0.2859  0.0995
15484W        W31293   4.927   8.122  12.370 -0.0493 -0.0987  0.0437
15485W        W31294   9.870  17.445  14.944  0.1991 -0.1485  0.0134
15486W        W31295  13.041   1.521   3.070 -0.0916 -0.1214 -0.0497
15487W        W31296   4.751   9.097  15.511 -0.2215  0.2276  0.0114
15488W        W31297  11.384   0.578  12.324 -0.0171 -0.0968 -0.0659
15489W        W31298   9.439   0.699   0.125  0.1141  0.1874 -0.1099
15490W        W31299   2.872  11.824  11.236  0.1143  0.3072  0.3181
15491W        W31300  15.808   7.281   3.458  0.0724  0.1586 -0.0294
15492W        W31301   0.857  12.684   3.463 -0.3243  0.0986 -0.0982
15493W        W31302   7.553  12.256   2.411  0.0808 -0.2163  0.0756
15494W        W31303   2.303  11.469   2.107  0.3411  0.1696 -0.2455
15495W        W31304  11.437  14.857  10.040 -0.2159  0.0844  0.0928
15496W        W31305   8.827  11.145  13.386  0.2500  0.1826  0.0910
15497W        W31306  10.844  12.490   4.626  0.1581 -0.0292 -0.1187
15498W        W31307  13.854   2.866  15.488  0.3674  0.5500 -0.0237
15499W        W31308   8.173   2.007   1.528  0.2079 -0.0236  0.0282
15500W        W31309   0.271   0.409   1.032 -0.1477  0.1449 -0.1765
15501W        W31310  17.535  13.701  11.200  0.5243  0.0816 -0.0194
15502W        W31311  16.833  15.032  13.299 -0.2467  0.2053 -0.1198
15503W        W31312  12.169   6.725   2.940 -0.0516  0.2453  0.0488
15504W        W31313  11.667   3.416   1.243  0.1130 -0.2682  0.1326
15505W        W31314  17.558   6.986   4.440 -0.0252  0.1930  0.2267
15506W        W31315  13.781  18.326  15.288  0.2166  0.2309 -0.2358
15507W        W31316   9.564  17.135  11.200  0.1651  0.4624 -0.0778
15508W        W31317   1.526   9.684  11.801  0.0081  0.3647  0.1536
15509W        W31318   7.932   2.194   3.871  0.2169  0.1067 -0.0018
15510W        W31319   4.285  12.385  15.307  0.1673 -0.0872 -0.1347
15511W        W31320  13.557  12.686   1.034  0.0212 -0.1267  0.2149
15512W        W31321  14.270   2.149  11.541 -0.0383  0.1837 -0.1889
15513W        W31322  13.001  14.158  10.343 -0.1765 -0.2906 -0.1598
15514W        W31323   1.151  16.478   1.817 -0.0638 -0.0491  0.2710
15515W        W31324   0.430  12.171   0.567  0.1587  0.2097 -0.0446
15516W        W31325   7.596  16.986  15.269 -0.2358 -0.3592  0.2145
15517W        W31326  10.397  15.702  12.997 -0.0665 -0.0577 -0.2517
15518W        W31327  16.660   9.263  15.436  0.1417 -0.2232 -0.1140
15519W        W31328   7.508   7.250   0.104 -0.2095  0.0413  0.2024
15520W        W31329   9.395   6.282   0.507 -0.1336  0.5419 -0.1186
15521W        W31330   8.975   6.256  13.656 -0.0203  0.3421 -0.2438
15522W        W31331   3.853   1.139  14.568 -0.2088  0.3273 -0.2346
15523W        W31332   1.313   2.699   1.099  0.0134 -0.0215 -0.3186
15524W        W31333  10.783  11.170   3.479  0.2592 -0.1206 -0.3211
15525W        W31334   2.973  18.528   3.675  0.4805  0.0327  0.0682
15526W        W31335   4.430   4.507   0.651  0.1018  0.0913 -0.1527
15527W        W31336   3.995   6.481  13.467  0.2442  0.0640  0.0445
15528W        W31337  17.919  16.640   0.688  0.1754  0.2052  0.1340
15529W        W31338  10.815   3.869  12.729  0.0421  0.1691  0.0310
15530W        W31339  12.080   0.137  10.580 -0.0780 -0.0017  0.0641
15531W        W31340   5.720   0.942  13.658 -0.0936 -0.3518  0.0635
15532W        W31341   3.479  18.093  12.073  0.2623 -0.1148  0.3782
15533W        W31342  14.404  15.305  15.750  0.3066 -0.0042 -0.5724
15534W        W31343  11.841  15.257   4.850 -0.2042  0.0733 -0.0848
15535W        W31344   7.220  10.563  15.005  0.0949  0.0596 -0.1731
15536W        W31345  16.004   0.379  14.992 -0.0394  0.0127 -0.0293
15537W        W31346   5.193  12.355   3.677  0.3533 -0.0269 -0.1063
15538W        W31347   3.127  16.256   4.045  0.1731  0.1641  0.0639
15539W        W31348   5.772  11.309   0.748  0.0835 -0.3513  0.1309
15540W        W31349  11.268   2.144   1.700 -0.0793  0.2150 -0.0268
15541W        W31350  18.267   6.118   5.072 -0.3492 -0.1795 -0.1433
15542W        W31351  13.925  15.312  14.363  0.1270 -0.2468 -0.0683
15543W        W31352  13.974   6.027  13.763  0.1173 -0.3543  0.0562
15544W        W31353   7.785  14.428   3.660  0.4130  0.2355 -0.0210
15545W        W31354  12.125   0.697   1.078  0.1157 -0.0218  0.1936
15546W        W31355  10.534   6.554  14.174  0.3229  0.3226 -0.2573
15547W        W31356  18.032   2.765   1.056  0.1988  0.4069 -0.0611
15548W        W31357  13.856  17.647   3.577  0.1493  0.0431  0.2563
15549W        W31358   4.886  11.669   3.247 -0.1656 -0.0587 -0.0245
15550W        W31359  18.381   7.235  15.581  0.2158 -0.1404 -0.3285
15551W        W31360  12.274   7.853  14.598  0.0187  0.0817 -0.0966
15552W        W31361   7.181   4.603   2.719  0.0124 -0.1265 -0.3033
15553W        W31362   2.647  18.644   3.311  0.1900 -0.0255  0.2312
15554W        W31363  15.577   8.035   4.605 -0.4972 -0.3951  0.2291
15555W        W31364   2.926  11.808  15.184 -0.1447  0.1770  0.1322
15556W        W31365   5.028   2.954  13.594 -0.2616 -0.1347  0.1276
15557W        W31366   0.300  16.292  15.729  0.3135  0.0772 -0.0414
15558W        W31367   6.637  10.172   2.799 -0.0937 -0.4902 -0.1779
15559W        W31368  11.428  18.294  14.408  0.1025  0.1700 -0.0942
15560W        W31369  11.676   4.030   0.075  0.1408  0.0493 -0.1452
15561W        W31370   2.711  11.432  14.753  0.0337  0.2855  0.2908
15562W        W31371   1.266  15.431  11.728  0.2388  0.0219  0.0103
15563W        W31372  18.466   7.201  13.555 -0.2398  0.0209 -0.0440
15564W        W31373   3.642  16.208   1.731 -0.2250  0.1017 -0.0850
15565W        W31374   1.640   7.246  11.954  0.1949  0.2155  0.0072
15566W        W31375  16.980  15.660   1.511 -0.1548  0.2860 -0.2511
15567W        W31376   5.934  12.049  11.588  0.1800  0.1907  0.2977
15568W        W31377   7.818  15.608   4.980  0.1303 -0.2665  0.0066
15569W        W31378   8.986  18.263  11.676  0.1820  0.2340 -0.1540
15570W        W31379  10.482   6.850  13.092 -0.0345  0.1508  0.1910
15571W        W31380   3.555   7.328   3.362  0.1293 -0.2327 -0.0115
15572W        W31381  16.735   4.220  15.114 -0.0029  0.3917 -0.2195
15573W        W31382  10.906   8.943  12.828 -0.2664 -0.2059 -0.0985
15574W        W31383   3.417   2.641   5.079  0.1462 -0.1256  0.0329
15575W        W31384  10.996   1.297   1.917 -0.0060 -0.0771  0.1257
15576W        W31385   1.251  10.565   5.292  0.1225  0.2993 -0.4309
15577W        W31386   3.443  17.205  15.625  0.4530  0.0652 -0.2449
15578W        W31387  10.660   7.161  12.335  0.0449 -0.2771 -0.1078
15579W        W31388   8.783  16.971  11.942  0.0718 -0.0375  0.3028
15580W        W31389   6.254   9.186  14.281  0.1367  0.0120 -0.0696
15581W        W31390   9.073   7.846   5.016 -0.4721  0.1092 -0.0366
15582W        W31391  17.484  14.263   5.135 -0.2672 -0.2582  0.0966
15583W        W31392   2.355   3.666   3.380 -0.1378  0.0330  0.1834
15584W        W31393   8.066  18.228  11.824  0.0087 -0.2160  0.1102
15585W        W31394   2.630  15.998   5.135 -0.0955 -0.2163 -0.4157
15586W        W31395  12.132  15.402  12.580 -0.0183 -0.1148 -0.0516
15587W        W31396   6.888  14.346   3.869  0.0748 -0.1603  0.2091
15588W        W31397  10.058   6.830   1.030 -0.0718 -0.1605  0.1101
15589W        W31398  18.065   3.790  10.543  0.1175  0.2469  0.1750
15590W        W31399   3.180   4.486  15.105 -0.0216  0.1165 -0.3249
15591W        W31400   7.747  16.274   1.559  0.0159 -0.0617 -0.0413
15592W        W31401   5.803  16.293  13.349 -0.3625  0.1993  0.1228
15593W        W31402   3.871   8.756  11.157  0.2290 -0.0647  0.2813
15594W        W31403   4.058  13.797   4.087 -0.0133 -0.0713  0.1453
15595W        W31404  16.087   2.607   2.829  0.0299  0.2087 -0.2966
15596W        W31405  13.917   8.588   0.598 -0.1203  0.0145 -0.0572
15597W        W31406  12.818   9.653  13.565 -0.0816 -0.1351  0.4057
15598W        W31407  12.271  15.795  15.211  0.2661 -0.0334  0.0821
15599W        W31408   7.424   2.333  12.122 -0.0724  0.0532  0.2182
15600W        W31409   8.610  18.013   3.643 -0.2293  0.3158 -0.2753
15601W        W31410  17.989  13.509  11.435 -0.0482  0.1574 -0.1147
15602W        W31411  15.778   0.872  10.578  0.0144  0.0419  0.0111
15603W        W31412   3.424  14.389   2.412 -0.1927  0.0967  0.0280
15604W        W31413   4.513   8.732  14.652 -0.0773  0.1465  0.0396
15605W        W31414  16.352   5.103  10.374  0.2533  0.0395  0.2098
15606W        W31415   9.610   7.053  13.559  0.0415 -0.0047 -0.2562
15607W        W31416  15.517   9.434   4.589 -0.1103  0.1826 -0.2313
15608W        W31417  12.734  10.912   4.402 -0.1297  0.5337  0.0895
15609W        W31418  12.073  17.610   4.311  0.0642 -0.1969 -0.3825
15610W        W31419   5.292   5.510   0.991  0.4748  0.0294  0.1198
15611W        W31420   4.300   5.624  13.961 -0.0139  0.3082  0.0368
15612W        W31421  11.881   7.843  11.455  0.0361 -0.0120 -0.1883
15613W        W31422  10.430  17.575  13.288  0.4173 -0.0446 -0.0271
15614W        W31423   1.848   7.875   3.886  0.0789  0.1644  0.1572
15615W        W31424   7.141  15.680  11.444 -0.0616  0.1559 -0.1255
15616W        W31425  14.828   6.840  11.101 -0.0018  0.0060 -0.2646
15617W        W31426   0.074   6.113  14.293 -0.0505  0.2502  0.0141
15618W        W31427   5.558   2.670  12.100  0.0394 -0.2212 -0.0750
15619W        W31428   1.437  12.327   2.765 -0.1221  0.1812 -0.4558
15620W        W31429  15.030  13.822   0.980  0.1889 -0.0170 -0.0325
15621W        W31430   0.059  12.921   0.323 -0.2970 -0.1685  0.1311
15622W        W31431   5.137   8.786   1.644  0.1036  0.1495  0.0810
15623W        W31432   3.496  10.313  12.787  0.1768  0.1281  0.0083
15624W        W31433   0.993  17.651   4.585  0.3529 -0.1441  0.1551
15625W        W31434  10.996  11.086   0.547  0.1744 -0.0617 -0.0503
15626W        W31435  15.115   2.852  11.832  0.0665  0.1955 -0.3843
15627W        W31436   2.906   6.683  13.970  0.0019  0.1599  0.2513
15628W        W31437   5.797  14.147   3.841 -0.0295 -0.1000  0.0855
15629W        W31438   6.403   0.676   4.656 -0.1228  0.0580 -0.3772
15630W        W31439  12.476   2.131   0.672  0.0312  0.1253  0.1902
15631W        W31440   5.300   5.767   3.401  0.1366  0.1522 -0.2640
15632W        W31441   2.684   6.843  11.425 -0.0449 -0.3662  0.1464
15633W        W31442   8.659   8.183   1.736 -0.2926 -0.0016 -0.0496
15634W        W31443  16.750  16.508   3.131 -0.2789  0.2014  0.3652
15635W        W31444   8.379   4.921   5.584 -0.0057  0.2225  0.1363
15636W        W31445  11.664   7.780  15.399  0.0584  0.3334  0.1286
15637W        W31446  16.328   7.370   3.325  0.2897  0.1470  0.2480
15638W        W31447  17.300   7.368   5.397 -0.0004  0.1362  0.0730
15639W        W31448   9.411   6.331   4.305 -0.2167  0.0188  0.0192
15640W        W31449   1.400  14.958  13.491 -0.0929  0.3515 -0.2886
15641W        W31450   6.256   0.838   2.663  0.1964  0.1852  0.1198
15642W        W31451   8.303   7.618   3.722  0.0049  0.3792 -0.0874
15643W        W31452  16.039  18.345  14.757  0.0632 -0.0750  0.2924
15644W        W31453   6.622   3.126   3.971  0.1078  0.2512  0.1037
15645W        W31454   5.300  13.714   0.669 -0.0734 -0.0288 -0.0559
15646W        W31455  18.462  14.822  13.512 -0.2421 -0.1009 -0.2204
15647W        W31456   6.828   9.364   5.051 -0.0052 -0.4497 -0.0442
15648W        W31457  16.911   8.539   0.223 -0.1109 -0.0125 -0.0113
15649W        W31458  10.815  16.616  12.981 -0.2520  0.0678 -0.1171
15650W        W31459  12.156  17.781  13.918  0.2076  0.2264  0.0302
15651W        W31460   9.344  15.880  11.218  0.0759 -0.0582 -0.1584
15652W        W31461   9.245   5.229  11.689 -0.3114 -0.2406  0.0616
15653W        W31462  10.496   8.767  10.822  0.0076  0.3175 -0.1474
15654W        W31463  13.013  14.254   9.300  0.1321  0.0725  0.2187
15655W        W31464   9.117  16.061  13.071  0.1744  0.2026  0.3508
15656W        W31465  12.799   0.571  12.139 -0.0469  0.1205  0.2069
15657W        W31466  15.371  13.590   9.352  0.2831 -0.1175 -0.4957
15658W        W31467   4.568   7.770  12.833 -0.0350 -0.0338  0.1505
15659W        W31468   5.740   8.169   3.022 -0.3460 -0.2485 -0.1604
15660W        W31469   4.904  11.763  13.287 -0.1358 -0.3975 -0.0424
15661W        W31470   9.888   0.875   5.370  0.3478 -0.3028 -0.1921
15662W        W31471   3.681   7.573  15.332  0.2615 -0.0310 -0.0396
15663W        W31472   9.912   3.289  12.589  0.2753 -0.0379 -0.2794
15664W        W31473  17.656  14.126   3.362 -0.0377  0.1220  0.3010
15665W        W31474  12.102  16.449  11.883  0.1758 -0.0185  0.0728
15666W        W31475   3.375  11.589  12.067  0.0813 -0.2604  0.1181
15667W        W31476  12.939   0.149  11.949  0.3222 -0.0430  0.1114
15668W        W31477  11.386   4.334   3.471  0.4272 -0.2687 -0.2029
15669W        W31478   1.862  13.477   1.900  0.1197  0.1748 -0.1719
15670W        W31479  16.413   8.367  12.889  0.0103  0.1448  0.1301
15671W        W31480  13.947  16.550   4.316  0.1021  0.0071  0.2128
15672W        W31481   4.520  17.515   3.141  0.2616 -0.0539  0.0375
15673W        W31482   2.055  14.059   1.139 -0.1776  0.2399 -0.1328
15674W        W31483  15.565  17.362  10.540  0.1697 -0.0938 -0.3507
15675W        W31484   5.987  15.013   3.470 -0.0958 -0.0358 -0.1158
15676W        W31485   4.703   6.969   1.964  0.2719 -0.0651  0.1284
15677W        W31486  10.202  17.914   0.393 -0.3356 -0.1184  0.1753
15678W        W31487  14.456  14.838   1.311  0.4252 -0.1799  0.1501
15679W        W31488   1.485   2.446   2.203 -0.0155 -0.0097  0.0712
15680W        W31489  17.651  11.046   0.415 -0.0309 -0.2000 -0.0653
15681W        W31490  16.463   9.156  14.357 -0.3141 -0.1031  0.1550
15682W        W31491   9.253   1.351   0.325  0.0994 -0.0200 -0.0703
15683W        W31492  14.125   1.337  13.081  0.4746 -0.0540  0.0833
15684W        W31493   7.179   6.190  15.118  0.1471 -0.0680  0.0942
15685W        W31494   1.655  14.648  14.818  0.0936  0.1034 -0.1748
15686W        W31495  11.293   5.584   4.325 -0.0902  0.4039 -0.0886
15687W        W31496  15.038   7.480   3.948 -0.1101  0.0286 -0.1573
15688W        W31497  13.459   3.100   4.233  0.0594  0.1097 -0.1143
15689W        W31498  12.692  12.313   4.577 -0.1475  0.0577  0.2001
15690W        W31499   5.049   2.495  14.371  0.0986 -0.0934  0.2418
15691W        W31500   1.125  12.805  12.908 -0.0784 -0.3048  0.1516
15692W        W31501   4.787  13.663   2.777 -0.3491  0.0806  0.0779
15693W        W31502  17.718   2.672   3.413  0.1596  0.1971 -0.1363
15694W        W31503  11.886   5.333  15.647 -0.0657 -0.0740 -0.0719
15695W        W31504  14.151   2.248  10.465 -0.1833 -0.2558 -0.0539
15696W        W31505   5.057  14.417  11.918 -0.1143 -0.3648 -0.0873
15697W        W31506   6.284   5.031  11.063  0.2605 -0.2079 -0.2006
15698W        W31507  14.224  16.160   2.267 -0.1163 -0.1030  0.0887
15699W        W31508   3.630  15.914  12.774 -0.2178  0.0671 -0.1275
15700W        W31509   5.752  13.093   0.970 -0.1700 -0.2232 -0.3215
15701W        W31510   3.786  13.579  12.769  0.0943 -0.1570  0.2190
15702W        W31511   5.678  16.814   5.842  0.2254  0.1704  0.1037
15703W        W31512   4.653   6.398   1.969  0.0392 -0.0209 -0.1571
15704W        W31513  10.296   5.843  11.055 -0.1742  0.2864  0.0893
15705W        W31514   2.598   0.090  11.178 -0.0128  0.1209 -0.0881
15706W        W31515  16.779  18.197  11.091  0.1980 -0.3489  0.1981
15707W        W31516   7.509   2.889   0.133 -0.0824  0.0011  0.0422
15708W        W31517   0.424   2.709  13.000  0.1167  0.0983  0.0547
15709W        W31518  16.450  17.646   2.427 -0.1259  0.2113  0.0025
15710W        W31519  16.735  15.934   2.397  0.1649  0.0017 -0.1942
15711W        W31520   8.177   0.805   5.883 -0.0939 -0.0024 -0.0287
15712W        W31521   8.756  12.175  11.577 -0.0404 -0.3642 -0.3362
15713W        W31522   0.263   4.762  14.963  0.0586  0.2638 -0.1447
15714W        W31523   1.345  14.168  13.204  0.4154 -0.2013 -0.0511
15715W        W31524   4.218  16.120  12.508  0.0621  0.1681 -0.1522
15716W        W31525   6.364  13.306  12.046 -0.2490 -0.0007 -0.4980
15717W        W31526  12.682   2.454   1.176 -0.0715  0.1716 -0.0034
15718W        W31527  12.237   0.650  15.372  0.0980  0.0225 -0.3728
15719W        W31528   9.278  18.540  13.113 -0.2535  0.1721  0.0841
15720W        W31529   7.760   8.033   6.239  0.0438  0.1669  0.0029
15721W        W31530   3.286  15.127  13.967  0.1983  0.3319 -0.1596
15722W        W31531  16.854   3.423  13.889 -0.0996 -0.1579  0.0176
15723W        W31532   5.437  12.740  14.036  0.1906 -0.3692  0.2476
15724W        W31533  16.531  10.964  11.077 -0.0680 -0.0848 -0.0657
15725W        W31534   4.210   7.635   4.065 -0.1986 -0.0521  0.2015
15726W        W31535   2.060  11.996   0.670 -0.2807 -0.1983  0.0682
15727W        W31536   5.495  13.184   3.161  0.1741 -0.0702  0.0734
15728W        W31537  12.155  14.398   1.729 -0.2162  0.0713  0.1846
15729W        W31538   4.065  12.937  14.452 -0.0440 -0.0567  0.2801
15730W        W31539   1.308   9.854   4.125  0.2511  0.1675  0.1878
15731W        W31540   4.947   0.413   2.523 -0.2909 -0.1700  0.2166
15732W        W31541  17.291  12.312  15.303  0.1183 -0.0965 -0.5465
15733W        W31542  15.929  16.885  13.293  0.0807  0.0595 -0.1427
15734W        W31543  18.161   1.839   0.124  0.0479  0.1139 -0.1907
15735W        W31544   0.869   5.191   3.477 -0.1790  0.0954  0.5585
15736W        W31545  18.533   1.224  12.314  0.1248  0.0617 -0.0606
15737W        W31546  14.238   7.173  13.427 -0.2233 -0.0293  0.2763
15738W        W31547   3.229   7.730  15.087  0.1958 -0.4449 -0.1626
15739W        W31548  13.721   4.662  13.609  0.1964  0.2148 -0.5480
15740W        W31549  13.822  13.190  12.731 -0.0182 -0.3804  0.1377
15741W        W31550   9.339  12.760   2.034  0.0258  0.0861 -0.3337
15742W        W31551  15.748   3.082   1.238  0.1512 -0.2471  0.3561
15743W        W31552   0.746   2.187  11.508  0.0560  0.1846 -0.0326
15744W        W31553   8.179   3.160   2.754  0.3401  0.1233  0.1785
15745W        W31554  15.161   0.945   5.021 -0.2195 -0.3639  0.1140
15746W        W31555   7.147  11.238  13.013 -0.1906  0.4372 -0.0725
15747W        W31556  10.771  14.741   2.063 -0.0799  0.0786  0.1190
15748W        W31557   6.978   2.869   3.125 -0.1740  0.0300 -0.0559
15749W        W31558  16.173   9.947   2.962  0.1429  0.0400  0.1557
15750W        W31559   3.967   6.659   3.943 -0.1495  0.1884 -0.1535
15751W        W31560  12.891   1.957  11.075  0.1340  0.0473 -0.1069
15752W        W31561   8.309   2.209  12.470  0.1164  0.0085  0.0022
15753W        W31562   4.017   8.028  14.509  0.2230  0.0011 -0.0120
15754W        W31563  18.139   8.836   1.008 -0.2736 -0.1435  0.1604
15755W        W31564  16.890   9.506   4.066 -0.1838 -0.1149 -0.1505
15756W        W31565   3.495   4.057   5.648  0.1542  0.0050 -0.2362
15757W        W31566  17.460   6.751   2.712  0.0444 -0.0742 -0.1760
15758W        W31567  16.152  16.042  13.714 -0.0633  0.0803  0.1277
15759W        W31568   9.637  14.375  14.236  0.2696  0.0713  0.0564
15760W        W31569   1.310   7.015   0.892  0.1967 -0.1180 -0.2084
15761W        W31570   1.303   5.190   1.232 -0.0333  0.2624 -0.1249
15762W        W31571  14.804  14.450   3.993  0.4331  0.0676 -0.2147
15763W        W31572  13.260   5.134  11.519 -0.0786  0.0318  0.1542
15764W        W31573  13.827  15.674   4.229 -0.1479  0.1288 -0.2407
15765W        W31574   8.013  13.500  15.516 -0.3194  0.2547  0.0727
15766W        W31575   4.148  16.307   2.926  0.0501 -0.0338  0.1684
15767W        W31576   6.988  13.525   0.263  0.1731  0.3310  0.1421
15768W        W31577   9.458   6.468  12.807  0.1732 -0.0358 -0.1487
15769W        W31578   3.084   6.849   3.942  0.2931  0.0622  0.0469
15770W        W31579   5.677  10.397  13.291 -0.0580  0.0520 -0.1559
15771W        W31580  13.074  17.252   4.527  0.1003  0.1296 -0.3082
15772W        W31581   6.065  16.515  11.381  0.1918  0.3223  0.0270
15773W        W31582   3.086  13.913   2.337  0.1473 -0.1450 -0.0354
15774W        W31583   9.020   3.234   3.372 -0.5619  0.1234 -0.1518
15775W        W31584  11.550   4.514  14.066  0.2016 -0.1446  0.3783
15776W        W31585   7.974   3.864  13.523  0.1132  0.1748 -0.2993
15777W        W31586   7.469  15.509   2.152 -0.1239  0.3020 -0.0763
15778W        W31587  16.063   7.182  14.042  0.0424 -0.0385  0.0510
15779W        W31588   6.992   9.426  15.045 -0.1033 -0.2029 -0.1031
15780W        W31589  11.903  16.362  14.547  0.0374  0.2758  0.0568
15781W        W31590   1.501  13.506  11.586 -0.0528  0.1474 -0.1309
15782W        W31591  14.265  18.606   3.031 -0.0643 -0.0105 -0.1194
15783W        W31592   0.058   4.462  11.405 -0.0735 -0.0756 -0.5760
15784W        W31593   9.032  12.560  12.374  0.3238  0.0077 -0.0697
15785W        W31594  15.029   6.552   1.679  0.0179 -0.2650  0.3711
15786W        W31595  15.609  18.628   1.191  0.0695  0.3039 -0.1259
15787W        W31596   7.323   1.829   1.611  0.0460  0.2436 -0.0878
15788W        W31597  12.679   3.283   2.857 -0.3567  0.2859  0.0406
15789W        W31598   3.239   0.200  13.338 -0.1388  0.2073  0.2009
15790W        W31599  12.415  15.205  14.013 -0.1044 -0.0353  0.2657
15791W        W31600   1.850   4.315   0.115 -0.0658 -0.0495 -0.1228
15792W        W31601  17.306   6.779  15.012 -0.2064 -0.2083  0.2186
15793W        W31602   2.771  17.962   2.796  0.2430  0.3905  0.0700
15794W        W31603  12.793  16.655  11.169  0.0786  0.3491  0.0951
15795W        W31604   9.240  12.055  10.974 -0.2121  0.0670 -0.0559
15796W        W31605   0.210  14.273   4.508  0.0035  0.0497  0.0064
15797W        W31606  11.374   9.817  13.140 -0.0846 -0.1482  0.0923
15798W        W31607   2.018   6.076   0.474  0.0699  0.2117  0.3150
15799W        W31608  11.200  12.271   4.243  0.3117  0.3184  0.0438
15800W        W31609  18.248   8.610   2.081  0.4340 -0.0302  0.0397
15801W        W31610   3.662  12.248   4.943 -0.1203 -0.1832 -0.0307
15802W        W31611  11.041   2.614  15.262  0.1983  0.2455  0.0785
15803W        W31612  18.488  13.108   5.229  0.2483  0.1239  0.0847
15804W        W31613  14.147  12.895  15.316 -0.2390  0.0034 -0.2732
15805W        W31614   4.044  10.863  14.320 -0.0353  0.0106 -0.2181
15806W        W31615   6.673   1.050  13.950 -0.0741  0.1420  0.0023
15807W        W31616  17.467  11.945   5.348 -0.2598 -0.0637  0.0162
15808W        W31617  17.532  17.708   3.955  0.1770  0.3758 -0.0460
15809W        W31618   5.394  17.842   5.368 -0.1018 -0.2918 -0.0241
15810W        W31619   7.045  13.408  14.571  0.2146  0.0867  0.2055
15811W        W31620  11.536   2.680  12.855  0.3102  0.0918 -0.2138
15812W        W31621  14.090   2.171   3.303 -0.4395  0.1973  0.1413
15813W        W31622  15.893  10.301   0.379 -0.0797 -0.1211  0.1292
15814W        W31623  13.167   5.023   0.056 -0.1191  0.2599  0.1843
15815W        W31624  10.195   1.802  10.729  0.0538 -0.1669 -0.1677
15816W        W31625  16.758   3.090  12.752 -0.1061  0.0739 -0.0749
15817W        W31626  10.855  15.764  12.229 -0.1344  0.0140 -0.1015
15818W        W31627  15.349   2.328   4.849 -0.0839  0.0436 -0.1074
15819W        W31628   6.326  18.144   3.525  0.1229 -0.1600 -0.0817
15820W        W31629   0.073   9.244  15.382  0.0752  0.0893  0.1265
15821W        W31630  11.680  10.383  12.380 -0.5059 -0.4000 -0.0192
15822W        W31631   7.379   2.633   2.241 -0.0220  0.1033  0.0170
15823W        W31632   0.530   0.797   5.008  0.0701 -0.4233 -0.0568
15824W        W31633   3.609  12.211   0.743  0.0135 -0.1244  0.4077
15825W        W31634  13.286  11.926  14.920  0.0272 -0.0783  0.2708
15826W        W31635  15.963   3.705   5.072 -0.0981 -0.0810 -0.1565
15827W        W31636  11.289  18.228  13.803 -0.0108  0.1809 -0.0823
15828W        W31637  12.406   3.639   0.613  0.1288  0.1438 -0.4089
15829W        W31638   1.228  16.945   5.846  0.0546 -0.1963  0.0907
15830W        W31639   6.571   0.974   2.315 -0.0612 -0.2521  0.0552
15831W        W31640   2.312  14.568   3.831 -0.2472  0.0987  0.3118
15832W        W31641  14.660  15.920  13.582  0.1968  0.1593  0.2829
15833W        W31642  12.775  12.323  12.761  0.0030 -0.0993 -0.0303
15834W        W31643   3.926   6.701   2.290 -0.1379  0.3500 -0.2202
15835W        W31644  17.862   0.090   3.166  0.3881 -0.0092  0.3404
15836W        W31645   8.800  11.434  11.967  0.2764  0.1998  0.1062
15837W        W31646  17.481   6.542   4.202 -0.0785 -0.2068  0.1186
15838W        W31647   5.925   2.356  15.109  0.0199  0.2148  0.1587
15839W        W31648  17.943   0.708   3.522 -0.0143 -0.1893  0.3651
15840W        W31649  13.208   9.859   5.305 -0.1363  0.1213  0.1287
15841W        W31650  12.911   3.428  13.352 -0.3119  0.1057 -0.0028
15842W        W31651  18.430  16.270   2.148  0.1038  0.1260  0.0988
15843W        W31652  12.746  17.491   2.369  0.1070 -0.1877  0.1461
15844W        W31653  14.676   7.957  13.819  0.1841  0.1739  0.1547
15845W        W31654  12.604   7.821   4.571 -0.0222  0.3311  0.2798
15846W        W31655  13.285   4.193   5.841  0.2166  0.1198  0.2739
15847W        W31656  15.260  14.742   2.171 -0.3061  0.1035 -0.1994
15848W        W31657   9.625  17.781  12.806  0.0133  0.1552 -0.0979
15849W        W31658  13.277  15.326   1.841 -0.1542  0.0567 -0.1200
15850W        W31659   2.182  16.001  14.675 -0.1496  0.1732  0.2659
15851W        W31660  10.263  10.741   1.174  0.0680  0.2186  0.2060
15852W        W31661   4.782  14.669  15.239  0.2120  0.1851 -0.0778
15853W        W31662  15.637   4.253   0.849  0.1076  0.0398  0.2889
15854W        W31663   8.646   4.535  13.832 -0.4651  0.3535  0.4317
15855W        W31664   6.183  17.926   2.949 -0.2675 -0.0562  0.1323
15856W        W31665   9.897   2.396  11.417 -0.3008 -0.4536  0.0313
15857W        W31666   6.661  17.686  14.568  0.0925  0.0915  0.2284
15858W        W31667   8.786   9.509  14.333 -0.1697  0.1383 -0.2170
15859W        W31668  17.940   2.920  10.390  0.0422  0.2092 -0.0462
15860W        W31669  16.909  13.836   3.701 -0.0211  0.1527 -0.1557
15861W        W31670  17.925   0.488  11.911  0.0470  0.1924 -0.3469
15862W        W31671   9.222  11.154  14.737  0.0554  0.3683  0.1888
15863W        W31672  14.607   9.513   3.391  0.6131 -0.2897  0.0580
15864W        W31673   9.927  11.539  14.408 -0.1720  0.3153 -0.1840
15865W        W31674  18.340   6.676   1.417 -0.1645 -0.0986  0.0369
15866W        W31675   7.709   4.695  14.332 -0.1340 -0.2880 -0.1125
15867W        W31676  15.774  12.272   0.404 -0.0254 -0.2315  0.0209
15868W        W31677   6.480  14.043  14.818 -0.2287 -0.1266 -0.0609
15869W        W31678  15.853   9.211  10.341 -0.0039  0.3707 -0.0359
15870W        W31679   4.071   5.266   2.272 -0.0701  0.1243 -0.0374
15871W        W31680   7.591   3.795   0.919 -0.0018  0.2174 -0.0063
15872W        W31681   1.707   6.318  13.572  0.0400 -0.1488  0.0974
15873W        W31682  10.042   8.684  13.895  0.2001 -0.0448 -0.0251
15874W        W31683   8.296  17.906  14.859 -0.3605 -0.3093 -0.2540
15875W        W31684  16.578   9.783  12.129 -0.2913  0.0790 -0.0801
15876W        W31685  16.023   7.696   3.686  0.1014  0.1508 -0.3313
15877W        W31686   7.250   3.432  12.064 -0.0292  0.0613  0.0831
15878W        W31687  13.027   6.843  14.007  0.2045  0.0861  0.0318
15879W        W31688   9.591  17.999  13.820 -0.0225 -0.0337 -0.3306
15880W        W31689   2.067   1.268   0.801 -0.1082  0.0749 -0.1032
15881W        W31690   5.863   1.711  14.676  0.1436  0.0619 -0.0060
15882W        W31691   2.650   3.768   3.809 -0.0155 -0.0764  0.0819
15883W        W31692   4.060  11.098  15.522 -0.0773 -0.0788 -0.1531
15884W        W31693   7.727   5.734  11.291 -0.2449  0.1233 -0.0858
15885W        W31694   4.832  16.861   4.837  0.0454  0.0348  0.2673
15886W        W31695  10.301   3.101  12.761 -0.1459  0.2069 -0.5677
15887W        W31696  11.422   3.749   2.430  0.2948  0.2107  0.0518
15888W        W31697   4.728   0.381  14.241 -0.1851  0.2053  0.0130
15889W        W31698  11.682   3.924   3.162  0.3901 -0.0504 -0.1692
15890W        W31699   4.603   9.497   1.196 -0.2259 -0.2440 -0.1440
15891W        W31700   9.348  16.874   1.270 -0.1665 -0.2382 -0.0138
15892W        W31701   6.589  12.583  11.345  0.0629 -0.2178  0.0270
15893W        W31702  13.652   9.082   0.694  0.0061 -0.3555  0.1584
15894W        W31703   1.450   2.751   3.523 -0.0677 -0.3038 -0.3666
15895W        W31704   4.085   5.414  14.930  0.0838  0.0292 -0.1375
15896W        W31705  15.530  15.616  14.297 -0.0225 -0.1482  0.3469
15897W        W31706   2.514   9.276   2.377 -0.1782 -0.0373  0.1261
15898W        W31707  10.964   0.936   1.476  0.1858  0.1261  0.0810
15899W        W31708   4.505  13.491   3.154  0.1569  0.0175  0.3530
15900W        W31709   8.015  15.511   0.816 -0.0128 -0.0294 -0.0757
15901W        W31710   9.319   3.290   4.307 -0.0368 -0.1926 -0.0400
15902W        W31711  12.616   1.387   3.990 -0.3010 -0.2299  0.1605
15903W        W31712  17.168  15.058   4.526 -0.2800  0.1195 -0.0465
15904W        W31713  13.514   6.064  14.117  0.1987  0.0880 -0.0402
15905W        W31714   1.689   9.628   4.389 -0.1008 -0.0232 -0.1022
15906W        W31715   1.911   2.273   2.654 -0.2457  0.0181 -0.0439
15907W        W31716  12.328   0.638  10.867  0.1802 -0.0978 -0.2004
15908W        W31717   2.497   7.017  12.899 -0.0391 -0.2267  0.2609
15909W        W31718  13.473  14.157   5.510  0.0648  0.2840 -0.0306
15910W        W31719   1.971  17.845   1.757 -0.1029  0.3938 -0.0088
15911W        W31720   9.674  12.218   2.860 -0.1211 -0.1234  0.0100
15912W        W31721  12.169  12.150   0.159  0.2042  0.0823  0.1882
15913W        W31722  12.116  16.040  14.212  0.1011  0.4133  0.0287
15914W        W31723   4.619  17.586   5.101  0.2630 -0.1097  0.2446
15915W        W31724  12.238  14.132   4.887 -0.0310 -0.2411  0.2067
15916W        W31725   6.627  18.598  11.236 -0.1500 -0.0390  0.2410
15917W        W31726   3.820  12.705   0.870  0.1747  0.1569 -0.2434
15918W        W31727   5.950   3.100  14.322 -0.1862  0.1376  0.2233
15919W        W31728  14.661   3.851   0.598 -0.2120 -0.2033  0.0578
15920W        W31729   5.304   0.337   0.155  0.0425 -0.2993  0.0326
15921W        W31730  17.056  15.862  13.246  0.0312  0.0929 -0.0899
15922W        W31731   1.983   6.859   3.682 -0.0387 -0.0571  0.1589
15923W        W31732  16.293  11.858   4.295  0.4150 -0.2257  0.3620
15924W        W31733  15.499  16.339  11.708  0.0821 -0.3058 -0.0836
15925W        W31734   5.280  12.376  12.236  0.1564  0.1406  0.1475
15926W        W31735   1.523   7.251   0.327 -0.1579  0.0690 -0.1876
15927W        W31736  17.957  17.553  11.055  0.3214  0.0812  0.0466
15928W        W31737  11.144  13.159  12.915  0.0384  0.2493  0.0648
15929W        W31738   0.451  15.163   0.906 -0.2072 -0.1934  0.1042
15930W        W31739   0.341   7.227  11.951 -0.1515  0.1740 -0.1593
15931W        W31740   3.801   7.169   1.028  0.3222  0.2881 -0.0920
15932W        W31741  11.845  14.605   3.258  0.3128 -0.0250 -0.1639
15933W        W31742   1.517   2.212  15.011  0.2870 -0.1303 -0.0280
15934W        W31743  12.242   7.125   0.869  0.1458  0.2087  0.1269
15935W        W31744   1.308   0.662   4.532 -0.0182  0.0305  0.0927
15936W        W31745  15.471  14.151   3.037 -0.2277 -0.1475  0.4905
15937W        W31746  15.553  15.353   0.387 -0.1747 -0.2730 -0.3216
15938W        W31747  14.088   5.876   0.858 -0.1197 -0.2491  0.2055
15939W        W31748  14.114  17.958   5.135 -0.0521 -0.1045  0.0998
15940W        W31749  14.270  11.269   5.106 -0.1057  0.1434 -0.1467
15941W        W31750  18.475  11.217  11.426 -0.0217 -0.3314  0.0211
15942W        W31751   6.843  13.473   3.555  0.0053  0.1127  0.0654
15943W        W31752  15.253  12.315  11.771 -0.0273 -0.5514  0.2095
15944W        W31753  13.291  10.574  15.291  0.0164  0.1699 -0.0011
15945W        W31754   9.447   0.062   4.110 -0.2912  0.2204  0.0713
15946W        W31755  18.564   2.723  14.182  0.0467  0.2770  0.1152
15947W        W31756   3.522   3.862  14.071 -0.0119  0.0943 -0.2462
15948W        W31757   6.237  12.446  11.733  0.2278 -0.1193  0.1016
15949W        W31758   4.581   1.736  15.514  0.0031 -0.2465  0.1557
15950W        W31759   4.376  15.706  13.329 -0.1355  0.1462  0.0431
15951W        W31760  10.496   7.445  14.471  0.0459 -0.2349 -0.1079
15952W        W31761  10.293   8.356  14.228  0.1668  0.0151  0.1407
15953W        W31762  13.203  15.415  11.666  0.1209  0.0156 -0.0954
15954W        W31763   8.867   4.656   2.327  0.0919 -0.0154  0.1484
15955W        W31764   9.108  17.007  13.020 -0.0296  0.0614  0.1224
15956W        W31765   6.465   8.879   4.416  0.2640  0.1429  0.3378
15957W        W31766  13.169   0.108  14.417  0.0034  0.0568  0.2963
15958W        W31767   9.841   2.394   4.287 -0.2374  0.1757 -0.0995
15959W        W31768   3.418  16.752   0.752 -0.2795  0.1418 -0.1157
15960W        W31769   1.445  13.816  15.434 -0.3306  0.0783  0.0148
15961W        W31770   4.837  13.582   3.821 -0.1183 -0.0408  0.1450
15962W        W31771  16.966   7.390   0.068  0.1592 -0.1662  0.2914
15963W        W31772   3.752  18.632   4.494  0.2245 -0.2791 -0.3673
15964W        W31773  16.236   6.209  15.568 -0.1977 -0.3580 -0.1306
15965W        W31774   5.892   4.848   3.132 -0.0546 -0.0529  0.4837
15966W        W31775   1.170  10.997  11.247 -0.0012 -0.1224  0.0564
15967W        W31776  18.268   0.779   3.154  0.1774 -0.2372 -0.2829
15968W        W31777   5.845   2.467   0.820  0.1796  0.2943  0.0596
15969W        W31778   9.168  11.491   2.375 -0.0267 -0.3289 -0.1108
15970W        W31779   6.741   8.451   4.317  0.0367 -0.0101  0.0693
15971W        W31780   4.214  15.389  13.738  0.0371  0.3524  0.0952
15972W        W31781  15.392   2.516   2.424  0.0618  0.1107  0.1998
15973W        W31782  15.343   8.850  15.607  0.0436  0.0473 -0.1258
15974W        W31783  15.964   5.449   0.341 -0.0728 -0.1466  0.1110
15975W        W31784  17.284   4.495  12.628  0.1308  0.0115 -0.0942
15976W        W31785  14.827   3.685   0.147  0.0685 -0.1778 -0.0162
15977W        W31786  18.259   1.559   1.623  0.0061 -0.1013 -0.0110
15978W        W31787  15.023  18.599   4.630  0.0591  0.0289 -0.1021
15979W        W31788  16.383   1.795  15.550 -0.2328  0.3753 -0.0562
15980W        W31789   7.018   8.897  12.274  0.0729  0.3107 -0.0442
15981W        W31790   5.485   8.494  11.783 -0.0520 -0.2633  0.0725
15982W        W31791  11.364   9.702  10.949  0.1242  0.0643 -0.2433
15983W        W31792  12.778   7.890  11.821  0.0207 -0.1195  0.1830
15984W        W31793   0.057   6.711  11.702 -0.3105 -0.1903 -0.0873
15985W        W31794   3.943  15.489  14.663 -0.0902  0.0294 -0.1137
15986W        W31795   2.659   8.276   4.037 -0.2149 -0.3060 -0.1683
15987W        W31796  13.326  14.290  12.031 -0.1883  0.0518 -0.1439
15988W        W31797   8.936   3.589  11.638 -0.1075 -0.1835  0.1720
15989W        W31798   2.172   2.319   5.921  0.0770 -0.3313  0.0242
15990W        W31799   2.042  13.807  13.269 -0.0334 -0.0524  0.0862
15991W        W31800  18.282   7.388  11.455 -0.1139  0.0377 -0.0472
15992W        W31801  13.462   1.284  13.833 -0.0578  0.5030 -0.1034
15993W        W31802  16.799   8.292  10.446  0.1463 -0.0644  0.1415
15994W        W31803   5.242  13.585  11.182  0.3517 -0.0003  0.3293
15995W        W31804   6.835  10.348  13.500 -0.1513 -0.2007  0.1343
15996W        W31805  12.225  13.728   3.248 -0.1095  0.0375 -0.1311
15997W        W31806  10.052   2.293   0.862  0.0648  0.0265  0.2257
15998W        W31807   8.181   0.041  11.518 -0.1852  0.1579  0.0782
15999W        W31808   8.091   0.510   3.244  0.1658  0.1968 -0.1225
16000W        W31809  14.841   0.085  10.380 -0.2174 -0.1775 -0.0637
16001W        W31810   4.108   4.154   1.382 -0.1709  0.4011  0.1896
16002W        W31811  17.223   3.593   4.830  0.1710 -0.0506  0.2364
16003W        W31812   6.347  18.639  14.360 -0.0059 -0.3142  0.1902
16004W        W31813  10.748   0.300  12.570 -0.3188  0.1430 -0.3195
16005W        W31814   7.475  16.095   0.124  0.2927  0.2176  0.1042
16006W        W31815   7.341   4.589   4.181 -0.0740  0.1788 -0.3475
16007W        W31816   6.305  17.872  13.711 -0.2583 -0.1086  0.0310
16008W        W31817   0.181  12.959  13.782  0.1040 -0.4117 -0.0070
16009W        W31818  10.080   7.897  12.338 -0.0810 -0.0835  0.0904
16010W        W31819  10.663  17.936  14.942  0.2176  0.0115  0.2693
16011W        W31820   2.991  10.133  15.297  0.2182  0.0698  0.3330
16012W        W31821  14.372  14.967  10.995  0.2493  0.1704  0.1373
16013W        W31822  17.252   8.528  15.558  0.0094 -0.0181  0.0550
16014W        W31823   3.368   9.312  13.614  0.2280  0.1323  0.0487
16015W        W31824   0.676  16.032  11.570 -0.0651  0.1261  0.3178
16016W        W31825  12.268   3.709  11.503 -0.0381 -0.0376  0.2766
16017W        W31826   7.285  17.100  13.111 -0.1516 -0.0553 -0.0035
16018W        W31827  12.647  14.005  13.546  0.0210  0.0321  0.2730
16019W        W31828   4.858   6.506  14.746  0.3787 -0.0109 -0.0793
16020W        W31829  18.425   5.447  15.641 -0.1898  0.0761  0.2087
16021W        W31830   0.530  10.988  11.846 -0.0621 -0.4352  0.1006
16022W        W31831  13.111  15.417  12.653 -0.1750 -0.0057 -0.0065
16023W        W31832  18.356  17.527  11.366 -0.2860 -0.1856 -0.0733
16024W        W31833   3.821  12.312  15.515  0.0802 -0.0335  0.1156
16025W        W31834   4.437   1.185   2.318 -0.1239  0.2859 -0.1300
16026W        W31835   8.174  11.681   4.625 -0.0139 -0.0654 -0.0396
16027W        W31836   6.766   7.906   0.172 -0.1922  0.0149  0.0922
16028W        W31837  18.358   8.606  12.237 -0.0912 -0.1693 -0.0406
16029W        W31838  11.162  11.159  14.197  0.0318  0.0599 -0.0159
16030W        W31839  15.325   4.796  13.325  0.2425 -0.1122 -0.0369
16031W        W31840  16.848   6.164  14.732 -0.1092  0.0314 -0.0289
16032W        W31841  13.128   9.907  14.654 -0.0552  0.0676  0.0976
16033W        W31842  12.616   7.455  14.758  0.3904  0.0654  0.1043
16034W        W31843  16.549   8.257  13.856 -0.0513 -0.1270 -0.1215
16035W        W31844   0.237   7.823   2.706  0.1317 -0.0550  0.1134
16036W        W31845   8.001   1.097   5.054  0.0797  0.2555  0.2087
16037W        W31846  11.573  15.422   2.797  0.0777  0.0704 -0.0412
16038W        W31847  11.199  11.311   3.251  0.3899 -0.1024 -0.2795
16039W        W31848   7.739   5.830  13.560 -0.0466 -0.1433 -0.0363
16040W        W31849  15.143   9.709   2.763  0.2253  0.1315 -0.1474
16041W        W31850   9.748  17.396   9.944 -0.0750  0.0165 -0.0769
16042W        W31851   3.601  17.278   3.246  0.1930  0.2447 -0.4509
16043W        W31852   0.159  18.588   4.069 -0.0971 -0.0168 -0.2281
16044W        W31853  16.622   8.408   1.566  0.4421 -0.2783  0.0779
16045W        W31854  13.006   9.935  10.425  0.1091  0.1084  0.1033
16046W        W31855   8.222  17.286   6.079 -0.2316 -0.0188 -0.0536
16047W        W31856  16.234   6.262   2.527 -0.2383  0.4178 -0.0871
16048W        W31857  17.848  12.411  15.471  0.0197 -0.1126  0.2267
16049W        W31858  14.316  10.127   1.315  0.1235 -0.0613  0.1025
16050W        W31859  18.620   7.344   0.323  0.0974  0.1936 -0.0061
16051W        W31860   9.759  17.192  14.069 -0.4535 -0.0677 -0.1249
16052W        W31861  17.189  15.013  15.661 -0.0759  0.0284 -0.1131
16053W        W31862  16.341   2.887   2.418  0.0986 -0.1320 -0.1310
16054W        W31863  11.138   0.445  11.722 -0.2697  0.3491  0.1824
16055W        W31864   0.029   7.681  14.522  0.0692  0.2387  0.2852
16056W        W31865  14.596   6.545  14.347 -0.0162  0.1626 -0.0199
16057W        W31866   6.386  14.676   0.218  0.1252  0.4528 -0.0940
16058W        W31867  10.947   5.732   3.674  0.0715 -0.0625  0.0261
16059W        W31868   1.038   1.039  15.317 -0.0309  0.3721 -0.1571
16060W        W31869   5.410   6.451   0.560 -0.1829 -0.0326 -0.1083
16061W        W31870  16.865  16.781   3.914  0.2089 -0.1650  0.0313
16062W        W31871  15.612   1.465  11.242  0.0470 -0.1127 -0.1805
16063W        W31872  10.285  16.704   3.630  0.2161  0.1552 -0.0769
16064W        W31873   4.764  11.550  14.647 -0.2039  0.0945 -0.0523
16065W        W31874   3.550  11.212   3.912 -0.0376  0.0214 -0.1329
16066W        W31875   7.158   0.215   2.416  0.3939 -0.0709  0.0738
16067W        W31876  14.632   5.923  14.879  0.1773  0.0519  0.4991
16068W        W31877  16.350  11.651  11.493  0.2118 -0.2574  0.0621
16069W        W31878  16.389   6.789   4.584 -0.0639 -0.0709 -0.1618
16070W        W31879  17.536   0.871   1.507 -0.0354  0.1982 -0.1836
16071W        W31880  17.978   3.316   1.558 -0.1178 -0.0403 -0.0017
16072W        W31881  18.259   9.961   3.261 -0.0854  0.1009  0.3452
16073W        W31882   0.502  17.739   5.807 -0.1710 -0.0203  0.0588
16074W        W31883   4.934   6.538   4.506  0.2714  0.0925 -0.4491
16075W        W31884   8.391   9.585  14.946  0.1028 -0.2507 -0.3837
16076W        W31885   6.213   2.140   5.916 -0.0530 -0.2371  0.0670
16077W        W31886   5.692  13.176   3.655 -0.0633  0.4187 -0.1602
16078W        W31887  10.830   2.165  10.893 -0.1301 -0.0084 -0.3583
16079W        W31888   8.742  15.127   4.153 -0.3737  0.1912  0.2244
16080W        W31889  15.804  16.899  14.579 -0.2406  0.2785  0.1496
16081W        W31890   4.191   4.651   1.191  0.1119 -0.2512 -0.2686
16082W        W31891  17.203  16.197  15.647  0.1291  0.0227 -0.4103
16083W        W31892  18.228  12.933  11.221  0.0772 -0.2813  0.2299
16084W        W31893   5.219  12.507   5.043  0.0517 -0.0577  0.0342
16085W        W31894   6.326   7.857  12.554  0.0982  0.0363  0.2110
16086W        W31895   9.585   0.808  10.749  0.1299  0.0267 -0.2127
16087W        W31896   9.674   6.635   0.253 -0.3072 -0.1739  0.0813
16088W        W31897   1.918  10.551   5.851 -0.3848  0.4430  0.0022
16089W        W31898   7.437   0.265   1.013 -0.0943 -0.3604  0.0972
16090W        W31899   0.721  12.031   4.793 -0.0386  0.0577 -0.1224
16091W        W31900   9.701  10.549   4.693 -0.3855 -0.1048 -0.1169
16092W        W31901   9.032   4.366   3.610 -0.0870  0.2685 -0.1318
16093W        W31902   0.544  16.666   3.105 -0.2199 -0.0898  0.0001
16094W        W31903  11.289  17.009  12.284  0.0448  0.0825 -0.2855
16095W        W31904   8.647   8.919   2.221  0.1952  0.1842  0.0087
16096W        W31905   1.578  14.076   1.420 -0.1944 -0.1157 -0.2083
16097W        W31906  17.636   0.386   1.513 -0.2373  0.0842  0.1082
16098W        W31907   7.198  13.494  11.535  0.2093 -0.0471 -0.1104
16099W        W31908   4.945  15.091  12.838  0.1698  0.2676  0.0343
16100W        W31909   4.913  11.040  15.318  0.0084  0.1038 -0.2256
16101W        W31910  17.340  14.751  11.131  0.2211  0.1521  0.0322
16102W        W31911   1.060   5.267   0.167 -0.2940  0.0028 -0.2092
16103W        W31912  15.045  13.729   2.180  0.1049  0.1902 -0.1094
16104W        W31913  18.110  17.751  10.596  0.0994 -0.3765  0.0354
16105W        W31914  18.289   7.154  15.068 -0.0952 -0.2246 -0.1398
16106W        W31915   0.555  17.242   2.654 -0.1367  0.0704  0.2276
16107W        W31916   8.014   1.603  13.069  0.1253 -0.2573  0.0228
16108W        W31917  14.725   8.801  11.556  0.4369  0.4925 -0.2583
16109W        W31918   2.979   2.399   4.326 -0.0476 -0.2813 -0.0201
16110W        W31919   3.020  11.749   4.516  0.2865  0.1881  0.0560
16111W        W31920  10.169  17.482   0.585  0.3585 -0.4106 -0.1052
16112W        W31921   8.023  15.238   0.027  0.0314 -0.2786  0.0277
16113W        W31922   6.669   5.010  15.038  0.0690  0.1416  0.0201
16114W        W31923   7.011   1.937   0.341 -0.0938 -0.0677 -0.0570
16115W        W31924  12.326  17.004   1.376 -0.1168  0.1892 -0.2552
16116W        W31925   4.022   2.693  10.287 -0.1826  0.0636  0.0610
16117W        W31926  13.228  11.304   3.024 -0.1525  0.0121 -0.0795
16118W        W31927  17.245   0.149   0.972 -0.0033  0.0621  0.1501
16119W        W31928   8.828   9.127  10.423  0.0516 -0.0078  0.1841
16120W        W31929   6.692  16.884   1.794  0.0707  0.0566  0.2604
16121W        W31930   0.823   9.341   0.431  0.3808  0.1693 -0.2151
16122W        W31931  12.308  16.854  12.274  0.2870  0.0629  0.1374
16123W        W31932   3.185  15.782   4.160  0.0573 -0.1209 -0.1757
16124W        W31933   3.070   3.513   3.769 -0.0332  0.1001  0.2398
16125W        W31934  12.169   2.501   3.684  0.1730  0.0141 -0.1012
16126W        W31935  16.064  17.193  10.263  0.0808 -0.2629 -0.1639
16127W        W31936  14.363   1.470  12.509 -0.0155 -0.0655  0.4376
16128W        W31937   4.614   9.105  15.018  0.0037 -0.0986 -0.1573
16129W        W31938   7.774  10.202   0.398 -0.0074  0.1946  0.1241
16130W        W31939  10.766   7.081   1.743 -0.2136  0.1836  0.0693
16131W        W31940   2.596   0.716  11.054  0.1665  0.1820 -0.1205
16132W        W31941  16.395  12.893  14.038  0.2017  0.0108  0.1710
16133W        W31942  15.474  18.367   0.158 -0.0436 -0.1026  0.3221
16134W        W31943  12.191   2.092   1.604 -0.0250  0.1485 -0.2894
16135W        W31944   8.154   1.307   1.354 -0.1062  0.0389  0.1486
16136W        W31945   0.118   1.076   3.200  0.3994 -0.0379  0.0746
16137W        W31946  18.240  14.178   1.213 -0.1585  0.1597 -0.1704
16138W        W31947   6.025   4.861  10.529  0.0556  0.3305  0.0477
16139W        W31948   9.116  10.566   4.704 -0.0244 -0.1560 -0.0408
16140W        W31949  11.442   5.353  14.415 -0.0538 -0.0242  0.0966
16141W        W31950   4.591  15.794   1.662 -0.1853 -0.3564 -0.1496
16142W        W31951   8.090  17.333   5.094  0.1233 -0.0909  0.0810
16143W        W31952   1.890  14.781   5.179 -0.1430  0.0143 -0.0908
16144W        W31953   6.607  16.071   2.317  0.0293  0.4107  0.1387
16145W        W31954  17.728   0.417  14.702 -0.1646  0.3669  0.1961
16146W        W31955   7.979   1.825  10.826  0.1304 -0.0564  0.0901
16147W        W31956   4.504  16.235  15.650 -0.0217 -0.0404 -0.2230
16148W        W31957   0.460   7.195   2.045  0.0699 -0.2385 -0.0938
16149W        W31958   3.485  14.067   4.703 -0.0633  0.0385 -0.4034
16150W        W31959  10.123  13.736   2.657 -0.1649  0.1840  0.1936
16151W        W31960  15.903  13.986   2.731  0.0640  0.1846  0.0217
16152W        W31961   1.425  12.610   9.812 -0.0015 -0.0872  0.2857
16153W        W31962   0.428   0.759  10.348  0.4325  0.1084 -0.0157
16154W        W31963   6.364   0.353   4.256 -0.0790  0.0528 -0.0692
16155W        W31964   6.400  18.337  13.154 -0.3112  0.1256  0.1409
16156W        W31965   5.684   9.041   1.206 -0.2866  0.0718 -0.1296
16157W        W31966  18.504  17.303   2.098  0.0740  0.0104  0.2646
16158W        W31967  16.140   8.271   3.895 -0.0752 -0.1194 -0.0176
16159W        W31968  13.939  14.847  12.453 -0.0981  0.0304  0.0859
16160W        W31969  10.274  12.549   0.728  0.3046  0.0154 -0.0967
16161W        W31970  14.402  14.219   9.229  0.1794  0.1520 -0.0309
16162W        W31971   6.751  14.668   2.998  0.3110 -0.1571 -0.2101
16163W        W31972  12.979   1.420  13.828 -0.0581  0.1100 -0.0032
16164W        W31973  16.550   0.743  12.943 -0.2389  0.2043 -0.1164
16165W        W31974   3.035  16.353  13.504  0.2938 -0.2233  0.2682
16166W        W31975  16.347   9.374   2.285 -0.3278  0.2183 -0.1715
16167W        W31976  15.492  11.495  15.682  0.3176 -0.1309  0.0019
16168W        W31977  12.147   6.547   1.781 -0.2054 -0.0784  0.2970
16169W        W31978   1.038  14.626  11.259  0.2818 -0.1838 -0.0353
16170W        W31979   1.251  10.964  12.837 -0.1265 -0.2335  0.1955
16171W        W31980  14.942   3.556  13.644  0.3678  0.1956  0.0943
16172W        W31981  10.592   7.501   2.357 -0.2984  0.0131 -0.0664
16173W        W31982  16.466  16.272  14.088 -0.0966  0.0910 -0.1940
16174W        W31983  12.795  13.427   3.706 -0.1341  0.1347  0.3669
16175W        W31984  13.864  13.960   5.000  0.1345  0.1352  0.1568
16176W        W31985   3.791   1.435  12.144  0.0241  0.0345  0.0512
16177W        W31986   7.051  10.231  11.287 -0.3391  0.0980  0.1497
16178W        W31987   3.441  16.975  11.928 -0.2683 -0.1933  0.0297
16179W        W31988  15.263  12.397   2.824  0.1024 -0.2190 -0.2240
16180W        W31989   6.851   4.359  15.409 -0.0438 -0.2177  0.0420
16181W        W31990   9.894  17.800   0.847 -0.3250  0.2613  0.1675
16182W        W31991   4.330  10.473   4.727 -0.0326  0.2671 -0.0061
16183W        W31992  10.260  14.564   3.023 -0.0745  0.1986  0.0466
16184W        W31993  17.592  11.541   4.741 -0.0752 -0.1344  0.4090
16185W        W31994  15.214  17.529  13.001  0.0026 -0.0852 -0.0249
16186W        W31995   3.241   9.980   2.058  0.0359 -0.1019  0.1363
16187W        W31996   4.554  15.253   4.711  0.0613  0.1279 -0.0603
16188W        W31997   9.853  10.484  15.160 -0.0934  0.0320  0.0563
16189W        W31998   6.070  16.565  13.052 -0.0797  0.1881  0.2800
16190W        W31999   1.453   1.706  15.429  0.2875 -0.1742  0.0423
16191W        W32000  10.011  11.593   4.631  0.1084 -0.1681  0.2505
16192W        W32001  15.977   4.931   3.723  0.0667 -0.1020  0.2386
16193W        W32002   0.943   3.971   2.802 -0.0102 -0.2099 -0.4042
16194W        W32003   3.020  17.197   1.057 -0.2429 -0.1115  0.0331
16195W        W32004  10.472  18.636   0.658  0.0596  0.1939 -0.1007
16196W        W32005  18.248   5.192   4.856  0.1140  0.0271  0.1705
16197W        W32006  11.444  16.783  14.239 -0.1601 -0.1199 -0.2482
16198W        W32007   4.215  15.463   5.225  0.1303 -0.3670 -0.0526
16199W        W32008  13.878  12.159   3.238  0.0711  0.1100 -0.2248
16200W        W32009  13.929   4.812   1.818  0.2076 -0.1567  0.3525
16201W        W32010  17.294  15.433   3.222 -0.0648 -0.1088  0.0414
16202W        W32011   8.629   2.393   2.243 -0.1838 -0.0825 -0.3778
16203W        W32012   3.687   2.845   4.076  0.0626  0.1341  0.0908
16204W        W32013   6.770  15.096  14.330  0.1267  0.1233 -0.1013
16205W        W32014   0.525   2.578  15.314 -0.0978 -0.1555  0.0510
16206W        W32015  15.883  15.012   4.307  0.1199  0.0485  0.5586
16207W        W32016  11.656   2.634   2.980 -0.1221  0.0683  0.0959
16208W        W32017  14.693  13.704  13.147  0.0119  0.4402  0.1618
16209W        W32018  10.434   9.303  10.970  0.2294  0.0048  0.1982
16210W        W32019  15.010   3.059   5.529 -0.0855  0.1478 -0.0995
16211W        W32020  14.240  11.828  11.107 -0.0170 -0.1179 -0.1252
16212W        W32021   1.926   1.392  12.800  0.3608  0.2143  0.1719
16213W        W32022   0.278  13.692   2.809 -0.0196  0.0194 -0.1409
16214W        W32023   4.025   3.903   1.820 -0.2136  0.0022  0.1719
16215W        W32024   5.116   9.766   2.585  0.0485 -0.3518  0.0217
16216W        W32025   8.847   9.653  13.578  0.0022  0.4393 -0.1301
16217W        W32026   3.033  17.646   0.750  0.1114  0.1206  0.0394
16218W        W32027  18.326   0.081   4.453  0.2218  0.1780 -0.3066
16219W        W32028  14.498   9.407   0.237  0.0555 -0.1363 -0.0925
16220W        W32029  13.107   7.124  12.859  0.1661  0.0873 -0.0745
16221W        W32030   2.402  17.945  12.832  0.0439  0.3420 -0.0531
16222W        W32031  10.819  11.698   1.791  0.1492  0.1768 -0.1683
16223W        W32032  10.950  16.679  12.496 -0.2676  0.2716  0.1055
16224W        W32033   8.553  14.231  10.489 -0.1866 -0.2266 -0.1711
16225W        W32034  14.808  10.445   2.993 -0.0054  0.0891  0.2537
16226W        W32035   0.933   3.957  14.334 -0.1363 -0.0672 -0.0519
16227W        W32036  17.566  16.418   4.706  0.1044  0.1463 -0.0663
16228W        W32037  12.791  13.699  15.109 -0.1865 -0.5879 -0.0103
16229W        W32038   1.200   5.606   0.632  0.0002  0.1749 -0.2395
16230W        W32039   9.287  10.012   3.048 -0.2488  0.0120  0.1834
16231W        W32040  17.286  18.079   2.368 -0.2234  0.1790 -0.0300
16232W        W32041   1.760   5.395   5.501 -0.1204  0.4294  0.1497
16233W        W32042   3.926   1.157  13.567  0.0550  0.0055  0.2574
16234W        W32043   6.572  13.868   3.568 -0.1016 -0.2479 -0.1387
16235W        W32044   5.293   6.223   3.564 -0.2145 -0.0438  0.0902
16236W        W32045  11.922  13.953   1.842 -0.2076  0.1983  0.2965
16237W        W32046  14.000   0.813   2.744 -0.0491  0.0234 -0.0990
16238W        W32047   2.319  18.242   1.866  0.2928  0.1001 -0.0502
16239W        W32048   9.735  13.787  11.957 -0.0263  0.3273 -0.4524
16240W        W32049   4.693   7.894  11.712  0.3030 -0.0934  0.1341
16241W        W32050   4.255  16.152  13.039 -0.1961 -0.0151  0.2311
16242W        W32051  13.863  11.272   0.207  0.1363  0.2305  0.0413
16243W        W32052  15.797   9.523   4.122  0.2845  0.0048 -0.0797
16244W        W32053  14.225   4.199  13.778  0.1814 -0.1147  0.2449
16245W        W32054  14.123  17.227   3.107 -0.3208 -0.1548  0.0181
16246W        W32055  16.068  16.053  15.090  0.3536  0.1680 -0.2974
16247W        W32056  15.560  14.410   3.488  0.2914  0.0198  0.0183
16248W        W32057  12.178   4.593  11.055  0.1676  0.1657  0.1598
16249W        W32058   8.422   2.161   3.026  0.0195  0.2946  0.2358
16250W        W32059   5.112   3.745   0.397  0.1799  0.1166 -0.3609
16251W        W32060   3.413   7.236   3.801  0.2718 -0.1274 -0.0809
16252W        W32061   9.946  15.011   1.203 -0.0953  0.1573  0.0782
16253W        W32062   9.972   5.664   4.045  0.2646 -0.0262  0.0902
16254W        W32063  10.894   4.201   3.586 -0.0027  0.2641  0.1587
16255W        W32064   1.922   3.811   0.118 -0.0003 -0.2626 -0.0322
16256W        W32065   1.593  15.305  12.285  0.1634  0.1292 -0.0766
16257W        W32066  18.625  17.194  15.526 -0.1181 -0.0419 -0.3235
16258W        W32067   0.032  17.779   4.594  0.2658 -0.0158 -0.2847
16259W        W32068  15.343  13.543  14.727  0.4057  0.3332  0.1654
16260W        W32069  17.193   6.785   0.213  0.1958  0.1143  0.0952
16261W        W32070  12.580   5.011   3.133  0.3815  0.3109  0.0671
16262W        W32071   6.416  18.442  15.492  0.1787 -0.3143  0.0139
16263W        W32072  11.361   1.578   3.475  0.1894 -0.0318  0.0451
16264W        W32073   4.577  14.763   2.979 -0.0625  0.2971 -0.2478
16265W        W32074   6.006  16.181  13.979  0.0442 -0.0789 -0.1724
16266W        W32075   9.108  13.767  14.238  0.0627 -0.0551 -0.1735
16267W        W32076   1.098   2.274  13.594 -0.5229 -0.1964 -0.1508
16268W        W32077   9.993   8.568  15.741  0.3135 -0.2147 -0.2494
16269W        W32078   2.146   8.941   4.684  0.0770 -0.2392  0.1661
16270W        W32079   3.757   4.790  11.694  0.0616 -0.0790 -0.1090
16271W        W32080  17.038  15.690  15.008  0.0285 -0.1040 -0.0017
16272W        W32081   1.412  11.667  12.242  0.0494  0.0453  0.0714
16273W        W32082  11.541  10.206   6.111 -0.2337 -0.1007 -0.1373
16274W        W32083  16.454   6.914   2.408  0.4835  0.1505  0.1361
16275W        W32084   5.597  15.422  10.764  0.1726 -0.1669  0.3562
16276W        W32085   8.048  13.316   0.935  0.1260  0.1516 -0.1282
16277W        W32086   7.859  11.999  11.396 -0.3248  0.0873  0.2373
16278W        W32087  11.322   0.600   2.635  0.0427 -0.0066  0.1181
16279W        W32088  14.858   9.958  12.935  0.0329 -0.1178 -0.1140
16280W        W32089  16.388  15.012   5.021  0.2067 -0.3198 -0.2545
16281W        W32090  11.116  18.281  11.135  0.2365  0.1245  0.2809
16282W        W32091  12.916  10.110  14.212 -0.0091 -0.1322  0.3439
16283W        W32092   5.266  13.437   1.693 -0.0022 -0.0589 -0.0052
16284W        W32093   9.276   0.406  13.170  0.1233 -0.0830 -0.5854
16285W        W32094   7.233  13.658   3.868  0.1552  0.0564  0.2065
16286W        W32095   8.085   4.834  11.429  0.2910 -0.0566 -0.2531
16287W        W32096  12.839   4.106   0.477  0.2038 -0.0151  0.0917
16288W        W32097  18.189  16.125  12.435  0.0724  0.3173  0.1373
16289W        W32098  13.119   3.706   1.658 -0.0748 -0.1133  0.0547
16290W        W32099   2.413  13.823   1.388 -0.0748 -0.4394 -0.1977
16291W        W32100  10.083  17.903   4.311 -0.0401 -0.3450  0.0064
16292W        W32101  10.577   3.130   0.676 -0.0764  0.3155  0.2130
16293W        W32102  12.473   6.171  13.666  0.1090  0.2410 -0.1657
16294W        W32103  10.123  12.033  11.022  0.0298 -0.1397  0.0692
16295W        W32104   3.505  11.139  14.139 -0.0544 -0.2408 -0.1997
16296W        W32105   4.050   2.091  13.506  0.1777 -0.1608  0.1906
16297W        W32106   3.570  14.237  13.777  0.2820 -0.1145 -0.0183
16298W        W32107   7.385   7.283  15.304 -0.0403 -0.0795  0.0043
16299W        W32108   9.193   2.256  13.398  0.0031  0.1784 -0.0657
16300W        W32109   6.786   1.001   1.705  0.0387  0.2177  0.0201
16301W        W32110  10.509  17.750   9.805 -0.3824  0.0332 -0.0755
16302W        W32111  17.831   4.255   0.633 -0.0699 -0.0156  0.0506
16303W        W32112   6.739   8.079   3.939  0.1189 -0.5021 -0.0701
16304W        W32113   9.365  15.130   4.256 -0.0341 -0.2664 -0.1214
16305W        W32114  13.587  13.380   1.864  0.1831 -0.0828 -0.0937
16306W        W32115  10.714  10.084  14.741 -0.0156  0.0579  0.1046
16307W        W32116  15.377   3.074   2.495  0.0086 -0.0350 -0.3010
16308W        W32117   1.990   3.600  14.480  0.1574  0.0979 -0.0695
16309W        W32118   5.593   6.100   3.137 -0.3490  0.0695  0.1275
16310W        W32119   9.069  18.060   0.859 -0.0199 -0.0113 -0.0751
16311W        W32120   6.762  10.683  12.474 -0.0228 -0.1445  0.0707
16312W        W32121   0.446   8.628   1.088  0.2757  0.0996 -0.4455
16313W        W32122  17.146   5.196   0.523 -0.1332  0.1006  0.0708
16314W        W32123   0.319   5.269   4.280 -0.3691  0.0295 -0.0625
16315W        W32124   9.249  11.673   4.015 -0.2531  0.1301  0.0995
16316W        W32125   1.573  11.915   5.366 -0.0914  0.1586  0.2254
16317W        W32126  18.280  13.705  10.585 -0.0625  0.1080 -0.0260
16318W        W32127   0.006   4.615   0.194  0.2653 -0.1108  0.0522
16319W        W32128   8.678   6.201  15.026  0.2478 -0.1478 -0.2344
16320W        W32129  15.138   8.416   0.342  0.0613 -0.4741  0.0850
16321W        W32130  15.292  14.668  13.137  0.0112 -0.0865 -0.0500
16322W        W32131   8.263   6.450   3.282 -0.0333  0.1704 -0.4285
16323W        W32132  16.578   0.512  12.411  0.1360 -0.0846  0.1943
16324W        W32133  17.905   4.622   3.296 -0.0616 -0.2549  0.3922
16325W        W32134   4.730   0.940   0.036 -0.1734  0.3674  0.1940
16326W        W32135   0.712   5.341   5.167 -0.0519  0.0312 -0.3169
16327W        W32136   7.777   9.492   2.660 -0.0113  0.1566  0.0815
16328W        W32137  10.441  17.100  10.589  0.1444 -0.1251 -0.0531
16329W        W32138   8.188  17.167  12.803 -0.2809  0.1485  0.2174
16330W        W32139   5.023   7.148  10.611  0.1899 -0.2031 -0.3184
16331W        W32140   1.338  13.289  14.226 -0.0252 -0.0515 -0.0614
16332W        W32141   0.635  10.919  10.964  0.4528 -0.0393  0.2168
16333W        W32142   9.285  14.070   3.573  0.0994  0.3516 -0.0260
16334W        W32143  16.995  10.926  11.251 -0.2755 -0.0948  0.2155
16335W        W32144  12.714  15.664   0.987  0.2475 -0.1112 -0.5300
16336W        W32145   8.513   1.728   3.551 -0.5095  0.0727 -0.1615
16337W        W32146  15.275  14.854  15.202 -0.0526  0.1528  0.2617
16338W        W32147  17.669  16.450   0.189  0.0594 -0.0240 -0.1352
16339W        W32148   1.488  10.154  11.627 -0.1663  0.0940 -0.2332
16340W        W32149  11.701  18.520  14.810 -0.1255  0.1096 -0.1301
16341W        W32150  16.670   4.384   2.765  0.1869  0.0479 -0.2481
16342W        W32151  16.133   4.116   5.376  0.1286  0.2982  0.1367
16343W        W32152  18.336   1.435  12.821 -0.0841  0.0572  0.4198
16344W        W32153   5.140   5.086  11.722  0.1413 -0.0359  0.1585
16345W        W32154  16.004   3.623  14.364  0.1288  0.1300 -0.1667
16346W        W32155   9.112   2.058   2.395 -0.1589 -0.0897  0.3021
16347W        W32156  15.727  17.287   4.918  0.6067 -0.1376 -0.1187
16348W        W32157  10.897   9.220  14.321  0.0514 -0.1979  0.1328
16349W        W32158   5.140   3.817   0.917 -0.1593 -0.0344  0.1220
16350W        W32159   7.023  11.744  14.466  0.0251  0.0943 -0.3147
16351W        W32160  14.849   4.857  10.650 -0.1071 -0.5808 -0.2197
16352W        W32161   8.812   8.198   3.272  0.1856  0.0639  0.0896
16353W        W32162   1.966  14.646  12.057 -0.1750  0.0542 -0.3154
16354W        W32163   4.310  13.903  14.256  0.1949  0.0034 -0.1167
16355W        W32164  15.821   0.057  10.708 -0.0082  0.2299  0.1953
16356W        W32165  15.697  10.538  12.497 -0.2537 -0.0918 -0.2048
16357W        W32166  10.412  13.216  10.426  0.1569 -0.0372  0.5052
16358W        W32167   5.814   5.144   1.813  0.1553  0.0275  0.1678
16359W        W32168  17.826  18.014   2.511  0.0154  0.2634 -0.0356
16360W        W32169   7.255  16.694   4.224  0.2016  0.0697  0.1495
16361W        W32170  13.682   7.670   3.381  0.1531 -0.0384  0.2023
16362W        W32171  13.680   2.292   1.371  0.1173 -0.1077  0.2480
16363W        W32172   8.713  13.880   2.750 -0.0241 -0.1814  0.0376
16364W        W32173   3.933   7.300   3.732  0.0766  0.0326  0.0148
16365W        W32174  16.811  14.609  11.166 -0.2061  0.0219 -0.3100
16366W        W32175   0.608  12.718  13.585  0.0796  0.2457  0.0688
16367W        W32176  16.377   2.042   5.586  0.0225  0.0060  0.3043
16368W        W32177   2.090  10.622   2.590  0.0700 -0.1059 -0.2008
16369W        W32178  14.490   9.480   4.714 -0.0182  0.0522 -0.1329
16370W        W32179  14.721   3.936  14.577  0.1576  0.3073 -0.2328
16371W        W32180  13.705   9.095   3.613  0.0107  0.3385  0.2957
16372W        W32181  10.487  10.029  15.575 -0.1065  0.3858  0.0410
16373W        W32182   0.592   3.205  12.958  0.0261 -0.2414 -0.1212
16374W        W32183  13.086   3.989   4.321  0.1198  0.2011  0.1029
16375W        W32184  14.571   3.891  12.334 -0.4751 -0.1559 -0.2898
16376W        W32185   5.433   5.424   1.992  0.0879  0.2260  0.4711
16377W        W32186  10.554   6.968   1.187  0.2979  0.0601  0.2553
16378W        W32187   8.919  16.602  11.175  0.2181  0.1609 -0.3187
16379W        W32188   2.949   1.345  12.970  0.1415  0.2204  0.0755
16380W        W32189   0.403   4.978  13.984  0.1906  0.0907 -0.2192
16381W        W32190   9.815  16.478   3.234 -0.2720  0.3368 -0.1906
16382W        W32191   9.922  17.477  13.341 -0.0395  0.5112 -0.2740
16383W        W32192  10.107  13.434  12.109 -0.0955 -0.0039 -0.2527
16384W        W32193   0.027   3.320  12.294  0.2044 -0.1281  0.1498
16385W        W32194   4.358  16.968  10.899  0.3865  0.0319  0.1604
16386W        W32195  15.938  17.089   0.302 -0.0334  0.1462  0.0064
16387W        W32196  18.646  17.220  10.951 -0.2066 -0.3195 -0.0215
16388W        W32197  18.186   6.090   4.597  0.2557  0.0318 -0.0042
16389W        W32198   5.866  16.527  15.678  0.2016  0.0595 -0.2853
16390W        W32199   4.814   8.289  14.089 -0.1201 -0.1858 -0.1932
16391W        W32200   7.834  15.124   1.091  0.0912 -0.0080  0.3258
16392W        W32201   5.506  15.162  13.055 -0.2543 -0.0183 -0.1801
16393W        W32202  15.600  15.603   5.528  0.0235 -0.1379  0.0144
16394W        W32203   7.754   6.138   5.681  0.2037 -0.0795 -0.2499
16395W        W32204  12.421   0.631   4.846 -0.2525  0.0008  0.0985
16396W        W32205  10.735  16.861   3.720  0.0924  0.0676  0.1252
16397W        W32206  15.211   8.422   2.906 -0.1221 -0.4912 -0.0776
16398W        W32207  15.845  11.172  13.157  0.2644  0.2452  0.3982
16399W        W32208  18.280   9.075   3.090  0.1104 -0.2424  0.0696
16400W        W32209  16.952   1.267   4.459  0.0304  0.1719  0.2513
16401W        W32210   7.165   4.521   3.205  0.1924  0.0448  0.4521
16402W        W32211   6.838   9.259  15.475 -0.3506  0.0967  0.1134
16403W        W32212  11.482   2.419  11.586  0.0464  0.3816  0.3963
16404W        W32213   8.321   3.351  14.717 -0.1382 -0.0038 -0.0346
16405W        W32214  12.396  11.499  13.090  0.3454  0.0709 -0.0684
16406W        W32215   6.605   4.222   2.007  0.0499 -0.1212  0.1285
16407W        W32216  13.538   2.963   3.012  0.4313 -0.2064  0.0907
16408W        W32217   0.904  15.902  12.490 -0.1939  0.2156 -0.1730
16409W        W32218  10.739   0.126   0.206 -0.1181 -0.0884  0.0477
16410W        W32219   2.258  14.285   2.969 -0.2077 -0.0048 -0.3329
16411W        W32220   0.415   3.707   0.164 -0.1583  0.4315 -0.0438
16412W        W32221  13.580  13.463  12.380  0.0548 -0.1835  0.1385
16413W        W32222  16.190  13.535   2.124  0.2843 -0.1108  0.0470
16414W        W32223  15.445  16.330   0.647  0.0895 -0.1124  0.0851
16415W        W32224  17.863   0.340   3.803 -0.1695  0.1060 -0.2331
16416W        W32225   9.726  15.031   2.966 -0.1070  0.0167 -0.0614
16417W        W32226  13.016  10.760   4.016  0.0242 -0.1629  0.0707
16418W        W32227  13.713  12.885  14.070 -0.4608 -0.2386 -0.2262
16419W        W32228  13.764   7.597   0.408  0.0265  0.0240  0.1675
16420W        W32229  14.963   3.275   0.515 -0.1076 -0.0335 -0.0964
16421W        W32230  14.824   1.965   4.742  0.0701  0.0860  0.1475
16422W        W32231   4.184  18.496  13.117  0.2236 -0.1493 -0.0767
16423W        W32232   0.739  11.944  15.608 -0.0322 -0.1472 -0.0791
16424W        W32233   5.070   8.256  11.887  0.0614  0.0242 -0.5146
16425W        W32234   2.437  16.238   3.210  0.2042  0.1178 -0.1173
16426W        W32235   7.395  12.584  14.855  0.0345  0.2079  0.0143
16427W        W32236  18.274   0.471   4.907 -0.1587 -0.0435  0.2131
16428W        W32237  11.751   6.066  13.400  0.2328  0.0364 -0.1428
16429W        W32238  17.761   3.267  13.419 -0.0685 -0.2691  0.0025
16430W        W32239   4.148   7.930  15.114  0.0161 -0.1160 -0.3291
16431W        W32240   2.172  16.915  15.521 -0.2022 -0.0383  0.0052
16432W        W32241  18.610   0.858   5.789 -0.4314  0.2315  0.2486
16433W        W32242  18.277   4.351   4.465  0.1844  0.1377 -0.1308
16434W        W32243  15.900   0.336   1.421 -0.2171  0.0216 -0.0979
16435W        W32244  14.237  12.690   1.820  0.0196  0.0738 -0.2557
16436W        W32245   9.572  16.024  12.559 -0.1328 -0.0025  0.1111
16437W        W32246   7.746   8.526   4.136  0.0666 -0.0232  0.1370
16438W        W32247  17.641   2.829   1.469  0.1735  0.0583 -0.4529
16439W        W32248  15.905   1.432  12.937 -0.1321 -0.0769  0.2390
16440W        W32249  17.100  12.388   5.289  0.2826  0.0480 -0.0821
16441W        W32250   5.476  16.844   3.956 -0.0738  0.2631 -0.0295
16442W        W32251  11.338   4.306   4.062 -0.0055  0.1116 -0.1078
16443W        W32252  10.340   6.433   1.393 -0.1232  0.2905 -0.5997
16444W        W32253  10.441  16.444  12.672 -0.0561  0.2522  0.0301
16445W        W32254  16.850   8.725   3.204 -0.0331 -0.0926  0.1544
16446W        W32255   7.309   4.754  12.010  0.0809 -0.0247 -0.0748
16447W        W32256   1.526  13.244   3.955 -0.0795  0.1324 -0.0692
16448W        W32257   3.298  13.906   5.230  0.0232  0.6216 -0.1656
16449W        W32258  11.197  10.712  11.833  0.0596  0.1056  0.0877
16450W        W32259  16.976   3.781   0.190 -0.0813 -0.1447 -0.2653
16451W        W32260   7.035   8.948  12.813  0.0423 -0.0970 -0.3222
16452W        W32261  11.640   3.100   3.114 -0.3305 -0.2103 -0.1786
16453W        W32262  15.979   0.800  12.768  0.0050  0.0791 -0.2813
16454W        W32263   4.502  10.951   0.520  0.0812 -0.1052 -0.0503
16455W        W32264  18.604  16.075   0.306 -0.2678 -0.4942  0.0516
16456W        W32265  10.281   2.168   4.243  0.2383  0.1119  0.2558
16457W        W32266  12.462  13.757   1.106 -0.0311 -0.0707 -0.1967
16458W        W32267  11.107   4.771  13.271  0.1050 -0.1034  0.1131
16459W        W32268  12.252  11.177  10.632 -0.2628 -0.1273 -0.0771
16460W        W32269   3.890   9.213   2.511  0.0858  0.0340  0.0156
16461W        W32270  13.646   6.587  11.998  0.1293 -0.0646  0.0559
16462W        W32271   0.030  13.885  10.891  0.1041  0.1698  0.2734
16463W        W32272   4.214  16.422  13.925  0.1948  0.1881  0.0433
16464W        W32273  18.350   8.110  15.710  0.0390  0.2238 -0.2527
16465W        W32274  10.825   1.673  11.536  0.0799  0.3048 -0.2280
16466W        W32275   4.701   5.287   3.417 -0.3101  0.0595  0.1457
16467W        W32276   6.246  17.662   3.496 -0.3655  0.2524  0.0039
16468W        W32277  16.841   4.390  13.458  0.0772 -0.0824 -0.0150
16469W        W32278  13.383   0.431   0.051 -0.0946  0.2337 -0.0983
16470W        W32279   5.105   4.894  11.262  0.0429 -0.0780  0.1368
16471W        W32280   1.738  11.533   3.896  0.0956 -0.0125 -0.2310
16472W        W32281  15.749   7.173  10.401  0.1082 -0.1418  0.1737
16473W        W32282   8.298  10.694   4.367  0.1070 -0.2664  0.3429
16474W        W32283  16.429  13.719  11.202 -0.0540  0.0686  0.1477
16475W        W32284  14.079   5.820   2.365 -0.1289  0.0710  0.2677
16476W        W32285   4.094  13.331   1.209  0.0217  0.2731  0.2925
16477W        W32286  17.918   8.587  14.956 -0.0003 -0.2265 -0.2148
16478W        W32287   4.524  15.231  15.056 -0.4366  0.1441 -0.2977
16479W        W32288   8.174   7.470  12.521  0.2094 -0.0688 -0.1026
16480W        W32289  11.171   8.783  14.008  0.2426 -0.1005  0.1137
16481W        W32290   2.199   0.862   1.054 -0.0798  0.4112 -0.2648
16482W        W32291   1.985  13.409   5.567 -0.0654 -0.0786  0.1912
16483W        W32292  10.654   5.993   1.665  0.1051  0.0913 -0.1523
16484W        W32293   7.105  18.026  14.310  0.1177  0.3507  0.1656
16485W        W32294  17.105   1.875   5.085  0.2179  0.2183 -0.0622
16486W        W32295  16.213  10.591  13.323 -0.2833 -0.1483  0.1726
16487W        W32296   1.651   1.827  11.082  0.1922 -0.0581 -0.0443
16488W        W32297  11.958   4.446  14.316 -0.2624 -0.1534 -0.1650
16489W        W32298   9.473   3.490   1.485  0.2247 -0.2100  0.2339
16490W        W32299  16.004  13.943   1.809  0.1846 -0.1384 -0.2086
16491W        W32300  17.136   0.023   4.600 -0.0446 -0.0509 -0.0083
16492W        W32301   7.585   6.140   1.408 -0.2037 -0.1798 -0.0877
16493W        W32302   4.286  10.633  11.256  0.0932 -0.0063  0.0634
16494W        W32303  18.588  13.523  14.432  0.1523 -0.1736  0.0283
16495W        W32304  16.550   4.473   4.728  0.0222 -0.1130 -0.1001
16496W        W32305   2.515  10.959   2.899  0.0891 -0.0030  0.1661
16497W        W32306  11.377  17.535  12.947 -0.0611  0.5228  0.0518
16498W        W32307   3.805   7.815   3.261  0.0024  0.4135 -0.2098
16499W        W32308  11.123  18.388   3.062 -0.1599 -0.1424  0.2767
16500W        W32309  12.995   7.351  14.996  0.1968  0.1439 -0.0753
16501W        W32310  14.789   8.166  13.270 -0.0170 -0.0411 -0.0828
16502W        W32311   4.375   7.995  14.007 -0.1013 -0.1680  0.1111
16503W        W32312  10.459   0.364   4.121  0.0488 -0.1147  0.0222
16504W        W32313   8.850  15.003  15.528  0.1612  0.0803  0.1949
16505W        W32314  15.579   5.188  10.972 -0.1438 -0.3031  0.1633
16506W        W32315   5.391   4.847   3.258  0.1218  0.0307  0.1125
16507W        W32316   2.436   2.565  13.418  0.0118  0.1685  0.1593
16508W        W32317  12.048   1.545  13.473 -0.0760  0.0843  0.0481
16509W        W32318   8.492  17.682  10.518  0.2075  0.0049  0.0956
16510W        W32319  17.387   9.533  14.870 -0.0954  0.1140  0.1262
16511W        W32320  11.469   9.902   4.875  0.1327 -0.0166 -0.2317
16512W        W32321   3.465  13.554   4.561 -0.1621  0.0776  0.1728
16513W        W32322  18.516  16.885  12.006 -0.1394 -0.0513 -0.2840
16514W        W32323  11.995   7.342   0.521  0.0320 -0.1886 -0.0590
16515W        W32324   3.872  10.659   4.689  0.0143  0.1036  0.1532
16516W        W32325   6.343   2.816  10.366 -0.2158  0.0183  0.1890
16517W        W32326   8.589   8.047   0.984 -0.0168 -0.1289 -0.1923
16518W        W32327  11.666  15.837  14.522 -0.3022 -0.1363  0.1870
16519W        W32328   2.105  12.021   4.624 -0.0704  0.3069  0.2272
16520W        W32329  16.790   2.239  13.294  0.4080  0.0225 -0.0655
16521W        W32330   4.525   2.971  13.583 -0.0938  0.1278 -0.0526
16522W        W32331  11.172  16.534   4.731  0.0151 -0.1372 -0.0011
16523W        W32332   7.014   7.034   1.760 -0.0167  0.1107 -0.0427
16524W        W32333  14.762   3.852   4.116  0.1732 -0.0528 -0.0503
16525W        W32334  13.690   9.481   3.294  0.0003  0.0191  0.1219
16526W        W32335   7.399  10.724  12.368 -0.1045 -0.1693  0.2827
16527W        W32336  18.034   6.592  13.958  0.1767 -0.0784 -0.0148
16528W        W32337   1.307  14.430  13.638 -0.0766 -0.2764  0.0555
16529W        W32338  13.321  13.187  14.865 -0.1044  0.0399 -0.2180
16530W        W32339  13.763   8.401  11.494  0.1632 -0.1477 -0.3724
16531W        W32340   1.907   3.517   0.706  0.2805 -0.1363  0.1250
16532W        W32341  13.147  16.975   1.860 -0.0662  0.0090  0.2248
16533W        W32342  13.200   0.654  15.388  0.5458 -0.4210  0.2483
16534W        W32343  16.299   6.341   1.953 -0.0684  0.0566 -0.1487
16535W        W32344  13.760  14.835   4.574  0.1084 -0.0600  0.1290
16536W        W32345   8.050   1.896   3.494  0.0756  0.0892  0.4564
16537W        W32346   9.261  15.498   1.005  0.2565 -0.0683 -0.0293
16538W        W32347   1.771   7.763  13.834  0.1007 -0.0603 -0.4526
16539W        W32348  11.892  11.542  10.830 -0.1108  0.1928  0.1221
16540W        W32349   5.953  15.917  15.098  0.2338  0.1851  0.1032
16541W        W32350   2.735   8.566  11.880 -0.0625 -0.0757 -0.0945
16542W        W32351   6.161  10.017   4.757  0.0955 -0.2263 -0.0329
16543W        W32352  16.147  10.536   1.428 -0.0311 -0.1264  0.3510
16544W        W32353   9.880  14.212  10.621  0.3977  0.2111 -0.2176
16545W        W32354  11.051   1.095  12.407  0.1974 -0.1318 -0.5789
16546W        W32355   4.838  12.750   4.813  0.1614  0.1358 -0.0584
16547W        W32356  13.636  16.575   0.007  0.0445  0.2322  0.2067
16548W        W32357   2.831   3.491  13.509  0.2357  0.1870 -0.0400
16549W        W32358   5.149  10.115  14.747  0.0507  0.1767  0.2924
16550W        W32359  17.441  10.571  10.854  0.3516  0.0404 -0.1232
16551W        W32360   4.977  17.648  13.351  0.2129  0.3380 -0.0542
16552W        W32361  16.902  12.836   2.391 -0.1467  0.0661 -0.1520
16553W        W32362   8.879   6.699  14.483  0.3093  0.0418 -0.3287
16554W        W32363   0.317  18.277   3.681  0.0079  0.0596 -0.1063
16555W        W32364   5.866   3.947   5.508  0.0374 -0.0471  0.3293
16556W        W32365  16.710  17.775   1.796 -0.3685 -0.3339 -0.0018
16557W        W32366  10.229   8.374  15.261 -0.1142 -0.1359 -0.1258
16558W        W32367   9.095  15.292  13.457  0.0598  0.3551  0.0869
16559W        W32368   0.500   7.626  15.347 -0.2681  0.0282 -0.3638
16560W        W32369  12.428   9.707   0.697  0.0322 -0.0957  0.1232
16561W        W32370  10.548  11.936  14.632  0.0886  0.0868 -0.2346
16562W        W32371   5.654   2.949   1.697 -0.0036  0.1176  0.0536
16563W        W32372  16.412  17.205   1.709 -0.1980  0.1012 -0.1160
16564W        W32373   7.231  15.719   2.532  0.0577 -0.1333  0.1019
16565W        W32374  10.136   6.867   3.831 -0.0721 -0.0380 -0.1342
16566W        W32375   9.912   7.017  12.759  0.1512 -0.2274  0.2128
16567W        W32376  11.705  12.194   0.327  0.1983  0.1580  0.0623
16568W        W32377   3.377  11.821   0.426  0.1346  0.0815 -0.1027
16569W        W32378  16.355   4.587  13.518  0.0329  0.0366  0.0114
16570W        W32379   9.466   3.507   4.755 -0.1145  0.0838 -0.1089
16571W        W32380  11.131  10.171  14.441 -0.1916 -0.2043  0.1446
16572W        W32381   2.300  15.705  14.107  0.0334  0.0911 -0.2684
16573W        W32382   8.723  13.377  12.964 -0.4008 -0.0455  0.0607
16574W        W32383   9.755   0.115   3.632  0.3673  0.2448  0.4968
16575W        W32384  11.559  10.512  11.531  0.2042  0.2200 -0.0692
16576W        W32385  17.957  14.888   2.669  0.0640  0.0031  0.2784
16577W        W32386   5.106  12.057   4.979  0.2733  0.0374  0.2261
16578W        W32387  16.082  11.119  15.084 -0.0270  0.0679  0.1636
16579W        W32388   3.343   3.670   4.697  0.1936  0.1431  0.0151
16580W        W32389  12.836  13.439   4.194 -0.2862  0.3824 -0.1763
16581W        W32390  18.342   4.320  11.096  0.0757  0.1142 -0.2938
16582W        W32391   9.396   5.510  10.723 -0.0046  0.0674 -0.0842
16583W        W32392  13.383  15.800  13.211 -0.1009 -0.2056  0.0591
16584W        W32393   1.433   3.765   0.850  0.0054  0.1577  0.0387
16585W        W32394  10.207   9.584  13.530 -0.2779  0.0867 -0.1972
16586W        W32395   2.448   0.172   2.539 -0.0677 -0.0998  0.1130
16587W        W32396   9.789   3.909   0.660 -0.0437 -0.1014 -0.4458
16588W        W32397  12.249   3.214  11.685 -0.1878 -0.0095  0.0073
16589W        W32398   2.235  13.327   1.604 -0.0990 -0.1629 -0.0398
16590W        W32399  12.588   6.737   2.012 -0.3842  0.3226 -0.1057
16591W        W32400   5.632  17.840   4.248 -0.1697  0.0476 -0.0815
16592W        W32401   2.540  11.473   1.202 -0.0597  0.0089  0.2759
16593W        W32402   1.021   2.891  15.121 -0.0763 -0.0946  0.0413
16594W        W32403   7.259  12.134  14.664 -0.1165 -0.0942 -0.0237
16595W        W32404   8.630   8.602  14.976 -0.0145 -0.3772  0.1892
16596W        W32405   0.315  14.259  11.659 -0.0018  0.0206 -0.0266
16597W        W32406  15.466  15.346  11.777  0.3419  0.1105  0.0610
16598W        W32407  18.448   3.858  11.742  0.0757 -0.0794 -0.0249
16599W        W32408   8.161  14.677   0.824 -0.0499  0.1612 -0.1394
16600W        W32409  14.321  14.070   4.735 -0.1568 -0.0746 -0.0236
16601W        W32410  14.599   0.895   5.431  0.0051 -0.0405  0.2013
16602W        W32411  10.189   8.172   3.749  0.1067 -0.1075  0.2145
16603W        W32412  16.807   2.277  11.385 -0.2863  0.0484 -0.0137
16604W        W32413   0.182   1.721  11.096 -0.2493 -0.2185 -0.0683
16605W        W32414  12.668   5.583   2.201  0.3455 -0.0867 -0.3274
16606W        W32415  13.750  17.961   2.128 -0.0947  0.0009  0.1223
16607W        W32416  13.636  14.741   5.433 -0.0878 -0.1352  0.0186
16608W        W32417   3.401   6.439  12.716 -0.0801 -0.0196 -0.3120
16609W        W32418   8.189   8.541  14.224  0.1675 -0.2564 -0.0975
16610W        W32419   4.984  17.845   2.164  0.1501 -0.2553  0.2658
16611W        W32420   7.810   0.521  11.140  0.2417 -0.0365 -0.1122
16612W        W32421   1.326  10.442   3.253  0.1600 -0.3201 -0.1546
16613W        W32422  17.347   9.028   1.338 -0.0725  0.1073 -0.0596
16614W        W32423  13.316   4.900  10.394  0.1961  0.1571  0.0839
16615W        W32424  13.126   1.869   1.177 -0.1250 -0.1724  0.1469
16616W        W32425   2.201  10.571   1.058 -0.1323  0.2846 -0.0563
16617W        W32426  17.994  16.531   3.028  0.2110 -0.2305  0.0677
16618W        W32427   3.651  11.735   1.985 -0.1523 -0.2673 -0.0029
16619W        W32428   7.421  10.975   0.518 -0.0408 -0.0816  0.1427
16620W        W32429  16.399   7.934   0.760  0.0761 -0.0585 -0.0655
16621W        W32430  12.076   1.366   2.258 -0.0314 -0.3367 -0.0547
16622W        W32431   5.565   7.784   0.776  0.0877 -0.1296  0.1263
16623W        W32432   7.802   4.241  14.679 -0.1275  0.3830 -0.1329
16624W        W32433  10.802  10.091  14.028  0.2777  0.1981 -0.1096
16625W        W32434   4.917   3.456  11.839  0.1944  0.3287  0.1088
16626W        W32435   8.686  13.398   2.825  0.0849 -0.3069  0.0436
16627W        W32436   0.425  15.115  11.670 -0.0322  0.0667 -0.2292
16628W        W32437   0.877   0.536  12.156  0.2716 -0.0622  0.0823
16629W        W32438  18.655   8.613   2.321  0.0603  0.0705  0.0151
16630W        W32439  12.162   3.807  15.549  0.1565  0.1097  0.0101
16631W        W32440   9.938  17.812  11.927 -0.2496 -0.3105  0.0182
16632W        W32441  17.740  13.236  11.136 -0.0417  0.3036 -0.0171
16633W        W32442  15.245  16.421   2.331  0.0294 -0.0140  0.0251
16634W        W32443   7.055   9.758  15.489  0.1071  0.2830 -0.0824
16635W        W32444   7.024  15.785   4.694 -0.1914  0.1453 -0.0598
16636W        W32445   3.096   2.864   0.674 -0.2755 -0.1722  0.2905
16637W        W32446   7.435   8.634   3.633  0.1827 -0.2452 -0.1105
16638W        W32447  11.673   9.541   2.418  0.3492 -0.1864  0.1035
16639W        W32448  11.592   7.178   5.103  0.0993  0.2397  0.0183
16640W        W32449  15.589   9.039  12.314 -0.3107 -0.1091  0.1236
16641W        W32450  18.056   7.055  11.749 -0.1750 -0.0165 -0.1421
16642W        W32451   3.990  18.035  13.184  0.0707 -0.3959 -0.1933
16643W        W32452   3.325  18.446   4.029  0.1687  0.0623 -0.2212
16644W        W32453   3.988  15.173   4.746 -0.0852 -0.0716  0.4472
16645W        W32454  12.930  10.295   2.409 -0.0368 -0.0608 -0.0669
16646W        W32455  15.081   0.701   1.068 -0.2161  0.2509 -0.0276
16647W        W32456   2.853  11.325  13.300  0.0290 -0.2465  0.0276
16648W        W32457   5.625   7.952  13.161 -0.1274 -0.1646 -0.0925
16649W        W32458  17.991   1.690   4.184 -0.0061  0.1119  0.0534
16650W        W32459   3.886   6.414   4.341  0.1506 -0.0354 -0.0374
16651W        W32460   8.717   9.369   4.585 -0.2299  0.0094 -0.5006
16652W        W32461   6.415   9.860   3.734  0.1216 -0.1491 -0.0467
16653W        W32462  11.888   5.590   0.347 -0.0298 -0.1135  0.1805
16654W        W32463   2.075   6.506  14.509 -0.1764  0.3739  0.1678
16655W        W32464  14.863  16.362   4.423  0.1153 -0.1472  0.0500
16656W        W32465   4.843  14.424   3.309  0.0658 -0.0009  0.1672
16657W        W32466   3.982   8.172  11.576  0.2747 -0.4474  0.2004
16658W        W32467   9.396  10.315  10.052 -0.2807  0.0088 -0.1662
16659W        W32468  15.244   3.767  13.070  0.1050  0.0166 -0.2208
16660W        W32469  15.613   4.421  14.268 -0.3574 -0.0030 -0.3542
16661W        W32470  10.719  14.736   0.656  0.2431 -0.1701 -0.0717
16662W        W32471  16.116  13.050   0.821  0.1640 -0.0200 -0.0307
16663W        W32472   2.572   0.187   0.221 -0.1167  0.1297  0.1282
16664W        W32473  10.528  11.234  11.407 -0.0814 -0.5648  0.1647
16665W        W32474  10.678   2.016  13.561  0.0011  0.2491 -0.0560
16666W        W32475  13.824   4.367  15.593  0.0487 -0.0805  0.1090
16667W        W32476  15.171  16.775   0.775 -0.0985 -0.1744  0.0264
16668W        W32477  16.675   2.443   0.371 -0.2350  0.1358 -0.0457
16669W        W32478   1.962  16.382   3.111 -0.4283 -0.3585 -0.0133
16670W        W32479   3.596   6.962   1.968  0.0296 -0.0194  0.1520
16671W        W32480  11.693  15.778   1.934  0.1837 -0.0155 -0.0297
16672W        W32481  12.367  11.385   5.018  0.0869  0.0467 -0.2599
16673W        W32482  15.889   4.257   1.916 -0.1299 -0.0393  0.0564
16674W        W32483   5.092  13.653   9.918 -0.2468 -0.0465 -0.0815
16675W        W32484  12.174  11.556  14.973  0.0951  0.0527 -0.0010
16676W        W32485  17.749   1.105  13.566  0.1639 -0.2041  0.1702
16677W        W32486   9.152  14.244  14.217 -0.0352  0.1288 -0.0954
16678W        W32487  10.728   9.111  10.590 -0.0189  0.1310  0.0318
16679W        W32488   2.769  18.044  15.649  0.3272  0.4204 -0.2280
16680W        W32489  16.879  12.847  11.442  0.1582  0.2326  0.1630
16681W        W32490  10.749   5.642   5.499 -0.0463 -0.0703 -0.1220
16682W        W32491   2.795  11.348   3.133  0.0475  0.2358  0.2033
16683W        W32492   1.440  16.222   1.440 -0.0874  0.1087  0.2146
16684W        W32493   8.719  14.124  13.968 -0.0705  0.0168 -0.1574
16685W        W32494  11.499   6.698  14.076 -0.1674  0.2651 -0.1730
16686W        W32495  17.567   2.880  15.101 -0.1458 -0.1525 -0.0234
16687W        W32496  15.677   4.723  10.821  0.0458  0.0470  0.1097
16688W        W32497   3.889   3.377   2.197 -0.1276  0.4915  0.0057
16689W        W32498   4.321  14.223   4.351  0.0609  0.4399  0.1895
16690W        W32499  18.475  10.588   0.235  0.2758 -0.2408 -0.3511
16691W        W32500   9.159  14.583  14.592 -0.2319  0.1598  0.0601
16692W        W32501   7.870  13.508  14.806  0.0666  0.3837  0.1978
16693W        W32502  12.891   5.149  13.737 -0.3028  0.2358  0.1457
16694W        W32503   7.280  13.411   3.324  0.0405  0.3609 -0.1875
16695W        W32504  11.452   8.935   3.038  0.0676 -0.1745  0.2579
16696W        W32505   5.062   6.586  13.729  0.3611 -0.1257 -0.1427
16697W        W32506   9.623   4.929   2.491 -0.1730  0.2249 -0.0195
16698W        W32507  18.225  18.138   2.232 -0.2459  0.0218 -0.1370
16699W        W32508   6.005  14.730  12.875 -0.2144 -0.0011 -0.2608
16700W        W32509  17.142   5.016  11.958  0.5212 -0.0162  0.0129
16701W        W32510   6.582  12.649  14.665 -0.3175 -0.0806 -0.0130
16702W        W32511  10.621   1.403  14.171 -0.0775 -0.0939 -0.2175
16703W        W32512  10.987  10.842   1.996 -0.1617  0.0540 -0.2265
16704W        W32513   7.889   4.239  14.115 -0.2669  0.2912 -0.1068
16705W        W32514   0.021  16.418   3.493  0.0843 -0.0087 -0.2513
16706W        W32515  11.740  15.768   3.123 -0.1462 -0.0210 -0.0405
16707W        W32516   4.722  17.769  15.134 -0.1520  0.0517 -0.0597
16708W        W32517   4.795  16.042   0.663  0.0901 -0.0098  0.0823
16709W        W32518  14.379  10.016   3.708 -0.1687  0.0183 -0.0615
16710W        W32519   8.308  16.462  14.741 -0.0471  0.1170 -0.1445
16711W        W32520   3.317  14.054  11.715  0.0152  0.1765 -0.4964
16712W        W32521   1.777  10.326   1.687  0.0374 -0.1907  0.0499
16713W        W32522  17.086  15.953  12.403 -0.3452 -0.1693  0.0924
16714W        W32523   7.262  12.810  11.055  0.4805  0.0134  0.0859
16715W        W32524  15.331   9.037   1.718 -0.0392  0.0877 -0.0923
16716W        W32525   7.449  11.935   1.010  0.3258  0.0618  0.0779
16717W        W32526  14.682  10.782   3.281  0.0780  0.1783  0.1954
16718W        W32527   4.543  17.419  10.396  0.3347  0.1271 -0.2059
16719W        W32528   1.202   8.054   4.352  0.3312 -0.0206 -0.2196
16720W        W32529   5.830   7.699   3.150 -0.2678 -0.0941 -0.1400
16721W        W32530   8.767   0.765  15.333  0.0957 -0.1878 -0.3739
16722W        W32531   3.431   6.500  14.616 -0.1842  0.2959  0.0384
16723W        W32532   2.418  17.456  12.897  0.3399 -0.1533 -0.1226
16724W        W32533  14.947   8.767   4.443  0.2014 -0.0598  0.4101
16725W        W32534   1.588   2.991   1.554  0.0970 -0.1863 -0.2139
16726W        W32535   1.766  18.628  10.154  0.1145 -0.1417 -0.1025
16727W        W32536  18.175  18.626  10.189 -0.2826  0.2942 -0.1437
16728W        W32537   9.320   3.762   3.941 -0.3247  0.0253  0.0520
16729W        W32538  17.103  18.526   2.613  0.0113 -0.0087 -0.2749
16730W        W32539  16.521  13.357  14.216 -0.0123  0.0447  0.2712
16731W        W32540  13.958  15.800  11.501 -0.0910  0.1443 -0.0602
16732W        W32541   8.487   7.120  12.829  0.0006 -0.0421 -0.1278
16733W        W32542  16.304  17.104  11.510  0.0283  0.1390  0.1333
16734W        W32543  17.655   8.090   4.529  0.2076 -0.2066 -0.1934
16735W        W32544  10.034   6.410  14.174 -0.0627  0.0687 -0.3020
16736W        W32545   5.415   0.844   3.156  0.1530  0.0488  0.0250
16737W        W32546   9.814   8.458  11.387  0.1267 -0.0104  0.0968
16738W        W32547  12.951   2.910  14.274 -0.1400  0.0983  0.2989
16739W        W32548  10.367  10.327   1.551  0.3793 -0.0977 -0.2358
16740W        W32549   1.415   7.098   2.605  0.0013 -0.1144 -0.1845
16741W        W32550   2.260   7.628   3.008 -0.1283 -0.0887  0.2413
16742W        W32551  15.667  14.953  13.916  0.2510  0.0252 -0.3371
16743W        W32552  12.386  17.040  11.053 -0.1902 -0.2702 -0.1590
16744W        W32553  10.150   0.232  13.820 -0.0664 -0.0891 -0.0366
16745W        W32554  12.145  15.866  14.722 -0.0549 -0.0326 -0.2577
16746W        W32555  12.498   6.731  14.445  0.0989 -0.0043  0.0100
16747W        W32556   7.331  17.415   3.816  0.2398 -0.4632 -0.2370
16748W        W32557  10.509  16.491   1.415 -0.1547  0.0835 -0.0319
16749W        W32558  15.714   9.688  11.562 -0.0747 -0.1900  0.0675
16750W        W32559   4.038   8.852  12.028  0.1704  0.1567  0.4251
16751W        W32560  12.315  13.012  13.689 -0.2129 -0.0457 -0.3339
16752W        W32561  11.886   3.317   3.480 -0.0281  0.0275 -0.1281
16753W        W32562   5.920  11.084   4.027  0.3426  0.0624  0.3011
16754W        W32563   9.252   3.062  15.208 -0.3321 -0.1377  0.1554
16755W        W32564   2.522   3.269  12.118  0.4992 -0.1670 -0.3363
16756W        W32565  16.088  15.037   1.797 -0.0421 -0.0311  0.0025
16757W        W32566  15.553  17.386  11.890  0.3188  0.5195  0.3465
16758W        W32567   3.450   5.049   5.828 -0.0516  0.1809 -0.0377
16759W        W32568  13.586   8.846   0.003 -0.0151 -0.1184  0.3837
16760W        W32569   0.551   9.485  12.860  0.0910 -0.2154 -0.1913
16761W        W32570   3.600   2.386   4.567  0.1908 -0.2520 -0.2597
16762W        W32571  10.268   4.755  14.499 -0.1228 -0.2867  0.2636
16763W        W32572  15.916   0.300  15.505  0.1518 -0.1685 -0.2033
16764W        W32573   5.451  15.253   5.059 -0.1110  0.2775 -0.0910
16765W        W32574   0.221  15.456  10.836  0.0063  0.3311  0.3273
16766W        W32575   6.155   8.524   1.378 -0.1167  0.1385 -0.1737
16767W        W32576   5.260   6.381  13.271 -0.1548 -0.1314 -0.0326
16768W        W32577  18.330  11.958   2.151 -0.1841 -0.0044 -0.0168
16769W        W32578   3.762  18.467  13.324  0.0427 -0.0191 -0.2079
16770W        W32579   9.117   8.992  12.942  0.1337  0.0921 -0.3893
16771W        W32580  10.897   9.830   4.908  0.1519 -0.1079  0.0460
16772W        W32581  14.918   4.038  13.327 -0.0022  0.1833 -0.0094
16773W        W32582   4.358   4.035  14.317 -0.3620  0.1850 -0.0239
16774W        W32583  10.115   4.345  14.163 -0.1092  0.0339  0.3246
16775W        W32584   5.810  11.791  13.441  0.0144 -0.0121  0.0398
16776W        W32585  10.341   5.998   4.308  0.0563  0.2497 -0.0080
16777W        W32586  14.098   4.719   1.261 -0.0786  0.1319 -0.3452
16778W        W32587  11.141   4.754   0.033  0.0874  0.0956 -0.1665
16779W        W32588  15.942   0.326   0.370  0.1428  0.1641  0.0717
16780W        W32589   6.932   1.269   1.079 -0.0022 -0.1552 -0.0410
16781W        W32590  11.885  15.311   2.356  0.1032 -0.2910 -0.0526
16782W        W32591  10.532   7.778  10.526  0.1108 -0.0327  0.2681
16783W        W32592  17.197  11.415   2.425  0.0416 -0.2660  0.1353
16784W        W32593  10.931   9.809  13.631 -0.2867 -0.2686 -0.0926
16785W        W32594  11.905  18.210  15.645  0.1984  0.0810 -0.2106
16786W        W32595   9.381   2.174   1.502  0.0536 -0.1693 -0.0171
16787W        W32596   6.232  15.499   3.597 -0.3443  0.4672  0.0090
16788W        W32597  12.711   3.573  12.621 -0.0544  0.2944 -0.2215
16789W        W32598   3.584   4.819  13.792 -0.2028 -0.0980  0.0431
16790W        W32599   2.402   2.559   0.817 -0.0701  0.2148  0.1915
16791W        W32600   8.716  14.236   4.412  0.3701 -0.1136 -0.2569
16792W        W32601   0.936   6.335  15.276  0.2593 -0.0526 -0.0999
16793W        W32602  13.492  13.412  14.227  0.3191 -0.0732  0.1958
16794W        W32603   5.042   1.250  11.569  0.4324 -0.1156  0.1046
16795W        W32604  16.985   3.864  13.273 -0.0267 -0.1133  0.2721
16796W        W32605   5.652  13.095  12.686 -0.0428 -0.0152  0.2371
16797W        W32606  14.116   3.215   2.254 -0.1143  0.2013 -0.0006
16798W        W32607  12.348  16.632  14.483 -0.0576 -0.1268  0.0616
16799W        W32608  15.125   9.152  10.895  0.0422 -0.0188  0.1396
16800W        W32609   5.237   2.788   2.477  0.2579  0.0251 -0.2123
16801W        W32610   3.499  11.519  13.825  0.2177  0.1585 -0.1059
16802W        W32611   2.230  12.942  15.049  0.1366 -0.0284 -0.3466
16803W        W32612   3.642  17.286   2.668  0.0381  0.0186 -0.2581
16804W        W32613  15.990   3.431   4.648  0.3031 -0.0627 -0.1123
16805W        W32614   7.370  15.059  12.210  0.0832 -0.3637 -0.1293
16806W        W32615  15.715   0.306   3.498  0.1204  0.1806  0.0921
16807W        W32616   6.483   4.258   6.162  0.0356  0.3707 -0.2946
16808W        W32617   7.321  18.383  12.358  0.2753 -0.0524 -0.4837
16809W        W32618  18.245  10.367   4.045 -0.0037 -0.1034  0.1938
16810W        W32619  18.274   3.651  15.162  0.0705 -0.1132  0.1169
16811W        W32620   8.464  11.798   3.612  0.1056  0.1450 -0.0948
16812W        W32621   4.084  15.298  12.454 -0.0671  0.3356  0.2440
16813W        W32622   0.531   3.884   9.987  0.0347 -0.0198  0.0309
16814W        W32623   4.327  10.664   2.528  0.0039  0.0500 -0.0975
16815W        W32624   4.177  17.482  10.794  0.2117  0.2446  0.0383
16816W        W32625   2.111  16.012  13.796  0.0044  0.0369 -0.0914
16817W        W32626   8.035   2.089  12.959  0.0235  0.0976  0.2832
16818W        W32627   8.787  13.521  11.729 -0.1319 -0.2016  0.2637
16819W        W32628   8.959  16.441   1.926  0.3572 -0.1526  0.3609
16820W        W32629  13.678  17.044   2.812  0.0014 -0.0613  0.1734
16821W        W32630  17.144  17.209  10.978 -0.0515  0.1737 -0.1594
16822W        W32631   0.283  17.816  11.851 -0.0095 -0.0234  0.1326
16823W        W32632   4.270  16.885  12.702 -0.2228 -0.1990  0.0403
16824W        W32633   0.810   8.345   5.264  0.0733 -0.1434  0.0927
16825W        W32634  13.903   9.767  14.021 -0.4144  0.3070  0.1080
16826W        W32635   8.743   4.706   5.997 -0.1274 -0.0433  0.4027
16827W        W32636  12.259   1.376   4.892  0.0443 -0.0079 -0.0932
16828W        W32637  18.096  13.804   3.391  0.0366 -0.0834  0.1401
16829W        W32638  17.195   9.382  11.586  0.2424 -0.0938  0.0919
16830W        W32639   1.341   5.934   2.919 -0.2075 -0.0291  0.1253
16831W        W32640  15.229   3.657   2.646  0.2797  0.0535  0.0784
16832W        W32641   3.098  11.440   4.027  0.0602 -0.0897 -0.0790
16833W        W32642   4.938  12.685   1.939  0.0063 -0.4017 -0.0054
16834W        W32643   3.632  12.787  15.677 -0.1241 -0.1362  0.1738
16835W        W32644   3.935   9.722   3.290  0.0756 -0.3398  0.0326
16836W        W32645   3.541   9.134   3.430  0.1695  0.0726 -0.1381
16837W        W32646  16.187  14.285   2.455 -0.1395 -0.0667  0.0721
16838W        W32647   4.843  13.294   5.604 -0.3476  0.1119  0.2700
16839W        W32648   9.751  16.520  11.866 -0.3381  0.3045  0.3951
16840W        W32649   6.058   1.472   4.783 -0.0084 -0.2014 -0.0131
16841W        W32650  12.739  18.146   0.515 -0.0953  0.1581  0.0663
16842W        W32651   9.693  13.435  14.112  0.0521 -0.3554  0.2277
16843W        W32652   6.379   8.777  14.746  0.1229 -0.0385 -0.3769
16844W        W32653   9.462   4.126  10.929  0.1578 -0.2433 -0.0371
16845W        W32654  17.065   7.806   5.550 -0.3586 -0.1052 -0.0303
16846W        W32655  12.824  18.397   2.126 -0.0216  0.1232  0.0165
16847W        W32656  17.663  11.884  15.307 -0.2622  0.1842 -0.1782
16848W        W32657   5.276  10.737  11.929 -0.1717  0.0959  0.1445
16849W        W32658  14.096   5.619  15.694  0.1898 -0.0943 -0.0590
16850W        W32659  14.639   0.708   3.500  0.0397  0.0545 -0.0191
16851W        W32660  16.487   7.756   5.206 -0.0511  0.2050 -0.2906
16852W        W32661   7.035   4.812   1.352 -0.1204 -0.1890  0.1726
16853W        W32662  10.021   8.031  15.643  0.2658  0.3085 -0.4490
16854W        W32663  10.596   4.410  13.971 -0.0741 -0.0992 -0.0534
16855W        W32664   7.628   7.642   0.296  0.1953 -0.0100  0.0917
16856W        W32665   5.651  12.268  13.602 -0.2399  0.2185 -0.0425
16857W        W32666  16.937  13.436   1.521  0.2671  0.1779 -0.0536
16858W        W32667  18.656  18.418  10.365  0.3392  0.1410 -0.4462
16859W        W32668   1.402  12.912  14.555  0.1074 -0.2192 -0.2972
16860W        W32669  14.483  17.365  14.947  0.0348 -0.1894 -0.2236
16861W        W32670  14.445   9.866  13.982  0.1800  0.0749  0.1994
16862W        W32671  16.333  16.641   0.432 -0.2451 -0.0853 -0.3585
16863W        W32672   3.913  15.205   0.469  0.4120  0.0710  0.0967
16864W        W32673  17.224  16.653   0.122 -0.1051  0.0851 -0.1126
16865W        W32674   1.108  12.877   6.406  0.2752  0.1674  0.3994
16866W        W32675  17.626  13.356   5.087 -0.0648 -0.2044  0.4069
16867W        W32676   6.991   8.712  13.411  0.0189 -0.2084  0.0900
16868W        W32677   7.587   3.697  11.349  0.0665  0.0466  0.1721
16869W        W32678   1.260   6.960   4.924  0.0710  0.2034  0.0514
16870W        W32679  18.557   8.442   4.758 -0.0524  0.1845 -0.1347
16871W        W32680   3.838   3.280  11.155 -0.0418 -0.4186  0.3278
16872W        W32681   8.285  15.363   2.444  0.0251  0.0939  0.0826
16873W        W32682  14.973   5.142  12.510 -0.1827  0.1429  0.0534
16874W        W32683   2.600   4.463  14.714  0.4761 -0.2770  0.0781
16875W        W32684   4.414  15.779   4.905 -0.0687  0.2063  0.0175
16876W        W32685   3.782   9.321   5.427 -0.0782  0.2281  0.1073
16877W        W32686   5.031   1.627   3.361 -0.2227 -0.1528 -0.1740
16878W        W32687  12.118  12.061   2.944 -0.2103  0.0185 -0.0093
16879W        W32688   4.612   3.268   0.808  0.1915  0.2413 -0.0568
16880W        W32689  15.329   0.735  13.367 -0.1768  0.0050  0.1410
16881W        W32690  12.930   8.941   3.619  0.0683  0.0414 -0.0078
16882W        W32691  16.513  18.417   0.512 -0.1286 -0.1653 -0.2991
16883W        W32692  17.682   1.327  12.003 -0.1861 -0.0856 -0.1363
16884W        W32693  12.029   2.622  13.580  0.3114 -0.0078  0.2742
16885W        W32694  16.546   6.514  12.704  0.2483  0.2887 -0.0238
16886W        W32695   6.559   8.096  13.383  0.0541 -0.0919 -0.2995
16887W        W32696  18.521   2.180  13.194 -0.1867 -0.0699  0.2244
16888W        W32697   6.659   8.665  12.473  0.0663  0.0026 -0.1671
16889W        W32698   6.129  15.204   0.569 -0.0791  0.0212 -0.3871
16890W        W32699   0.405  13.733  12.183 -0.2809 -0.2216  0.0507
16891W        W32700  11.087  16.986   0.058 -0.2013  0.3438  0.1454
16892W        W32701   7.836   7.437  15.094 -0.1473 -0.0974  0.0236
16893W        W32702   0.172   0.378   4.225 -0.1734  0.1469  0.1870
16894W        W32703   2.499   0.902   3.026 -0.2113  0.1355  0.0652
16895W        W32704  13.672  11.204  15.028 -0.1159 -0.0210 -0.3963
16896W        W32705  10.390  17.738  15.688 -0.3564  0.0378 -0.0873
16897W        W32706  15.909   8.738  13.686  0.1218 -0.2709 -0.0812
16898W        W32707   5.337   8.567   3.087  0.1577  0.0268  0.1906
16899W        W32708   0.010   2.558  15.570 -0.0878  0.0920 -0.2161
16900W        W32709   5.711   1.270   2.366 -0.1127 -0.2098 -0.0413
16901W        W32710   1.741   8.349  15.570  0.1045  0.5436  0.4396
16902W        W32711   8.547   1.933  11.529 -0.0761 -0.1790 -0.2723
16903W        W32712  12.776   5.332   4.278 -0.0832 -0.1525  0.0858
16904W        W32713   1.646   6.808  11.682  0.0205  0.0364  0.1733
16905W        W32714  11.953  13.771  14.207 -0.0025  0.0262 -0.1704
16906W        W32715   0.289   0.232  11.239  0.1481  0.1059  0.1616
16907W        W32716   0.628  12.053  14.610 -0.1541 -0.0283 -0.0337
16908W        W32717  12.590   1.159  14.080  0.0218 -0.2399  0.0259
16909W        W32718   7.345  16.650  15.742 -0.1798  0.2561 -0.0267
16910W        W32719   7.056   5.671   0.061  0.0201 -0.0291 -0.0895
16911W        W32720   2.582   6.762  14.797 -0.2887 -0.2283  0.1978
16912W        W32721   7.728   3.477  11.830  0.0683 -0.2024 -0.0780
16913W        W32722   0.320   6.564   6.427 -0.0004 -0.1861 -0.1929
16914W        W32723  14.952   2.088  12.542  0.0115 -0.0187  0.0372
16915W        W32724  11.418  15.491   0.987 -0.0887  0.0155 -0.2393
16916W        W32725  14.113   6.759  11.729 -0.1454 -0.0469  0.2443
16917W        W32726   2.315  14.527   5.147  0.0025  0.1725  0.5605
16918W        W32727   9.843   9.826  11.216  0.0036 -0.1923  0.1362
16919W        W32728  11.651  15.729  12.039  0.2155 -0.2464 -0.1880
16920W        W32729   8.685   5.679   0.033 -0.0323 -0.2520 -0.4398
16921W        W32730   7.893   2.149  12.242  0.1116  0.4172 -0.1014
16922W        W32731   7.245   1.626  11.561  0.1575  0.3074  0.1413
16923W        W32732  13.036  13.049  13.418 -0.0468  0.1482  0.3960
16924W        W32733   2.170   2.802  10.948  0.0088 -0.0361 -0.2954
16925W        W32734   5.547   4.984   2.723 -0.1744  0.1741  0.0489
16926W        W32735   2.247   5.030   2.257 -0.2305 -0.2130 -0.0424
16927W        W32736   0.192   5.706  15.522 -0.2190  0.2114  0.1447
16928W        W32737  17.379   4.144   0.814  0.2820 -0.0696  0.0187
16929W        W32738   5.493  14.182   2.251  0.0765  0.1280  0.2307
16930W        W32739   7.070  13.699   1.324 -0.1329 -0.1562 -0.2145
16931W        W32740  11.478  15.570   9.422 -0.0675  0.2854 -0.3675
16932W        W32741   3.487  18.004   0.192  0.0979  0.2339  0.1137
16933W        W32742  18.096   9.602   1.372 -0.0635  0.1307 -0.0054
16934W        W32743   8.511   4.478  12.856 -0.3150 -0.0098  0.0397
16935W        W32744  15.327   7.461  13.812 -0.1977 -0.2970 -0.0963
16936W        W32745   9.236   7.393  12.021 -0.0389 -0.2549  0.3610
16937W        W32746  15.646   6.000  11.552  0.0756  0.0895  0.1766
16938W        W32747  14.146  13.230  11.095 -0.2102  0.1141 -0.2519
16939W        W32748   1.801   6.922  15.328 -0.0199 -0.0532  0.2151
16940W        W32749   9.250   3.353   3.775  0.3166  0.1735 -0.1851
16941W        W32750  11.343  11.500   0.834 -0.0487 -0.3734  0.2682
16942W        W32751   5.035   5.882  12.029  0.1822  0.0894 -0.0654
16943W        W32752   0.181   4.258   2.197 -0.2634  0.1127 -0.1273
16944W        W32753   4.563  13.050   1.991  0.1102 -0.0172  0.4361
16945W        W32754   8.490   2.713   1.563  0.1000 -0.1848  0.1068
16946W        W32755  16.027  18.523   0.394  0.1606  0.2554 -0.1694
16947W        W32756   9.649  16.222  11.036  0.2487  0.0730 -0.3572
16948W        W32757   8.892  15.461   2.036 -0.1140 -0.2732 -0.0901
16949W        W32758  11.916   0.738  11.168  0.3001 -0.1917  0.0178
16950W        W32759   9.218  12.204  14.705  0.1285 -0.3421 -0.3059
16951W        W32760  11.954  16.539  14.092 -0.0672  0.3145  0.0331
16952W        W32761  13.328   7.365  13.464  0.1246 -0.0803  0.0367
16953W        W32762   5.999   7.776  11.535 -0.2570  0.2083 -0.2857
16954W        W32763   3.829   3.223  15.334 -0.0137  0.2739 -0.2301
16955W        W32764  13.921   0.750   2.255 -0.1044 -0.2799 -0.3813
16956W        W32765   5.131  17.265   1.975 -0.0213 -0.2870 -0.1670
16957W        W32766  15.357  16.130   1.366 -0.1620 -0.0843  0.1513
16958W        W32767   3.670   0.632   2.245 -0.4535 -0.0539 -0.1240
16959W        W32768  14.365   1.176   2.244 -0.0956  0.0644  0.1403
16960W        W32769   6.695   1.799   1.240  0.1233  0.0436  0.0638
16961W        W32770  16.977  17.649  13.024  0.0593 -0.2634  0.1290
16962W        W32771   7.695   8.719   4.997 -0.3158  0.2217 -0.0171
16963W        W32772  10.684  17.561  15.329 -0.1600 -0.2906 -0.0062
16964W        W32773   2.552  10.314   4.657  0.0224  0.1266 -0.0218
16965W        W32774   4.837   7.679   5.241 -0.1169  0.1825 -0.0156
16966W        W32775   4.584  12.222   4.839  0.1404  0.0677  0.0622
16967W        W32776   2.073  10.189   5.492  0.0054 -0.1301  0.0134
16968W        W32777  11.484  12.798  13.012  0.1309 -0.1751 -0.2167
16969W        W32778  14.169   9.256   3.197 -0.0390 -0.1095  0.0863
16970W        W32779   5.523  16.063   0.245  0.5089 -0.0003 -0.1143
16971W        W32780   7.288   1.707   2.162  0.4124  0.0033  0.1787
16972W        W32781   2.966  10.070  14.763  0.0718 -0.2201 -0.0383
16973W        W32782  18.402  11.315   3.029  0.0394  0.1944  0.1140
16974W        W32783   2.987  11.810   3.274 -0.0877  0.2802 -0.0587
16975W        W32784  12.610  17.127  12.738 -0.0739  0.0316  0.1923
16976W        W32785   9.894   5.805   5.184  0.2878 -0.0926 -0.1349
16977W        W32786  16.953   4.611   0.111 -0.2931 -0.0157 -0.0412
16978W        W32787   7.364  17.079   2.438  0.0430 -0.1593  0.3514
16979W        W32788   0.480  15.266   5.153 -0.0575 -0.1203 -0.1465
16980W        W32789   6.541   4.801  11.425  0.2591  0.2430 -0.1696
16981W        W32790   1.687   7.256   3.616  0.6086  0.0403 -0.0734
16982W        W32791   2.122   0.734  15.100 -0.0153 -0.2555 -0.0492
16983W        W32792  11.657  15.609  12.499 -0.3015 -0.2111  0.1233
16984W        W32793   5.208  15.408   3.401  0.1120  0.1395  0.1758
16985W        W32794  15.508   9.993  14.739  0.1272  0.2153  0.2424
16986W        W32795  11.589  12.125   2.856  0.0041  0.0719  0.1854
16987W        W32796  18.143   6.483   1.792 -0.2180  0.0790 -0.2191
16988W        W32797   0.341  17.997   2.546 -0.0843 -0.0462  0.0695
16989W        W32798   3.107  16.662   1.134  0.4019 -0.0711  0.0119
16990W        W32799  14.883  15.557  10.251 -0.3644  0.1522  0.4462
16991W        W32800  15.250   2.189  13.361  0.3438 -0.0547 -0.0873
16992W        W32801   4.663  17.695   2.667  0.2759 -0.0131  0.0579
16993W        W32802  10.171  12.942   2.104  0.0918  0.2108  0.0592
16994W        W32803   2.112  18.004   0.432  0.3008 -0.1286  0.0021
16995W        W32804   8.757  12.123  14.992 -0.0658  0.0850 -0.0946
16996W        W32805   3.220   5.327  13.283  0.1986  0.1662 -0.3079
16997W        W32806   7.650   3.666   1.797 -0.0805 -0.2668  0.2685
16998W        W32807   6.298  17.394  11.089  0.1128  0.0708  0.3903
16999W        W32808  16.009  10.086   3.453 -0.0039 -0.4282 -0.2514
17000W        W32809  15.890   9.260  13.015  0.1308 -0.0989  0.1495
17001W        W32810   2.383  11.028  14.949  0.1105 -0.2587 -0.2352
17002W        W32811  15.062  11.761  12.866 -0.0189  0.1214  0.3210
17003W        W32812  18.554   3.560  10.941  0.0396 -0.0024 -0.0723
17004W        W32813  12.770  11.048  15.425  0.0911  0.1227  0.0668
17005W        W32814   3.549   3.492  13.343 -0.1462 -0.2934 -0.1669
17006W        W32815  14.349  11.957  12.467 -0.1026  0.2622 -0.0049
17007W        W32816   2.714  11.389   1.742 -0.1698  0.3538  0.0824
17008W        W32817  12.002   9.678   4.875  0.1676 -0.0040  0.1576
17009W        W32818   4.439  17.789  13.216 -0.1503  0.1492 -0.0149
17010W        W32819  13.653   3.307   2.360 -0.0987 -0.3115  0.1673
17011W        W32820  11.422   9.453  12.217 -0.1474 -0.0882  0.1192
17012W        W32821   2.025   4.907  15.660 -0.5855  0.0220 -0.2303
17013W        W32822   6.901  16.388   0.785  0.0634  0.1600  0.2877
17014W        W32823  13.664   3.892  14.653 -0.2303 -0.2018 -0.1919
17015W        W32824  10.638  12.277   2.373  0.0456  0.0659 -0.1010
17016W        W32825   0.279  10.779   3.278  0.3173 -0.2828 -0.1866
17017W        W32826   7.302  16.472  11.094 -0.0149 -0.1943 -0.1244
17018W        W32827  17.754   2.843  14.591 -0.1672  0.4012 -0.0909
17019W        W32828  14.910   3.237   4.681 -0.1383 -0.1712  0.0764
17020W        W32829   1.212  14.486  11.759  0.2063 -0.1192 -0.3499
17021W        W32830  15.653   4.190   5.290  0.1059 -0.0667  0.0680
17022W        W32831   2.292   7.652  13.779 -0.3436 -0.1145  0.0396
17023W        W32832   6.821  17.094  13.491 -0.0282 -0.1490  0.1816
17024W        W32833   8.786   7.998   2.358  0.3100 -0.2686  0.0493
17025W        W32834  15.967  13.691  11.989 -0.1393  0.0611 -0.1207
17026W        W32835  17.745  15.112   4.683 -0.1115  0.2785 -0.0234
17027W        W32836   7.781  15.834  13.290 -0.1505  0.0905  0.0612
17028W        W32837  16.757  13.923  15.596  0.2040 -0.1002  0.1367
17029W        W32838  16.619   1.654   4.558  0.1650  0.0857  0.1623
17030W        W32839  11.975  17.357   0.820  0.1267 -0.1589  0.0551
17031W        W32840   2.035   4.704  13.783  0.0094  0.1026  0.0276
17032W        W32841   9.516  14.375  10.168 -0.2224  0.1374 -0.1209
17033W        W32842  18.578   7.612   5.102 -0.2470  0.1414  0.1494
17034W        W32843  13.276  10.823   1.598 -0.0182  0.3188  0.0844
17035W        W32844   5.845  12.236  15.144  0.1072  0.3001  0.1132
17036W        W32845  13.272   8.452  15.033 -0.3520 -0.0157  0.0855
17037W        W32846   9.179   0.434  12.202 -0.1440  0.0757 -0.1652
17038W        W32847  13.959   0.930   4.319 -0.5485 -0.0190  0.0727
17039W        W32848   9.407   1.287  10.622 -0.1091 -0.0691  0.3443
17040W        W32849  11.501  16.037   5.416  0.2517  0.1349  0.2472
17041W        W32850  11.111   4.413  14.460 -0.0915  0.2048  0.2002
17042W        W32851  18.565  15.822  13.171  0.1455 -0.3509  0.0921
17043W        W32852   1.669   1.584   4.377  0.3655  0.0504  0.2002
17044W        W32853   0.001  16.275  14.460 -0.0769 -0.4032  0.0622
17045W        W32854  16.764  12.260  15.005 -0.0004 -0.1828  0.3520
17046W        W32855  15.052   8.575  11.893 -0.1517  0.2901  0.0987
17047W        W32856   2.939   3.746   3.327  0.1621 -0.1724  0.0642
17048W        W32857  13.918  18.360   1.881 -0.2035 -0.1180 -0.1725
17049W        W32858  11.220  15.336   0.536  0.1420  0.1622  0.1752
17050W        W32859  17.762  18.161  14.244 -0.1214 -0.1094 -0.3718
17051W        W32860  17.785  12.984  10.719  0.0047  0.1797 -0.1298
17052W        W32861   4.512  10.079  12.066  0.0868  0.0926  0.3171
17053W        W32862  10.781   3.592  14.452  0.0110  0.1405  0.0995
17054W        W32863   8.295  11.954   2.681 -0.3918  0.0858  0.0168
17055W        W32864  18.241   9.450  11.763 -0.0469  0.1963  0.0217
17056W        W32865   9.842  16.459  13.379 -0.0488  0.1221 -0.1942
17057W        W32866   7.114  12.600  13.315 -0.0070 -0.1585 -0.1748
17058W        W32867  17.370   9.217   0.826 -0.0845 -0.0917  0.0481
17059W        W32868  10.080  14.737   1.613  0.1972  0.2637  0.1211
17060W        W32869  10.754   6.097   0.635 -0.0901 -0.0250  0.0545
17061W        W32870   3.292   9.247  15.078  0.2876 -0.0672  0.3019
17062W        W32871   1.151   1.135   0.674 -0.2074 -0.1378  0.0854
17063W        W32872  10.442  16.548   5.047  0.0750 -0.0224 -0.4992
17064W        W32873  16.315   6.614  11.081 -0.1233 -0.1209 -0.1764
17065W        W32874   3.963   9.091  14.735 -0.3198  0.0186 -0.1170
17066W        W32875  10.308  10.666  15.420  0.0070  0.0647  0.1023
17067W        W32876  15.047  13.668  15.494 -0.1925 -0.1888 -0.0108
17068W        W32877  12.412   7.054   4.146 -0.0562  0.1583 -0.1274
17069W        W32878  14.720  14.462   1.532 -0.0129  0.0605 -0.3230
17070W        W32879   3.002   4.150   3.691  0.2473 -0.3585 -0.2081
17071W        W32880  12.809  12.274   0.601 -0.0703 -0.1407  0.0732
17072W        W32881  11.998  12.965  10.828 -0.0279 -0.0937  0.1814
17073W        W32882   3.645   1.231  13.152  0.1088  0.0519 -0.2442
17074W        W32883  14.505   5.919   0.258  0.1043 -0.1615  0.0120
17075W        W32884   7.584   0.742   4.929  0.1433  0.4044 -0.0548
17076W        W32885   8.965   1.556   1.708  0.3288  0.1670 -0.1320
17077W        W32886   6.577   9.102   3.146 -0.0980 -0.2664  0.2001
17078W        W32887  12.561   2.945   4.640  0.0203 -0.1488  0.0471
17079W        W32888   9.191  10.786  15.592 -0.1396  0.1841 -0.1218
17080W        W32889  17.224   6.923  12.586 -0.3476  0.3610 -0.0567
17081W        W32890  15.173   4.116   5.475 -0.0654 -0.0556  0.0504
17082W        W32891  13.739   8.894   4.716 -0.0316  0.2705  0.1578
17083W        W32892   9.222   9.540  11.607  0.0057  0.1579  0.0772
17084W        W32893   1.407   2.736  11.380 -0.3456  0.0900  0.1421
17085W        W32894   1.878  14.366  14.024  0.0076  0.1241 -0.0844
17086W        W32895  13.250   7.680   4.230  0.1757  0.0459 -0.1759
17087W        W32896   6.432  14.115   5.995  0.3580  0.2915 -0.1004
17088W        W32897  16.437   0.410  13.317  0.2610  0.0161 -0.2554
17089W        W32898  17.282  10.846   2.565  0.0572 -0.0497 -0.0817
17090W        W32899  14.879  12.924   1.512 -0.1877 -0.2075 -0.0034
17091W        W32900   6.546  12.627   4.689  0.3656 -0.1017 -0.0031
17092W        W32901  13.286  15.667  14.940  0.1587 -0.2436  0.1807
17093W        W32902   5.476  10.997   1.625  0.1265 -0.2056  0.4922
17094W        W32903   3.310   1.017   4.395  0.1582  0.0290 -0.1838
17095W        W32904   7.559  11.606  11.888  0.0982  0.2772 -0.4107
17096W        W32905   7.156   8.548   5.612  0.1392 -0.0283  0.3351
17097W        W32906  12.199  10.704   1.786 -0.0210  0.0824 -0.2482
17098W        W32907   2.587  10.891  10.202 -0.0147  0.1625 -0.0311
17099W        W32908  11.144  13.418  11.637 -0.3211 -0.2925  0.3736
17100W        W32909  18.443   2.296   4.053  0.2521  0.1354  0.1555
17101W        W32910   3.504   3.979  11.661 -0.0718  0.1934 -0.0942
17102W        W32911   6.015   5.895   5.653  0.1519 -0.0331  0.1168
17103W        W32912   7.726   0.704   0.267 -0.1164 -0.2069  0.1692
17104W        W32913  12.825   4.517  14.880  0.0231 -0.0004 -0.4041
17105W        W32914  10.215   6.532   3.427  0.1329  0.0433 -0.0118
17106W        W32915  17.965  13.012   5.308 -0.1712 -0.1402  0.1285
17107W        W32916   0.129   4.188  13.130  0.0311  0.0125 -0.1311
17108W        W32917  14.878   2.770   2.535 -0.1150 -0.1057  0.0389
17109W        W32918   6.485   9.350  15.117  0.1940  0.0305  0.1912
17110W        W32919  18.250  16.471  14.692 -0.0161 -0.1265 -0.1556
17111W        W32920   9.448  10.261   0.133 -0.1705  0.0269 -0.2251
17112W        W32921   2.711   7.613  14.953 -0.3621 -0.0014 -0.2068
17113W        W32922   3.013   3.522  14.095  0.1186 -0.1586  0.1132
17114W        W32923  16.620   4.806   4.260  0.1191  0.0103  0.1659
17115W        W32924  16.463  16.186   0.749  0.3641 -0.2972 -0.0888
17116W        W32925  16.209   0.794  10.384  0.0178  0.1401  0.1490
17117W        W32926  18.239   1.642  14.031 -0.0659  0.3728  0.2512
17118W        W32927  15.433  17.051  13.155 -0.0110 -0.2052  0.0061
17119W        W32928  16.517   9.429   4.704  0.1267  0.1633 -0.2466
17120W        W32929  17.742  11.954   0.680  0.1623  0.3223 -0.0572
17121W        W32930  10.556  11.255   1.707  0.0962  0.0536  0.2438
17122W        W32931  12.313  13.506  10.556  0.2095  0.0375  0.2495
17123W        W32932  10.634  17.926  11.043 -0.0431 -0.1801 -0.0935
17124W        W32933   0.776   3.732  13.882  0.0349  0.0055 -0.2621
17125W        W32934   9.409   3.301  13.066  0.0440  0.0729  0.0555
17126W        W32935  15.986   8.730  15.184 -0.3470 -0.0272 -0.0931
17127W        W32936   8.869   6.474   2.647  0.0505 -0.2682 -0.0233
17128W        W32937   9.510   4.218   3.815  0.0159  0.2831  0.0829
17129W        W32938   6.890  17.228  13.957 -0.1744 -0.2037 -0.0171
17130W        W32939  12.147   8.034   0.215  0.1110 -0.1014 -0.4725
17131W        W32940   7.186   2.749   4.139  0.3058 -0.0988 -0.0498
17132W        W32941   0.719   7.269  13.380  0.1529  0.0174 -0.2930
17133W        W32942   8.297  11.975  12.128 -0.0390  0.1872 -0.0692
17134W        W32943   8.930   0.002   0.014  0.1393  0.0768  0.0257
17135W        W32944  15.471   5.035  15.099  0.3629  0.1772  0.0574
17136W        W32945  14.368  17.814   2.903  0.2180 -0.0681  0.3014
17137W        W32946   7.316   0.595   3.689 -0.0338  0.0670  0.0305
17138W        W32947  15.118  14.769   3.668  0.1229  0.1664  0.0723
17139W        W32948   3.314  18.657  11.407  0.1810 -0.2251 -0.6076
17140W        W32949  14.438  14.925  12.574 -0.1465  0.0744  0.0772
17141W        W32950  11.790   4.982  11.783  0.2217 -0.0629 -0.0407
17142W        W32951  13.607   0.801   1.801 -0.0556  0.1144  0.0572
17143W        W32952   4.998  16.874  14.953  0.0556 -0.2996 -0.2212
17144W        W32953   3.618  11.609  12.505  0.2068  0.3910  0.1743
17145W        W32954   4.316   6.060  14.158  0.0597  0.1699 -0.1185
17146W        W32955  10.324   3.057   0.243 -0.0232 -0.1208  0.2098
17147W        W32956   1.635   0.209  13.497 -0.0741  0.0386  0.1497
17148W        W32957  13.811   8.504   2.918 -0.0664 -0.2362  0.1965
17149W        W32958   8.868  14.651  13.142 -0.2113 -0.1955 -0.3198
17150W        W32959   9.223   5.078   3.011 -0.2687  0.0743  0.1128
17151W        W32960  14.126   4.923   5.839  0.0310 -0.0292  0.3195
17152W        W32961  10.773   5.543   4.192  0.0258 -0.0222  0.0192
17153W        W32962   5.511  12.280   4.125 -0.2710 -0.1626 -0.1868
17154W        W32963  17.958   5.356   0.015 -0.0641  0.0684 -0.2864
17155W        W32964   1.997  17.628   3.766  0.1576 -0.1287 -0.0520
17156W        W32965  15.150   7.857  13.527 -0.2558 -0.2917 -0.1618
17157W        W32966   7.190   8.679   4.192  0.1269  0.1068  0.0618
17158W        W32967  13.392   7.529  10.784 -0.2275  0.0370 -0.0318
17159W        W32968  15.260   6.433  15.509 -0.2529  0.1128 -0.2940
17160W        W32969  18.479  13.386   0.065 -0.0624  0.1678  0.1417
17161W        W32970   7.733   5.652   1.284  0.0114 -0.2415  0.0698
17162W        W32971  17.574   8.332  14.576  0.0126  0.3866 -0.0364
17163W        W32972  18.130   7.057   1.125  0.2524  0.0842  0.1388
17164W        W32973   9.197  16.802  10.564  0.1413 -0.1420 -0.1353
17165W        W32974  16.657  18.611   3.516 -0.2097  0.2060  0.0143
17166W        W32975   3.291   1.088  14.451 -0.1661  0.1876  0.1600
17167W        W32976   2.369   5.551   2.297  0.1867  0.0875 -0.0161
17168W        W32977  16.115  17.849  11.718 -0.0399  0.1159 -0.1041
17169W        W32978  13.331  11.998  11.974  0.1366  0.0425  0.1213
17170W        W32979  14.853  15.017  15.327  0.0209  0.3281  0.0775
17171W        W32980   1.371   8.979   4.743  0.2328  0.0102  0.1019
17172W        W32981   5.431   5.235  14.450 -0.1038 -0.1288 -0.2383
17173W        W32982  18.186  17.883   4.418  0.2421  0.0351  0.1932
17174W        W32983  17.334   9.789   1.697  0.0338  0.0841 -0.2513
17175W        W32984  10.719  18.129   1.983  0.0238 -0.0570 -0.2465
17176W        W32985   4.464   7.303   5.215 -0.1783 -0.4562 -0.1764
17177W        W32986   5.719   5.655   1.122  0.1663  0.0924 -0.0835
17178W        W32987   3.378   4.334  13.804  0.3132 -0.0145 -0.0205
17179W        W32988  10.827  18.084  11.568 -0.0433  0.4373 -0.3345
17180W        W32989  13.129   4.730   0.475 -0.0906  0.3494  0.3170
17181W        W32990  14.023  17.690  11.618 -0.1369 -0.2039 -0.0359
17182W        W32991  14.495  12.162   5.311 -0.1643  0.1512 -0.0918
17183W        W32992  10.573   8.634  13.117 -0.2404  0.3005  0.5814
17184W        W32993  10.715   9.618  15.519  0.0771  0.3273  0.3770
17185W        W32994   8.660   6.944  13.400 -0.2837  0.0969  0.2103
17186W        W32995   5.276   8.592  12.500 -0.1372  0.1072 -0.2054
17187W        W32996   3.869   6.788  13.981  0.0523 -0.3439 -0.1033
17188W        W32997   4.112   3.092   2.662  0.1494 -0.1390 -0.2075
17189W        W32998   6.134  14.386   1.040 -0.0024 -0.0179 -0.0315
17190W        W32999  10.766   6.207   4.058  0.1177  0.0601  0.3081
17191W        W33000  17.036  16.646  11.493  0.2005 -0.0103 -0.1302
17192W        W33001   6.834  14.162  12.268  0.2459 -0.0360  0.0782
17193W        W33002  10.801   5.269   3.776 -0.0194  0.1277 -0.1926
17194W        W33003  12.671  14.192   9.875 -0.0038  0.2764 -0.0777
17195W        W33004   0.743  18.655  11.398  0.1997  0.3202  0.1068
17196W        W33005   6.860  11.189   3.591  0.3303  0.0296  0.0457
17197W        W33006   4.851   6.276   0.638  0.1643 -0.2608 -0.1765
17198W        W33007  18.177   9.982  11.061  0.0684  0.0019 -0.0420
17199W        W33008  12.030   0.974  11.778  0.3722 -0.2295  0.0736
17200W        W33009  11.737   8.258  12.369 -0.1029 -0.6898 -0.0161
17201W        W33010   4.212   0.165   4.765 -0.3340  0.0948 -0.1280
17202W        W33011   2.703   2.951   0.063  0.1286  0.2795 -0.0972
17203W        W33012   0.133  13.243  14.879  0.1948 -0.1070 -0.1380
17204W        W33013   1.300  12.776   2.021  0.5599 -0.1948 -0.0011
17205W        W33014   1.641  18.308   2.606 -0.1890  0.0755 -0.1095
17206W        W33015  11.572   6.958  11.751  0.1854  0.1844 -0.2599
17207W        W33016  11.049  16.193  12.793 -0.1824  0.1368 -0.2481
17208W        W33017   1.812   5.440   1.462  0.3383 -0.0304 -0.2572
17209W        W33018   4.186   4.226  12.636  0.1064 -0.3089  0.0454
17210W        W33019  15.860   8.232   5.102 -0.1012 -0.2064  0.2830
17211W        W33020   9.163   2.766   4.038  0.0332  0.1975  0.0412
17212W        W33021  11.494   3.711   5.924  0.1349  0.3179 -0.2143
17213W        W33022   5.174   3.119   4.882  0.1341  0.0388 -0.0038
17214W        W33023   5.901   5.611   1.935 -0.1708  0.1846 -0.2309
17215W        W33024   6.518   7.599  13.825  0.1311  0.3321  0.2512
17216W        W33025   9.091   2.597  11.946 -0.2934  0.0633  0.0052
17217W        W33026   5.262   8.515  11.215 -0.0024  0.3046 -0.0760
17218W        W33027   2.704  11.950  12.638 -0.2633  0.1523  0.3079
17219W        W33028   9.055  11.347   3.626 -0.2384 -0.0712 -0.0907
17220W        W33029  14.665   9.539   2.911  0.2712 -0.1106  0.2057
17221W        W33030   5.489   1.982  14.939  0.0383  0.0156  0.0477
17222W        W33031  15.157  10.282  15.022 -0.1092  0.0489 -0.0878
17223W        W33032  15.648   9.926   2.816  0.0545 -0.1615  0.0938
17224W        W33033   8.167  16.353  12.227  0.3693 -0.0314 -0.0787
17225W        W33034  17.806   7.784   4.871 -0.3027 -0.3966 -0.0418
17226W        W33035   3.556  17.896  13.342 -0.0282 -0.0570  0.1592
17227W        W33036  17.189  18.093  13.904  0.2419 -0.0874 -0.0248
17228W        W33037   3.005  15.377   0.708 -0.1145  0.2104  0.0234
17229W        W33038   4.229   0.514  14.211 -0.0203  0.4328  0.1541
17230W        W33039  11.583   6.770   2.074  0.0849 -0.2572  0.1471
17231W        W33040  16.570   9.400   3.704 -0.0298  0.0558 -0.0160
17232W        W33041   5.046  14.107  11.546  0.1006  0.1582  0.0087
17233W        W33042  13.799   4.703   3.140  0.0992  0.4409  0.1710
17234W        W33043  14.687  15.769   3.492  0.0332 -0.0389 -0.2015
17235W        W33044   4.731  16.934   1.251  0.1744  0.0465 -0.2228
17236W        W33045  14.978   5.754  12.093  0.3217  0.1671  0.1944
17237W        W33046   7.310  17.759  14.651 -0.2740 -0.0166  0.2779
17238W        W33047   4.487  18.267   3.423  0.2520 -0.3007 -0.0136
17239W        W33048   5.500  14.559  11.133 -0.1608 -0.1550 -0.1461
17240W        W33049   1.354  11.831   3.635  0.1682  0.1364  0.1077
17241W        W33050   1.972   8.540  11.819 -0.1487 -0.0294  0.1451
17242W        W33051   0.620   6.785  13.911 -0.0186 -0.0422 -0.1074
17243W        W33052   0.108  18.321   2.259  0.3162  0.2385 -0.1282
17244W        W33053  11.539   7.090   5.647  0.0557  0.0180 -0.2162
17245W        W33054  13.758  15.647  12.877 -0.3739  0.2476 -0.2104
17246W        W33055   9.702   9.700   4.346 -0.0808  0.0821  0.2453
17247W        W33056  17.338  10.367  13.610 -0.2949  0.2760 -0.0213
17248W        W33057   9.111  13.750  15.749 -0.0628 -0.1075 -0.0322
17249W        W33058   0.954  11.953   2.438  0.0583  0.0078  0.1715
17250W        W33059   0.077  18.587   1.241  0.1917  0.1394  0.0396
17251W        W33060   0.977   3.022  11.893 -0.0975  0.3522  0.4156
17252W        W33061   1.918  12.482   2.846  0.1391 -0.3249  0.1287
17253W        W33062   5.384  13.539   1.114  0.2833 -0.1793  0.2677
17254W        W33063  10.544   6.821  11.015 -0.2194  0.1500 -0.1748
17255W        W33064   0.260  15.950  14.217 -0.1910 -0.0176 -0.1723
17256W        W33065   6.788  12.072   3.513 -0.0665 -0.1845  0.2681
17257W        W33066   1.911   0.204   2.654  0.4894 -0.1280  0.0423
17258W        W33067  16.696   1.195   5.283  0.0795 -0.2902  0.0423
17259W        W33068  14.149   3.974  12.024  0.0677  0.4144  0.2496
17260W        W33069  17.927   7.889   1.832  0.2907  0.1165 -0.2918
17261W        W33070   3.483   8.786   0.082  0.1782 -0.0261 -0.0466
17262W        W33071   7.049  17.935   3.874  0.1570  0.0916  0.0227
17263W        W33072   2.512   6.462  13.770  0.1779 -0.1969 -0.0705
17264W        W33073  11.352   8.054   3.322 -0.2751 -0.1027  0.1669
17265W        W33074   7.850  14.894   1.721 -0.3551  0.2072 -0.1705
17266W        W33075  11.489  12.508   5.965  0.2453  0.0258  0.0486
17267W        W33076   2.759  12.319   6.326  0.0000 -0.0946 -0.0495
17268W        W33077   5.828   7.650   3.775 -0.1051  0.0551 -0.2020
17269W        W33078   6.726   4.005  14.986 -0.2804  0.0168 -0.1563
17270W        W33079   0.362  10.576  14.767  0.0275 -0.0905  0.0697
17271W        W33080  18.053  16.045  14.057  0.3317 -0.0984  0.1381
17272W        W33081  15.176  13.630   5.258  0.1371 -0.1142 -0.2678
17273W        W33082   3.213  14.836   2.232 -0.2282  0.1072  0.0782
17274W        W33083   7.965  14.587  15.130  0.1102  0.0016  0.0589
17275W        W33084  15.693  14.593   3.010  0.0388  0.0556 -0.0382
17276W        W33085  12.452  17.319   0.015 -0.0726  0.1656 -0.4372
17277W        W33086   4.738   8.506   2.802 -0.2875 -0.0044 -0.1946
17278W        W33087   3.213   2.097   4.756 -0.2402  0.0542  0.2176
17279W        W33088  13.046   8.503  14.534  0.0368 -0.1689 -0.2178
17280W        W33089  10.585   6.953   4.116  0.3118 -0.0155 -0.0185
17281W        W33090   0.886   2.937   2.886 -0.0148 -0.2364  0.0694
17282W        W33091  11.576  17.324  11.817 -0.1124  0.3555  0.3737
17283W        W33092   2.496  14.811  13.369 -0.3100 -0.3195 -0.3055
17284W        W33093   4.361  13.857  15.393 -0.0003 -0.0295 -0.0157
17285W        W33094   7.394   9.023  11.437 -0.0961  0.1606  0.0737
17286W        W33095   7.487   3.005   4.591 -0.2376 -0.0752 -0.0852
17287W        W33096  16.406  13.631   5.203 -0.2044  0.2714  0.0539
17288W        W33097   0.296   8.774   1.568  0.0197  0.0581  0.4463
17289W        W33098  13.070   6.456   0.151  0.2162  0.1010  0.1239
17290W        W33099   2.111   4.546   2.264  0.1824 -0.0215 -0.0814
17291W        W33100   7.730   1.936  13.431 -0.2873  0.3210 -0.0131
17292W        W33101   2.714  10.557   1.333 -0.0456  0.2316 -0.0115
17293W        W33102  18.662  16.787   5.473 -0.0849 -0.1000 -0.1294
17294W        W33103   3.993  10.799  12.816  0.3200 -0.2409  0.0448
17295W        W33104   7.366  15.250  11.648 -0.1960 -0.2533 -0.0733
17296W        W33105  10.289  16.051   4.830 -0.0931  0.1064 -0.1611
17297W        W33106   8.820   3.381  15.070 -0.1348  0.3301  0.0455
17298W        W33107  18.611   5.610   1.901 -0.1893  0.1424 -0.1083
17299W        W33108  11.250   0.485   4.472 -0.0748  0.0092  0.0874
17300W        W33109   0.112   8.149   2.336  0.2312  0.2117 -0.0503
17301W        W33110   9.709   3.890  11.249  0.0458 -0.1523  0.0368
17302W        W33111   0.685  15.937   0.885  0.4476 -0.0025 -0.4528
17303W        W33112   7.393  14.418  14.656  0.1303 -0.1374  0.1195
17304W        W33113   9.571  18.153   0.823 -0.0380 -0.0455 -0.0071
17305W        W33114   2.457   9.336   5.420  0.0671  0.1346 -0.0365
17306W        W33115   6.746  10.383  12.104  0.1758 -0.2693 -0.2207
17307W        W33116   5.153  12.118  14.440  0.1415  0.1382 -0.0777
17308W        W33117   1.054   3.653  11.796 -0.0757  0.0509 -0.1026
17309W        W33118   5.549  10.051   4.833  0.2532 -0.0007 -0.3212
17310W        W33119   2.217   8.529   4.415 -0.2682 -0.2943  0.0367
17311W        W33120   5.421  15.334   1.228 -0.1344 -0.0484  0.4143
17312W        W33121   7.358   3.256  15.143 -0.0707 -0.1077 -0.0280
17313W        W33122   5.545  16.871  12.473  0.2909  0.1978  0.0368
17314W        W33123  13.801   1.650  14.012  0.1681  0.0007  0.6213
17315W        W33124   7.705  16.988  11.645  0.1288 -0.2143  0.0162
17316W        W33125  11.252   3.645  11.746 -0.1657 -0.2197  0.1974
17317W        W33126   5.269   4.648   0.396  0.2429  0.0900 -0.1250
17318W        W33127   0.345  14.768   0.630  0.1321  0.0580  0.0998
17319W        W33128   0.074   7.571   6.043 -0.2203  0.0001 -0.0055
17320W        W33129  12.456   2.944  13.956  0.0839 -0.0494 -0.0828
17321W        W33130  14.954   6.303  12.175  0.1069 -0.1507  0.1349
17322W        W33131   5.325   6.369   4.152 -0.1265 -0.2485  0.1006
17323W        W33132  10.584  13.641   4.757  0.1479 -0.0690  0.1729
17324W        W33133  11.158   4.138   0.365 -0.1227  0.0476  0.1995
17325W        W33134  14.085   0.538  11.450  0.1101 -0.0924 -0.3481
17326W        W33135  18.609  13.841  15.671  0.2547  0.0521 -0.4455
17327W        W33136  13.727   1.226   3.012  0.0380 -0.0816 -0.0568
17328W        W33137  16.231   7.513   2.607  0.0395 -0.0510 -0.1585
17329W        W33138   5.399   6.983   2.323  0.2499 -0.1012  0.1219
17330W        W33139   0.742  18.158   2.845 -0.0414 -0.1671 -0.1566
17331W        W33140   7.131  16.506   3.155  0.2059  0.2619 -0.2896
17332W        W33141  10.742   4.638   3.375 -0.0952 -0.1196 -0.2250
17333W        W33142  18.382   1.962   5.667 -0.2292 -0.1738 -0.0025
17334W        W33143   1.090  11.244   5.799  0.0516 -0.1790 -0.4638
17335W        W33144  14.318   7.053   0.793 -0.0280  0.0990 -0.1106
17336W        W33145   0.436  15.594   0.639 -0.1477 -0.1821  0.1309
17337W        W33146   1.069  14.427   4.676  0.1539 -0.0823 -0.0146
17338W        W33147   0.834  17.833   3.343  0.1586 -0.2146 -0.2942
17339W        W33148   2.735   6.279   4.749 -0.1586  0.2778  0.0796
17340W        W33149  12.300   3.011  13.222 -0.1269 -0.1983 -0.0210
17341W        W33150   9.709   4.610  11.927  0.0678 -0.1658 -0.2295
17342W        W33151   1.495   9.202  13.917  0.1635 -0.2514 -0.0177
17343W        W33152   2.500  17.211  13.448  0.1338  0.1123  0.1183
17344W        W33153   6.374   3.292  14.453 -0.3227 -0.1810  0.0527
17345W        W33154  17.006  18.638  11.080  0.0959 -0.0851  0.0150
17346W        W33155   8.562   7.387   2.899 -0.3574  0.0491 -0.0892
17347W        W33156   4.597  10.983  11.401 -0.3163 -0.1798 -0.0616
17348W        W33157   7.871   6.838   1.527  0.2130  0.1661 -0.1195
17349W        W33158   1.600   1.033  11.913  0.2467 -0.1276  0.1143
17350W        W33159  18.101   7.543   4.015 -0.3222 -0.2467  0.0097
17351W        W33160   7.491  12.590  14.343 -0.1110 -0.1656  0.1585
17352W        W33161  13.638   0.735   1.274 -0.2210 -0.1669 -0.0151
17353W        W33162   3.532   8.359   4.327 -0.0696 -0.1987 -0.0135
17354W        W33163   5.065  14.941  11.896 -0.2047  0.3066  0.0544
17355W        W33164  16.301   9.967  12.575  0.0198 -0.1353 -0.0068
17356W        W33165  13.746   4.537  14.102  0.4443 -0.0317 -0.2788
17357W        W33166   7.388   6.393   4.036 -0.1094  0.0835  0.2972
17358W        W33167   5.137  12.974   4.401  0.0894  0.0400  0.0600
17359W        W33168   7.216   5.853   4.043  0.0784  0.0948  0.0355
17360W        W33169   9.044   5.066   1.543  0.3954 -0.2372 -0.0307
17361W        W33170   9.241   9.790   1.933  0.1110 -0.0491 -0.0286
17362W        W33171   4.830  16.269  15.274 -0.2635 -0.2133  0.1943
17363W        W33172   5.051  17.792   4.992 -0.1541 -0.3801  0.0729
17364W        W33173   0.816  17.413   0.978  0.2868  0.0070  0.0408
17365W        W33174  16.811   6.711  11.110 -0.0417  0.3381  0.0076
17366W        W33175   2.083  15.350  11.444 -0.1840  0.1632  0.0431
17367W        W33176   4.235   8.485   5.858 -0.0820 -0.0037  0.3103
17368W        W33177  15.994   4.287  13.502  0.1372  0.0398 -0.3275
17369W        W33178   0.850  12.777   4.438  0.0655  0.1453 -0.3809
17370W        W33179   9.901   6.660  12.371 -0.2677  0.0413  0.0778
17371W        W33180   0.141   7.801  14.991 -0.1812  0.1423  0.2547
17372W        W33181   6.682   0.250   4.633 -0.0560  0.0372  0.1795
17373W        W33182  10.753   5.562   1.107  0.2638 -0.4334 -0.0220
17374W        W33183  17.086   9.322   1.643  0.0756 -0.1456 -0.1308
17375W        W33184   5.797   5.321   2.369  0.0121 -0.0434  0.1098
17376W        W33185   7.316  10.553   0.903  0.0860 -0.4088  0.2008
17377W        W33186  15.324  10.867  11.939  0.0444 -0.2028  0.0268
17378W        W33187   2.826  15.167  15.601 -0.0767  0.0568  0.0111
17379W        W33188   0.160  12.717   2.592 -0.1245 -0.1326  0.1312
17380W        W33189  13.922   2.095  11.972 -0.1592  0.1007  0.0090
17381W        W33190  10.970   3.126  11.123 -0.1107  0.1444  0.2635
17382W        W33191  16.932  16.358   3.605 -0.1420  0.0559  0.1376
17383W        W33192   3.901   6.564  12.026  0.0027  0.2304  0.2079
17384W        W33193   0.502  11.486   1.210 -0.1784  0.1217  0.3328
17385W        W33194   3.410  16.116   3.372  0.0484  0.4372  0.4618
17386W        W33195   8.440  18.250   4.079 -0.3183  0.0518  0.1656
17387W        W33196   9.048   0.252   1.295 -0.1454  0.1053 -0.0058
17388W        W33197  18.479  14.541  12.474  0.0928  0.1085 -0.1423
17389W        W33198   7.266   4.193   0.795  0.0644  0.1740 -0.0823
17390W        W33199   6.961   7.515   4.752 -0.0031 -0.1950 -0.4215
17391W        W33200  14.540  11.331   1.983 -0.1253 -0.1359  0.0946
17392W        W33201  11.487   8.711  11.641  0.0753  0.0283  0.0390
17393W        W33202   6.148   5.364   5.460  0.1926 -0.0296 -0.1779
17394W        W33203   6.044   4.783  13.592 -0.3199  0.1707 -0.1752
17395W        W33204  17.273   0.024  14.815  0.0121  0.2198  0.1245
17396W        W33205   4.123  12.018   3.036 -0.3596  0.1289  0.2779
17397W        W33206   1.132  10.746   3.787  0.0308  0.0797  0.0977
17398W        W33207  10.730   8.234  13.415 -0.3082  0.1614  0.1403
17399W        W33208  16.102   8.089   0.032  0.0932  0.2009  0.1874
17400W        W33209  12.881  15.268   2.129  0.1260 -0.2638 -0.0462
17401W        W33210   6.928  13.563   3.058 -0.0045 -0.0306 -0.0410
17402W        W33211   0.972  17.908   5.727 -0.3097 -0.0210  0.0790
17403W        W33212  17.192   1.844   1.211 -0.2842  0.0906 -0.0900
17404W        W33213   9.726   0.158  12.039 -0.0044  0.2702  0.2306
17405W        W33214  10.287  12.503   4.498  0.1683  0.3701  0.3145
17406W        W33215  11.315  10.714  14.401  0.0675  0.2189  0.0789
17407W        W33216  14.692   8.097   3.546  0.0927 -0.0896  0.0973
17408W        W33217   3.168   0.671  12.321 -0.1280 -0.2054  0.3622
17409W        W33218  12.666   6.795   5.789  0.2904  0.1538 -0.1781
17410W        W33219   6.823   1.386   0.463 -0.0447  0.0818 -0.1739
17411W        W33220   9.764   8.144  12.046 -0.2392  0.0593 -0.3274
17412W        W33221  14.802  18.462  11.931 -0.0195  0.1420  0.2196
17413W        W33222  16.546  14.222   5.330 -0.0154 -0.2012 -0.0290
17414W        W33223  14.353   2.715  13.615 -0.2445  0.3415  0.3820
17415W        W33224  14.886   0.706   0.516  0.4607  0.2374 -0.3683
17416W        W33225   2.314   5.772   0.964 -0.0912 -0.3108  0.0694
17417W        W33226  16.964  12.024   0.874 -0.1123  0.1771  0.1193
17418W        W33227  12.801   1.687   1.910 -0.2084 -0.0155  0.0385
17419W        W33228   5.668  10.043  11.447  0.0951  0.1753 -0.0450
17420W        W33229  13.700   4.011   2.558 -0.0166  0.0300 -0.0258
17421W        W33230   8.692  17.490  11.053  0.3665 -0.2035 -0.0548
17422W        W33231   6.924  15.608  15.151 -0.0539  0.0590 -0.3819
17423W        W33232  13.651   4.991  11.951  0.1674  0.0339 -0.1273
17424W        W33233   8.240   4.672  14.991  0.0666  0.0756 -0.0510
17425W        W33234  10.410   3.167  11.299 -0.0905 -0.2725 -0.0689
17426W        W33235  12.479  14.688  13.192 -0.0427 -0.0434  0.1043
17427W        W33236   2.195   5.523  13.405 -0.0640 -0.0148  0.1559
17428W        W33237  10.785   2.057  15.487  0.4481 -0.0251  0.0320
17429W        W33238   0.713  17.062  13.172 -0.2760  0.1036 -0.0989
17430W        W33239  11.151   2.886   0.069  0.1664 -0.0252 -0.0376
17431W        W33240  11.214  17.070   4.472 -0.3507  0.0362 -0.0262
17432W        W33241  13.596   3.415  11.671  0.2487  0.0740  0.1900
17433W        W33242  15.109  16.155  10.222  0.0391 -0.1137  0.1019
17434W        W33243   1.878   4.635  11.348 -0.0884  0.2938  0.1751
17435W        W33244   4.692   6.912  14.963  0.2856  0.0394 -0.1520
17436W        W33245  13.357   2.889  15.505 -0.1215 -0.1214  0.2177
17437W        W33246   0.134   1.150  10.121 -0.2170  0.0676  0.2753
17438W        W33247  12.489  12.407   5.622 -0.4050  0.2851 -0.1188
17439W        W33248  13.458  13.754  13.815  0.1558  0.2526  0.3445
17440W        W33249  16.199   7.066  12.765 -0.1360 -0.3593 -0.4439
17441W        W33250  10.072  13.621  12.952  0.1559  0.1645  0.0121
17442W        W33251  18.214   2.310   1.330 -0.2340 -0.1903 -0.1279
17443W        W33252  14.883   6.384  11.397  0.0590 -0.2063 -0.3221
17444W        W33253  13.607   0.203  15.338 -0.3514  0.0370 -0.0610
17445W        W33254   6.544   0.218  13.150 -0.0946 -0.0079  0.1250
17446W        W33255  13.505  14.243  13.901 -0.1621  0.0455  0.2061
17447W        W33256   4.560   4.031   2.804 -0.1036  0.0221 -0.2550
17448W        W33257  11.693   7.818   5.131 -0.1040  0.2741  0.0347
17449W        W33258   5.774   4.168   5.048 -0.1722 -0.1852  0.0093
17450W        W33259   5.643  17.374  12.625 -0.0126  0.1719  0.4065
17451W        W33260  11.057  12.686   1.254  0.5851 -0.2398  0.0515
17452W        W33261  12.937   1.909  13.821  0.3099 -0.1194  0.1483
17453W        W33262   8.153   7.867   1.646  0.0628  0.2317 -0.2466
17454W        W33263   3.096  18.071  11.049  0.4067 -0.1243  0.2757
17455W        W33264   7.836   4.492   4.384 -0.2117  0.1610 -0.2510
17456W        W33265   8.827  15.305   0.736 -0.0624 -0.1873  0.1766
17457W        W33266   4.070  10.683  10.812 -0.0407  0.1749 -0.1769
17458W        W33267  10.666   8.825   3.385 -0.0156  0.2615 -0.0945
17459W        W33268   5.856  14.080   4.749 -0.1844 -0.1693 -0.2796
17460W        W33269   2.743  13.014  13.767 -0.0194  0.2473  0.1240
17461W        W33270  12.304  15.910  12.566  0.1907 -0.0772  0.0934
17462W        W33271  12.556   8.382   1.360  0.1638 -0.0266  0.1573
17463W        W33272  17.024   3.295   1.389 -0.0867 -0.0119 -0.0098
17464W        W33273  18.566   2.306   0.214 -0.0345 -0.2771 -0.1485
17465W        W33274   1.300  17.960  13.780 -0.1539 -0.2097  0.1308
17466W        W33275   1.264   2.902   0.614  0.0127  0.0863 -0.1206
17467W        W33276   4.709   5.804   2.850 -0.2578  0.1640  0.2268
17468W        W33277   1.111  13.569   3.082  0.0186 -0.1569  0.0091
17469W        W33278  17.021  11.709   3.969 -0.3739  0.1308  0.0961
17470W        W33279   7.952   6.994  11.563  0.0156  0.3088 -0.1669
17471W        W33280  18.331  11.998   4.783  0.0391 -0.1954 -0.0178
17472W        W33281   0.812   9.322  12.505  0.1007 -0.1733  0.4544
17473W        W33282   3.011  18.489   1.593 -0.4546  0.1665 -0.2256
17474W        W33283  17.057   8.049   0.209  0.0319  0.0983  0.3436
17475W        W33284   9.991   5.327  15.360  0.0689 -0.1718  0.0265
17476W        W33285   1.439  14.347  11.038 -0.0087 -0.2612 -0.1186
17477W        W33286   4.747  12.132   2.683 -0.0225 -0.0714 -0.0350
17478W        W33287  16.928   9.969  12.564  0.0182  0.1753  0.0444
17479W        W33288  18.504   2.408  13.715  0.1500  0.2185 -0.1398
17480W        W33289   9.240   9.865  11.187 -0.0240 -0.1998 -0.1114
17481W        W33290   2.483  13.434  14.986 -0.0600 -0.0396 -0.1323
17482W        W33291   1.961   0.353   0.511  0.0330 -0.2237  0.2931
17483W        W33292  16.291  11.233   0.578  0.2154  0.4229  0.2779
17484W        W33293   9.891   4.290   2.525  0.1612  0.3516  0.0773
17485W        W33294  15.162   4.975   1.258 -0.0355 -0.0686 -0.1763
17486W        W33295   3.235   5.288   3.638  0.1445  0.0854  0.0982
17487W        W33296  11.682   2.279   3.751 -0.0192 -0.4626  0.1359
17488W        W33297  18.153  16.909  14.003  0.0972 -0.1531 -0.2964
17489W        W33298  15.343   5.130  12.891  0.0939 -0.0240  0.0038
17490W        W33299   8.224   9.232  15.699  0.0088 -0.0160 -0.0020
17491W        W33300   1.590   5.288  12.499  0.1797 -0.1395 -0.4574
17492W        W33301   0.586  14.344   3.604  0.1451 -0.0198  0.2080
17493W        W33302   2.080   9.574   2.628  0.2065  0.2400  0.2155
17494W        W33303   8.770   9.959  14.859  0.4536 -0.1971  0.0960
17495W        W33304  10.846  14.268  10.993  0.1478  0.1280 -0.0825
17496W        W33305  17.618   3.283  14.652 -0.0993  0.1588  0.2012
17497W        W33306   7.438   2.250   5.062 -0.0271 -0.1281 -0.1643
17498W        W33307  16.997   5.841   1.672  0.1665  0.3996 -0.0811
17499W        W33308   5.601  15.165  15.011 -0.0538 -0.1947  0.1185
17500W        W33309  11.884   3.624   0.825 -0.3987 -0.2601 -0.0417
17501W        W33310   1.679  17.668  14.451  0.1786 -0.2573  0.3348
17502W        W33311  17.203   7.078  13.085 -0.2190  0.2634  0.3032
17503W        W33312   5.432   8.281   0.750 -0.2755  0.0361  0.1097
17504W        W33313  17.034  14.448  10.160 -0.0739  0.1947  0.1713
17505W        W33314  17.272  12.627   3.897  0.0844  0.1826 -0.5579
17506W        W33315   0.566  14.617  10.402 -0.0686  0.0002 -0.0966
17507W        W33316  11.806  10.747   2.730  0.1740  0.1138  0.1110
17508W        W33317   0.010   2.271   2.845  0.0316  0.0241 -0.0080
17509W        W33318   3.843  14.199   2.252  0.0340 -0.1184 -0.1894
17510W        W33319   6.588   2.202  12.783  0.2063 -0.2632  0.1112
17511W        W33320  17.394  12.695  13.256 -0.0033  0.3441 -0.1092
17512W        W33321  13.290  11.147   3.945  0.1526 -0.0123  0.2435
17513W        W33322  13.856   2.036  13.727  0.0277 -0.1867  0.2989
17514W        W33323  12.137   4.508   1.552  0.0608 -0.3294 -0.1004
17515W        W33324   9.536   6.461  14.290 -0.0728  0.4324  0.1990
17516W        W33325  15.468  11.661  13.962 -0.1249  0.0415  0.0924
17517W        W33326   3.470   0.243   4.175  0.0789  0.1703 -0.3002
17518W        W33327  15.712  10.223  15.143 -0.0004  0.0666  0.3000
17519W        W33328  16.380   3.175  11.095 -0.0900 -0.1610  0.0724
17520W        W33329   0.576  13.328   3.685 -0.0527  0.0126  0.0668
17521W        W33330  11.053   9.497   0.098  0.0101 -0.0199 -0.0832
17522W        W33331   2.456   2.260  14.137  0.2279  0.1258  0.0497
17523W        W33332  16.791  17.913   0.390  0.1150 -0.0323  0.2594
17524W        W33333   1.813  15.710   0.384  0.2590  0.5199 -0.2783
17525W        W33334   3.523   5.541  14.866 -0.0636  0.2745  0.2431
17526W        W33335   5.724  14.461  15.230 -0.1751  0.3668 -0.2176
17527W        W33336   0.550   4.097  11.288 -0.0141  0.1188 -0.1577
17528W        W33337  16.233   7.312   2.056 -0.0994 -0.0159 -0.1640
17529W        W33338  14.905   3.918   5.118  0.2898  0.2222  0.2521
17530W        W33339   7.630   4.902   3.915  0.0094  0.1682  0.2650
17531W        W33340  13.765  15.523   3.735 -0.1836 -0.2878  0.1562
17532W        W33341  17.040   1.124  10.843  0.1499  0.5178  0.0075
17533W        W33342   7.926  12.470  14.110  0.4848 -0.2212 -0.1244
17534W        W33343   3.106   7.978  13.706  0.0503 -0.1162 -0.1831
17535W        W33344  15.590   1.534   0.020 -0.0761 -0.0185 -0.0866
17536W        W33345   4.818  14.385   0.627 -0.0207  0.0564 -0.3733
17537W        W33346  11.760   0.827  15.372  0.0194 -0.0880  0.2337
17538W        W33347   5.215   0.588  11.045 -0.1627  0.3378  0.0365
17539W        W33348   7.591  14.304   0.693  0.1436 -0.0016  0.1137
17540W        W33349  11.393   8.996  13.545 -0.1360  0.1735 -0.1094
17541W        W33350   7.013  11.647   0.221 -0.1137 -0.3415 -0.0101
17542W        W33351  17.322  11.260  10.958 -0.2651  0.0314  0.2330
17543W        W33352  16.390   8.796   1.774  0.0704  0.2715  0.0329
17544W        W33353  18.293   6.384  15.033  0.0770 -0.0665  0.0293
17545W        W33354   4.262   8.146  11.218 -0.1166 -0.0544  0.2004
17546W        W33355  15.377  12.413   4.977 -0.1647  0.0935  0.1418
17547W        W33356   7.403  16.249   1.942  0.0630 -0.0581  0.2999
17548W        W33357   4.816   5.510  15.243  0.0705 -0.4000  0.2285
17549W        W33358   1.065   8.789  11.917 -0.1484  0.3906 -0.2549
17550W        W33359  12.283  13.453  11.951  0.0367 -0.0526 -0.3087
17551W        W33360   0.620  15.545  14.213  0.0612 -0.0735 -0.0648
17552W        W33361  12.429   1.347  10.343 -0.1339 -0.0024 -0.2293
17553W        W33362  18.042   7.748   4.462 -0.0369  0.2424  0.4163
17554W        W33363   5.755   7.313  11.317  0.1112  0.0194 -0.0201
17555W        W33364  17.914   4.587  11.957  0.0248 -0.0493  0.0613
17556W        W33365   6.682  16.631   4.563  0.1507 -0.2243  0.0489
17557W        W33366  14.560  17.313  12.965 -0.1262 -0.1419  0.1830
17558W        W33367   8.970   5.294   0.080 -0.0829 -0.0630  0.0176
17559W        W33368   0.168  10.041   3.299  0.4004 -0.1916 -0.0287
17560W        W33369   0.975   3.050  14.642  0.1072 -0.0298 -0.2304
17561W        W33370  17.254   4.174  15.113  0.1055  0.1039  0.0391
17562W        W33371  13.140  11.937   3.836 -0.1064 -0.1369 -0.0111
17563W        W33372   1.810  16.208   0.371 -0.0335 -0.3031  0.0837
17564W        W33373   1.188  10.073  13.023  0.0832 -0.0285 -0.3967
17565W        W33374   1.279  17.307   1.466 -0.1744 -0.2772  0.0897
17566W        W33375   9.414   2.725  14.792  0.0920  0.1981 -0.2239
17567W        W33376  13.197   4.557   1.271 -0.1596  0.0183  0.1542
17568W        W33377   6.537   1.518   4.584  0.1670 -0.1407 -0.0486
17569W        W33378   4.684  17.313   2.297 -0.2835 -0.1792  0.1860
17570W        W33379   1.326  14.959  11.446  0.2016  0.0991 -0.4451
17571W        W33380   1.580  17.807   5.625  0.3494 -0.0469  0.0189
17572W        W33381   5.886   2.268   2.486  0.3416  0.0693 -0.3116
17573W        W33382  13.232  14.879   2.173  0.2554  0.0464 -0.0315
17574W        W33383   0.230  18.108   4.863 -0.3513 -0.2539 -0.1834
17575W        W33384   8.422   3.631  13.552  0.0989 -0.1735  0.0909
17576W        W33385  17.058   4.471  12.141  0.2533  0.3028 -0.1706
17577W        W33386  10.077   6.917   0.414  0.0666 -0.2726  0.3375
17578W        W33387  10.664  13.990  12.806  0.1718  0.1640 -0.3547
17579W        W33388  18.225   8.964   5.735  0.2862  0.1764  0.0361
17580W        W33389   8.603   0.444   4.927  0.1977  0.1964  0.1111
17581W        W33390  12.561   4.177  15.380  0.0372  0.1669  0.3821
17582W        W33391  14.892  11.683  12.322 -0.0486  0.1661  0.3206
17583W        W33392   6.592   1.627   2.597  0.0845 -0.1110 -0.1352
17584W        W33393  17.059  16.540  14.867 -0.3437  0.1826  0.0253
17585W        W33394   6.535   2.688   1.849  0.2287 -0.1128  0.2043
17586W        W33395  18.108   2.751   1.559 -0.2402  0.1675 -0.2775
17587W        W33396  11.840   9.937  12.843  0.0587 -0.1039 -0.3521
17588W        W33397  10.820  11.117  13.298 -0.2000  0.1857  0.0006
17589W        W33398  16.473   7.267   0.223 -0.0594  0.1237 -0.2685
17590W        W33399  14.961  14.157  13.652  0.0989  0.2652 -0.1589
17591W        W33400   9.026   1.238   3.055 -0.0779  0.0483  0.0537
17592W        W33401   6.399   8.312  12.956 -0.0356  0.2257  0.1651
17593W        W33402   7.149  14.079   4.301 -0.0503  0.1976 -0.2249
17594W        W33403   5.989   7.770  14.770 -0.0892 -0.1307 -0.1021
17595W        W33404   5.065   2.595   2.897  0.1261 -0.2896 -0.2894
17596W        W33405   5.769   0.723  11.707 -0.0490  0.0592  0.1425
17597W        W33406  12.868  13.043   0.171 -0.1580 -0.3897 -0.0818
17598W        W33407   7.552   4.612  13.318  0.0483 -0.0399 -0.3531
17599W        W33408   8.763  12.455  14.603  0.0665 -0.0751  0.0185
17600W        W33409  15.442  16.571  15.685  0.2837  0.0618 -0.0082
17601W        W33410  18.161   0.769   0.822 -0.1797  0.0494  0.2776
17602W        W33411  10.092  13.101  11.320  0.0488  0.1537 -0.0273
17603W        W33412   4.009  12.551  13.023  0.0494 -0.0250 -0.3196
17604W        W33413   3.496  17.664  13.853  0.0064  0.3375  0.1000
17605W        W33414   9.716  16.071  12.079 -0.4243 -0.1442 -0.0443
17606W        W33415  12.717  17.115   2.726  0.0957  0.3191  0.1805
17607W        W33416  17.900   9.095   1.341 -0.0227  0.1893 -0.2376
17608W        W33417   7.875   6.934   0.956 -0.5035 -0.1785 -0.1243
17609W        W33418  17.325   5.186   4.508 -0.2913 -0.0152  0.2546
17610W        W33419  12.069   7.794  13.776  0.2912  0.1260 -0.2226
17611W        W33420   9.172   3.937   0.020  0.1059  0.0787 -0.2421
17612W        W33421   9.146   5.416   3.362  0.0126  0.0871  0.1122
17613W        W33422  11.143  12.479   1.686  0.0253 -0.1878  0.1124
17614W        W33423  16.584   8.725   1.133  0.1393  0.1625 -0.0705
17615W        W33424   9.893  16.090   4.253  0.1819  0.0952 -0.1234
17616W        W33425   6.663  11.595   1.059 -0.1138  0.3252 -0.0748
17617W        W33426   6.699  18.344   3.820 -0.3445 -0.0108 -0.1594
17618W        W33427   1.660  11.151   1.638  0.1634  0.2174  0.1931
17619W        W33428  10.062   6.422  11.907  0.4506  0.3134 -0.3055
17620W        W33429   8.691   6.416   6.098  0.1659  0.1046 -0.2361
17621W        W33430   8.821   5.462  13.253  0.2085  0.0977  0.4254
17622W        W33431   6.820   0.068  12.451 -0.3061  0.0505  0.4904
17623W        W33432  15.792  10.607   3.758  0.0387 -0.0491 -0.1037
17624W        W33433   7.250   9.162  11.904 -0.0999  0.1865 -0.0000
17625W        W33434  10.320  16.939  14.817  0.0191  0.0390 -0.1391
17626W        W33435  10.462  16.792   1.022 -0.1893 -0.3833  0.1414
17627W        W33436   0.469  12.256   1.092 -0.3164 -0.1878 -0.0945
17628W        W33437   7.630  18.336   4.059 -0.1210  0.0063  0.2125
17629W        W33438   9.255  18.249   4.142  0.3609  0.0130  0.0098
17630W        W33439  12.035   0.112  12.030 -0.1481  0.1829  0.1581
17631W        W33440  17.746   6.078   4.767 -0.0994 -0.0949  0.1524
17632W        W33441   9.942   3.313  13.062  0.2732  0.3634 -0.0630
17633W        W33442   8.179   9.597  12.415  0.0471  0.1406  0.1559
17634W        W33443  11.886   0.984   1.899 -0.1938  0.0984  0.0396
17635W        W33444  14.735   5.321   2.741  0.2982 -0.0847  0.0673
17636W        W33445  10.522  11.296  12.431  0.2851  0.3968  0.1009
17637W        W33446   6.614   4.012   3.857  0.0837  0.1964 -0.1525
17638W        W33447  17.271  14.842  14.681 -0.1583  0.0522 -0.0838
17639W        W33448   5.463   8.650   2.088  0.0250 -0.1979  0.0022
17640W        W33449   2.400  17.770  11.105 -0.0092  0.0307 -0.0830
17641W        W33450  14.525  18.041  12.183  0.0132 -0.5203 -0.1065
17642W        W33451  10.650   2.885  15.602 -0.1672 -0.1603  0.3139
17643W        W33452   2.266   1.446  13.221 -0.3739 -0.2609 -0.0416
17644W        W33453   8.410  11.976  13.196  0.1365  0.0532 -0.1795
17645W        W33454  15.780  13.008  13.962 -0.1917 -0.0550  0.0308
17646W        W33455  10.921  15.841  13.226 -0.1984 -0.2419  0.2460
17647W        W33456   5.841   2.249  10.503  0.2622 -0.1006 -0.0440
17648W        W33457  16.547  14.989   2.127 -0.0233 -0.3627  0.2543
17649W        W33458   9.326   4.260   4.462 -0.0248 -0.1217 -0.0449
17650W        W33459   7.144   6.039   3.275  0.0214 -0.0468 -0.1435
17651W        W33460  12.546   4.850  14.652 -0.3868 -0.1185 -0.1508
17652W        W33461   7.441   1.385   3.013  0.0738 -0.1400  0.1228
17653W        W33462   0.924  17.317  11.406 -0.0988 -0.0267 -0.1637
17654W        W33463  16.259   3.863   1.655  0.0292  0.0120 -0.3092
17655W        W33464   7.473  10.748   3.089 -0.3219 -0.2254 -0.0530
17656W        W33465  12.069  16.654   3.782  0.0898  0.0419  0.1639
17657W        W33466  11.642   3.841   4.779 -0.2822 -0.1047  0.1027
17658W        W33467   5.754   5.949  14.424 -0.0081 -0.1367 -0.0087
17659W        W33468  14.676  13.313   2.935 -0.1132  0.3529  0.1879
17660W        W33469  11.966   0.889  14.959  0.0396 -0.3656  0.2467
17661W        W33470   1.372  15.940   0.629 -0.0893  0.0597  0.0435
17662W        W33471   9.570   0.492  10.359 -0.1614 -0.3550 -0.2857
17663W        W33472  15.002   4.328  10.780  0.2280  0.3325 -0.0105
17664W        W33473   7.421   0.241  11.765  0.3459  0.0308 -0.0841
17665W        W33474  10.488   0.976  15.523 -0.0684 -0.0338  0.0484
17666W        W33475   4.170   5.068   3.298  0.0721 -0.0651  0.0377
17667W        W33476  10.428   2.394  15.308  0.0121  0.5390  0.0361
17668W        W33477   0.000  16.753  14.347  0.0315  0.1134  0.2145
17669W        W33478  12.912   6.805   4.428 -0.2603 -0.0753 -0.0016
17670W        W33479   1.224  11.384  15.648 -0.0249  0.1229 -0.1333
17671W        W33480  15.096  10.646   0.245  0.0093 -0.0292  0.3044
17672W        W33481  12.507   0.258   4.465 -0.0977  0.1554  0.0715
17673W        W33482  15.497  18.647   4.462  0.0713 -0.2362 -0.1897
17674W        W33483   0.984  10.598  12.087  0.0239  0.2368  0.0345
17675W        W33484  17.021  17.685   6.539 -0.0406  0.1010 -0.1746
17676W        W33485   6.543  15.179   3.786  0.0379  0.0669  0.0098
17677W        W33486  16.399   9.579   3.269  0.1129  0.0296 -0.0508
17678W        W33487   9.323   4.638   2.726  0.0883 -0.1967  0.0419
17679W        W33488  12.887  14.716  15.039 -0.3058  0.2038 -0.1932
17680W        W33489   6.312  15.489  12.463 -0.1342 -0.1877 -0.0759
17681W        W33490  15.783  10.379   2.613  0.1797 -0.2195 -0.0244
17682W        W33491   8.675   0.621   1.446 -0.0404  0.0815 -0.1543
17683W        W33492   5.870   5.944  12.847 -0.0288 -0.0960 -0.0188
17684W        W33493  13.411   4.446  12.250  0.0267 -0.0767 -0.1850
17685W        W33494  15.211   5.703   2.015 -0.1437  0.4261  0.0312
17686W        W33495   3.690  10.505  14.871  0.1341 -0.1612  0.1247
17687W        W33496   4.830   2.248  11.376  0.0929 -0.2464  0.0545
17688W        W33497   4.861   5.424   2.535  0.1026  0.0032 -0.3682
17689W        W33498  13.848   6.871  15.493 -0.2356  0.0671  0.1116
17690W        W33499   4.314   3.385  11.691 -0.0186 -0.2388  0.0146
17691W        W33500  11.100   3.332   4.211  0.0902 -0.0238  0.0012
17692W        W33501   0.815  16.860  15.702 -0.0585  0.0466 -0.0585
17693W        W33502   7.760   6.308   4.311 -0.0916  0.0188 -0.0814
17694W        W33503  10.427  12.229  11.366 -0.3358 -0.1850 -0.0267
17695W        W33504   3.325  12.219  15.432 -0.0716 -0.1447  0.1983
17696W        W33505   0.568  13.257   1.172 -0.2513 -0.1710 -0.2051
17697W        W33506  10.840  11.551  12.082 -0.0062 -0.5272  0.1808
17698W        W33507  16.871   9.465  13.998  0.3360 -0.1059 -0.2592
17699W        W33508   2.457   5.330   2.732  0.1354  0.0472 -0.0153
17700W        W33509   9.952  10.067   2.791  0.4858  0.2662 -0.3679
17701W        W33510   9.674   8.632   2.996 -0.3050  0.1624  0.0469
17702W        W33511   8.281  18.626  15.266  0.1310  0.0591 -0.0540
17703W        W33512   6.709   6.107  14.445 -0.1824  0.0201  0.3599
17704W        W33513  13.349  17.817  13.211 -0.0641 -0.0906 -0.2836
17705W        W33514  12.554   7.907  15.200  0.1945  0.0419 -0.0124
17706W        W33515  17.614   4.842  14.646  0.0089  0.0566  0.3348
17707W        W33516  15.722   5.991   3.892 -0.3722 -0.0998 -0.2755
17708W        W33517   2.653  13.520   0.961 -0.1254 -0.0821 -0.1892
17709W        W33518  12.569   7.942  13.450  0.1588 -0.1107  0.0696
17710W        W33519  16.933   8.335  14.174  0.0386 -0.0668 -0.0479
17711W        W33520   5.303   3.917  12.732  0.0920 -0.0299 -0.3624
17712W        W33521  12.408   0.775   3.143 -0.1539 -0.1849 -0.1116
17713W        W33522  11.512   0.582   3.341 -0.0304  0.1029 -0.0466
17714W        W33523   6.271  14.667   3.183 -0.1607  0.3325  0.1352
17715W        W33524  14.411   7.975  12.125 -0.1510 -0.2640 -0.0957
17716W        W33525   5.734   3.703   4.835  0.1910 -0.0597  0.1508
17717W        W33526  10.196   9.901  12.279 -0.2555 -0.0567  0.1093
17718W        W33527   3.969   5.078   1.118  0.1371  0.2178 -0.1158
17719W        W33528   5.443   4.293  14.501 -0.0579  0.1940 -0.0929
17720W        W33529  16.176  10.798   2.572  0.2483  0.2432 -0.0970
17721W        W33530   1.062   8.031   3.510  0.0119 -0.0936  0.2465
17722W        W33531  10.742   6.458   3.128 -0.2217  0.0404  0.1744
17723W        W33532  11.865   8.560   6.304  0.5616 -0.2331 -0.0629
17724W        W33533   9.260  13.548  10.829  0.1142 -0.1015  0.0377
17725W        W33534  17.428  14.116  12.279  0.3883  0.0848  0.0299
17726W        W33535   3.407  16.463  14.328 -0.2305  0.1001  0.0973
17727W        W33536  12.747   5.546   3.312  0.1816  0.3799  0.0168
17728W        W33537  14.118  11.887   2.623 -0.1584  0.1191 -0.0959
17729W        W33538  16.953  10.882   1.063  0.2717  0.3855  0.1822
17730W        W33539  10.801  10.037   4.430  0.1371  0.1867  0.0485
17731W        W33540   1.213   1.607   0.495 -0.2685  0.0156  0.0575
17732W        W33541   7.575  16.278  13.409  0.0996  0.1797  0.1439
17733W        W33542   0.413  11.699  13.006  0.1666  0.1873  0.1785
17734W        W33543  12.123  12.732  14.332  0.1476 -0.0303  0.1962
17735W        W33544  10.140   4.534  11.385 -0.0437 -0.1557  0.0683
17736W        W33545   4.451   3.376   3.426  0.1456 -0.3680 -0.3862
17737W        W33546   2.054   5.965   2.225  0.1826 -0.2957  0.0124
17738W        W33547  13.737  12.718  11.735 -0.3798 -0.4600 -0.3048
17739W        W33548   1.682  13.632   2.369  0.1017 -0.0561 -0.0296
17740W        W33549   9.034   7.079   5.262 -0.1999  0.1038  0.0446
17741W        W33550   1.853  17.155   1.370  0.0334 -0.0705 -0.0241
17742W        W33551   6.915   8.195   5.866 -0.2386 -0.1103  0.0671
17743W        W33552   4.211   9.543   3.719 -0.0456 -0.1994  0.3653
17744W        W33553   9.306  18.501   1.007  0.4236 -0.2333 -0.0085
17745W        W33554  18.091   9.589   0.572  0.1048 -0.2758 -0.2761
17746W        W33555   0.398  10.714  13.725  0.1283 -0.2221 -0.2157
17747W        W33556  17.012  11.594   5.983  0.0256 -0.2525  0.0482
17748W        W33557   5.038  17.128   2.598 -0.1684 -0.0207 -0.1583
17749W        W33558   4.617  14.629   0.991 -0.3105  0.1634  0.2609
17750W        W33559   0.102   6.866   2.768  0.1243  0.3376 -0.1505
17751W        W33560  14.981  15.699  13.080 -0.1745  0.0535  0.3677
17752W        W33561   2.843   4.510   4.025 -0.2084  0.2851 -0.1556
17753W        W33562  17.002   0.616  13.157 -0.0767  0.1786  0.0334
17754W        W33563  17.617   7.221   1.180  0.0594  0.2639 -0.0197
17755W        W33564  12.419  16.368  12.305  0.0972 -0.0392  0.1958
17756W        W33565   7.119   3.210   2.316  0.0640  0.0813 -0.0658
17757W        W33566   2.957   4.789   2.743  0.2217 -0.2860 -0.2284
17758W        W33567  11.889   1.621   4.494 -0.5902 -0.0065 -0.0093
17759W        W33568   0.540   4.819   0.862  0.3479 -0.0403 -0.1897
17760W        W33569  14.928  15.022   9.540  0.0314  0.0936  0.0427
17761W        W33570   1.637   3.568  12.608 -0.1600  0.0676  0.1409
17762W        W33571  12.943   8.554   4.925 -0.1469  0.1216  0.0301
17763W        W33572   2.410   5.919   4.847  0.0211  0.2276  0.0453
17764W        W33573   6.260  14.894   1.010 -0.0516  0.0463 -0.2558
17765W        W33574   2.251   0.625  11.492  0.0759 -0.2579 -0.1229
17766W        W33575  13.634   9.805  11.279 -0.1033  0.0787  0.0839
17767W        W33576  15.069   3.783   1.779  0.2609  0.3399  0.1214
17768W        W33577  15.605  18.204  12.364 -0.2665  0.0166  0.2078
17769W        W33578   8.558   2.418  15.033 -0.1174 -0.4722  0.1955
17770W        W33579  12.757   8.940  11.447  0.0802 -0.1878 -0.0608
17771W        W33580   0.828  12.303  11.536 -0.3955  0.2589  0.1442
17772W        W33581   9.172   7.620   1.747 -0.0851  0.0008 -0.1067
17773W        W33582   5.617   8.439  13.317 -0.1777  0.0064  0.2299
17774W        W33583  10.143   4.097  11.602  0.1050 -0.0964 -0.1955
17775W        W33584   9.432   4.496  10.614 -0.0688 -0.5998  0.2635
17776W        W33585  11.150   2.338   0.515  0.4177  0.0022  0.0590
17777W        W33586   4.836  13.408  12.901 -0.1380 -0.2018 -0.0279
17778W        W33587   7.781   0.711  14.131 -0.0818  0.0137 -0.0514
17779W        W33588  16.071   2.570   1.207 -0.0603  0.1127  0.0589
17780W        W33589  12.729  15.605  15.638  0.1408 -0.0155  0.0620
17781W        W33590  11.489  10.305  14.756 -0.1449  0.0366  0.1789
17782W        W33591   7.701  17.872  11.646  0.0282 -0.0337  0.3365
17783W        W33592   8.880  12.989  12.631 -0.1233  0.1130 -0.3422
17784W        W33593   3.025  16.161   6.056 -0.1237  0.1564  0.1968
17785W        W33594  14.730   0.263   3.206 -0.3355  0.1322 -0.2352
17786W        W33595  11.987   2.399  15.069 -0.1097 -0.2460  0.3282
17787W        W33596   8.879  18.385   2.197  0.1058  0.5061 -0.1257
17788W        W33597   5.073   4.759  12.647  0.0692 -0.0963  0.0440
17789W        W33598   7.794   4.856  12.549  0.1910  0.0771  0.0465
17790W        W33599  11.375  12.364  10.683 -0.3456 -0.1357 -0.2133
17791W        W33600  15.868   8.928   1.727 -0.1570 -0.1533  0.4376
17792W        W33601   9.459   6.707  15.514  0.0332 -0.3000  0.1728
17793W        W33602  17.112  17.915  10.862  0.0075  0.0111  0.2319
17794W        W33603   3.153   1.947  12.321 -0.2310 -0.2055 -0.0893
17795W        W33604  17.921   9.263   0.893  0.0937 -0.1003 -0.2672
17796W        W33605  12.084  18.047  12.063 -0.0292 -0.3174 -0.0781
17797W        W33606   0.908  17.398   3.620  0.0034  0.1695 -0.1086
17798W        W33607  10.056  17.204  11.413 -0.0193 -0.3065 -0.5057
17799W        W33608  13.075  13.872   2.332  0.2874 -0.0300 -0.0416
17800W        W33609   5.535  12.621  15.503 -0.0177 -0.0550 -0.1236
17801W        W33610   9.969  12.200   1.007  0.0725 -0.3100 -0.2794
17802W        W33611   5.074  17.166   3.109  0.0019  0.2460  0.0432
17803W        W33612   4.483  14.852   1.708  0.0418  0.1026  0.1361
17804W        W33613  15.981   2.896  10.811  0.1245 -0.1368 -0.1074
17805W        W33614  15.023   9.228   2.730  0.2787  0.2486  0.1846
17806W        W33615   4.808   0.397   0.002  0.3049 -0.0381 -0.3224
17807W        W33616   2.211  11.000  14.064 -0.1451 -0.0568  0.3503
17808W        W33617   9.752   0.994   3.668 -0.0087 -0.3357 -0.0224
17809W        W33618  16.857   3.878  15.497 -0.4661 -0.2363  0.0118
17810W        W33619   5.524  15.171  15.600 -0.0559 -0.3229  0.1251
17811W        W33620   0.761  17.164  12.208  0.1427 -0.0138  0.0701
17812W        W33621   4.270   9.105  13.014  0.0403  0.1033 -0.2716
17813W        W33622   3.921  12.762   1.722 -0.0190 -0.1263 -0.1405
17814W        W33623  10.897   4.658   4.160 -0.0726 -0.1648  0.3854
17815W        W33624   6.832  11.122  11.510 -0.2444 -0.3621 -0.2199
17816W        W33625  13.594  11.838   3.493  0.2488 -0.1365  0.3041
17817W        W33626   6.652   3.078   2.747 -0.0841 -0.1145 -0.0853
17818W        W33627   9.798   1.803   2.931  0.0571 -0.2330  0.1396
17819W        W33628   8.192  17.109   1.223  0.0401 -0.2463  0.0968
17820W        W33629  17.734   1.989  15.703 -0.0077 -0.0629  0.0737
17821W        W33630   5.008   3.382   1.253 -0.0549  0.2471 -0.0887
17822W        W33631   5.517   3.116  15.601  0.0451 -0.1484 -0.0099
17823W        W33632  14.594   3.187   2.284  0.0261  0.1170  0.0184
17824W        W33633   1.807  12.851   3.565 -0.0443 -0.0272  0.0295
17825W        W33634   3.802   6.793  15.573 -0.0936  0.1265  0.0925
17826W        W33635  17.885   0.998  13.117 -0.3442 -0.3008  0.1994
17827W        W33636   4.125  15.694  12.803 -0.0157 -0.1433  0.0636
17828W        W33637  10.714   9.118  15.096 -0.2238 -0.1344 -0.1166
17829W        W33638   7.107   7.008   3.449 -0.0385  0.1742 -0.0265
17830W        W33639   7.669   3.670  13.108 -0.0232 -0.2228  0.1754
17831W        W33640  16.405  15.778  14.179 -0.2185  0.0333  0.1199
17832W        W33641   1.183  17.395   9.921 -0.1700 -0.2551 -0.2403
17833W        W33642  11.534  18.483   5.135  0.2682  0.0412  0.0942
17834W        W33643  11.671  10.686  12.884  0.0737  0.1448  0.0182
17835W        W33644   1.589   2.126  12.037  0.2991 -0.0393 -0.1275
17836W        W33645   3.100   1.151  13.928 -0.0086  0.1129 -0.1949
17837W        W33646   8.026  16.807  13.260 -0.0379  0.0447 -0.0935
17838W        W33647   6.719  17.659   0.953 -0.1400 -0.0633 -0.1375
17839W        W33648   1.991   9.348  15.678  0.1457 -0.2948 -0.3847
17840W        W33649   7.750   0.215   3.525 -0.0641  0.1038 -0.1217
17841W        W33650   6.257  13.749  10.552 -0.0730 -0.2793 -0.5780
17842W        W33651  13.772   7.892  11.276 -0.0270 -0.1985  0.3761
17843W        W33652   6.689  15.834  12.575 -0.2265  0.1461  0.2068
17844W        W33653   6.365  10.290   4.304  0.1759 -0.0284  0.0782
17845W        W33654   6.114   0.613   0.140 -0.1905 -0.2324  0.1154
17846W        W33655  11.138  17.880  15.631 -0.2432  0.0346  0.1628
17847W        W33656  15.690   3.734   3.711 -0.1221  0.0004  0.2335
17848W        W33657   4.846   9.504  15.260 -0.1003  0.0408 -0.1477
17849W        W33658   8.094   5.281   1.246 -0.1319 -0.2460 -0.1447
17850W        W33659  17.018  10.876  14.970 -0.0638 -0.2564  0.0845
17851W        W33660  12.554  11.906   3.193  0.2976 -0.0344  0.1159
17852W        W33661   1.298   3.165   1.185 -0.0145  0.2291 -0.4439
17853W        W33662  18.334  10.590  13.259 -0.0200 -0.2167 -0.3422
17854W        W33663   8.818  15.355   2.532  0.4051  0.0852 -0.0781
17855W        W33664  12.291   8.447   3.473 -0.1915  0.0222  0.4021
17856W        W33665   7.405  13.759  12.514 -0.0036 -0.2194 -0.2047
17857W        W33666   3.208  10.931  13.613 -0.3707 -0.0846 -0.0900
17858W        W33667  12.271   5.658   4.421 -0.0925 -0.1165  0.1885
17859W        W33668  12.729   2.128  12.964 -0.1615 -0.0905  0.0684
17860W        W33669  18.273  14.887   5.189 -0.0529 -0.2014  0.1294
17861W        W33670  10.262   9.083   3.925 -0.1641 -0.3160  0.1034
17862W        W33671   1.241   5.219   4.933 -0.1321 -0.3083  0.1982
17863W        W33672   8.701   2.598   3.842  0.2490  0.0415 -0.1103
17864W        W33673  18.063  15.471  15.659 -0.1970 -0.0732  0.1017
17865W        W33674  18.313   6.901  11.289  0.0268  0.2786 -0.0041
17866W        W33675  14.027   0.596   4.725 -0.0647 -0.2631 -0.2114
17867W        W33676   1.181  10.730   2.268  0.1863 -0.0693 -0.3476
17868W        W33677  13.855   8.962  12.206 -0.0174  0.0070  0.1499
17869W        W33678  12.352   8.030  12.116  0.0124  0.0973 -0.1640
17870W        W33679   0.175  16.528   0.488  0.0833  0.1764  0.2111
17871W        W33680   5.973  18.287  15.263 -0.3020  0.0265  0.1960
17872W        W33681   5.167   7.942  14.602  0.0821 -0.1839  0.0995
17873W        W33682   8.576   1.699   1.380 -0.2612 -0.0480 -0.2342
17874W        W33683   8.053  11.107  12.058 -0.1062 -0.0348 -0.0184
17875W        W33684  12.776  18.495  15.127 -0.2074 -0.1722 -0.0665
17876W        W33685  12.790  13.357   9.562  0.0404 -0.3749  0.0324
17877W        W33686   6.393  14.265   4.013  0.4606  0.1614 -0.1346
17878W        W33687   1.929   7.705   5.279 -0.1771 -0.3444 -0.1765
17879W        W33688  14.007  17.752   0.085 -0.0499  0.3473 -0.0501
17880W        W33689  12.574   8.742  12.750  0.0776  0.0889 -0.0441
17881W        W33690  16.760   6.556   3.713 -0.2801  0.0265 -0.0718
17882W        W33691  14.573   5.797  15.539 -0.2576  0.0393  0.0655
17883W        W33692   8.235   6.960   2.967 -0.0439  0.0410  0.0430
17884W        W33693  12.411   7.386  12.307  0.2326 -0.3347  0.0799
17885W        W33694  12.744   9.132  13.011  0.0805  0.2022 -0.0930
17886W        W33695   9.388   2.136  12.217  0.0987  0.0757  0.2210
17887W        W33696   0.438  14.053  11.201 -0.1069 -0.0792 -0.2452
17888W        W33697   4.479  16.490  10.868  0.0798  0.0889 -0.0404
17889W        W33698  18.436  12.435   3.508  0.1344 -0.0154  0.1669
17890W        W33699  12.190  17.801  15.711 -0.0013  0.1728 -0.0278
17891W        W33700  16.166   9.706  15.023  0.2143 -0.0232 -0.2176
17892W        W33701  15.125  18.261  14.592 -0.2040  0.1549  0.0969
17893W        W33702  14.482  17.041  13.537 -0.0084 -0.1401 -0.0182
17894W        W33703   4.321  17.072  14.815 -0.1231 -0.0760  0.0585
17895W        W33704  16.203  12.098   0.763 -0.2909 -0.2749  0.3589
17896W        W33705  17.749   5.888  12.476 -0.0742  0.0254 -0.0668
17897W        W33706   8.494   0.890   2.407  0.3982  0.4379  0.3162
17898W        W33707  14.028   6.681  13.684 -0.0130  0.0752  0.0846
17899W        W33708   6.781  16.409  15.135 -0.0337 -0.0096 -0.1379
17900W        W33709   8.070   0.227  12.593  0.0996 -0.0671  0.1812
17901W        W33710  16.550  13.694  13.677  0.0264 -0.2628  0.3233
17902W        W33711  13.079   8.744  12.868  0.0411 -0.0241 -0.3750
17903W        W33712  14.715   3.026  13.399 -0.0785  0.1264 -0.0407
17904W        W33713  17.350  18.145   3.876  0.2500 -0.2960  0.2418
17905W        W33714  11.445   0.646  15.748  0.1023 -0.0413  0.2567
17906W        W33715  11.174   4.391  11.446 -0.1183 -0.0654  0.0236
17907W        W33716   3.763  10.522  12.410 -0.3531 -0.0263  0.0324
17908W        W33717   1.387  14.823  12.052  0.1899  0.1329  0.0139
17909W        W33718   9.219  12.978   0.744  0.2707  0.1549 -0.1371
17910W        W33719   7.256   1.093   1.371 -0.1600  0.2413 -0.0249
17911W        W33720  13.762  16.228   0.461 -0.1268 -0.1560 -0.1959
17912W        W33721   7.256   8.687  14.237 -0.0084 -0.1341  0.1310
17913W        W33722   7.893  18.576  14.456  0.0877  0.2147 -0.1526
17914W        W33723   8.032   3.242   9.696  0.2017  0.0893 -0.1442
17915W        W33724  15.780  10.972   1.460 -0.2161 -0.1639 -0.0388
17916W        W33725  10.463  12.735   4.020 -0.1255 -0.1031  0.0004
17917W        W33726   6.352   4.465  11.062 -0.2445 -0.0391 -0.0337
17918W        W33727  14.482   4.499  12.087 -0.0265 -0.1688 -0.2388
17919W        W33728   0.878   2.953  13.389 -0.0338  0.1847  0.0985
17920W        W33729  11.808   7.865  14.653  0.1903 -0.1050 -0.1504
17921W        W33730  17.429  12.317   0.902 -0.0798  0.0817 -0.1290
17922W        W33731   3.481  16.067  11.226  0.2182  0.2417 -0.1795
17923W        W33732   0.926   2.704  13.839  0.2173  0.1127  0.1381
17924W        W33733  12.610   4.721  13.265 -0.0955 -0.4296 -0.1393
17925W        W33734   0.194  17.114  12.319 -0.1040 -0.1310 -0.0463
17926W        W33735  10.705   2.978  13.442  0.0508  0.1052  0.0063
17927W        W33736  17.371   8.789   4.602 -0.0329  0.0808  0.0453
17928W        W33737  16.127  18.281  13.525  0.1777 -0.2430 -0.2764
17929W        W33738   4.752   3.317  14.902 -0.0622  0.0363  0.0273
17930W        W33739  11.442  11.036   2.056 -0.0043 -0.0493 -0.1340
17931W        W33740  13.037  18.214   1.680 -0.0354 -0.0166  0.1025
17932W        W33741   3.032   6.579   4.482 -0.3035  0.0743  0.3129
17933W        W33742  14.726   8.448  12.250 -0.0872 -0.0712  0.2492
17934W        W33743   8.495   6.078   5.159  0.0099 -0.0609 -0.2858
17935W        W33744  12.152   2.820  15.320  0.1861  0.2048 -0.0168
17936W        W33745   1.839   5.808   5.809 -0.0030 -0.2131 -0.2821
17937W        W33746   8.926  17.913   1.704 -0.0146 -0.0490 -0.0752
17938W        W33747   9.242  17.721   5.052 -0.1897  0.1481 -0.1837
17939W        W33748  12.262   9.147   0.373 -0.1575 -0.1210 -0.0033
17940W        W33749  10.930  15.996   3.518  0.1916  0.1461 -0.2890
17941W        W33750  14.984   4.821  12.935 -0.2137 -0.1069 -0.1389
17942W        W33751   6.003  11.388  15.221 -0.2859  0.1334  0.0043
17943W        W33752  18.180   2.352  12.678 -0.1763 -0.3806 -0.1455
17944W        W33753   4.854   5.286   0.966 -0.4296 -0.2631 -0.0718
17945W        W33754  15.283   7.065  12.467 -0.2129 -0.2574  0.0080
17946W        W33755  13.757  16.660  13.800  0.1630  0.0569 -0.0262
17947W        W33756  14.633   4.655   3.475 -0.1236 -0.1112  0.1379
17948W        W33757   5.125   1.146  12.387  0.5740  0.1242 -0.0460
17949W        W33758   1.563  17.523   2.983  0.2978  0.0561  0.1818
17950W        W33759  11.870   3.364   4.564  0.1641 -0.1483 -0.0779
17951W        W33760   0.902   4.837   4.755  0.2262  0.2085  0.1445
17952W        W33761   3.695  14.641  10.951  0.0496 -0.2834  0.1780
17953W        W33762  12.825   6.437  12.659 -0.0267  0.1254  0.0782
17954W        W33763   2.661   3.894  13.907  0.0000 -0.2528 -0.0855
17955W        W33764   2.373   1.288   1.193  0.0214 -0.1083  0.0413
17956W        W33765   3.234  16.848  11.490  0.0218 -0.1613 -0.0567
17957W        W33766  14.981  15.326   1.108 -0.1720  0.3374  0.2102
17958W        W33767   4.096  15.134   2.572 -0.0808 -0.1850 -0.0337
17959W        W33768  15.070   2.648   1.126 -0.1894  0.0063  0.0658
17960W        W33769   3.072   8.723   5.051 -0.0231  0.1282  0.2424
17961W        W33770   9.798  18.371   3.297  0.1928 -0.4156  0.1753
17962W        W33771   0.904  14.977  12.842  0.3033 -0.0637 -0.0035
17963W        W33772   6.881  17.211   5.517 -0.4253  0.0042  0.1400
17964W        W33773   1.489   5.077  12.964  0.1378  0.0547 -0.1503
17965W        W33774  11.022   2.412  11.795 -0.0898  0.1404 -0.0827
17966W        W33775  10.877  10.004  15.207 -0.1413  0.3464  0.0276
17967W        W33776  14.275  14.234   2.708  0.1711 -0.0163  0.0352
17968W        W33777  12.922  13.455   2.722  0.2439  0.0418  0.1028
17969W        W33778  17.582   2.646  10.598 -0.0844 -0.2174  0.0042
17970W        W33779   6.468  12.770  15.569 -0.0575  0.0070  0.0947
17971W        W33780  13.595  13.156   2.387  0.4739 -0.1071 -0.0369
17972W        W33781   9.471   9.762   4.819  0.1599  0.0868  0.0336
17973W        W33782   2.366  10.895   2.292  0.0026  0.0544 -0.0618
17974W        W33783   7.011   8.841   3.350  0.1049  0.1017 -0.0365
17975W        W33784   2.921  13.019   4.858  0.0078 -0.0707  0.1109
17976W        W33785   7.192  13.757   5.311  0.0860 -0.0764  0.0262
17977W        W33786   5.964   2.589   4.618  0.3005 -0.3292 -0.1567
17978W        W33787   3.127   9.466  11.655  0.4752  0.0666 -0.2470
17979W        W33788   8.818   3.544   3.975 -0.2570 -0.1915  0.0577
17980W        W33789  10.736  11.161   4.386  0.3178  0.0884 -0.2692
17981W        W33790   7.881  14.424  14.006  0.1135  0.1299 -0.0288
17982W        W33791  12.152   2.717  10.578 -0.0153 -0.1003  0.1169
17983W        W33792   2.865   2.170  11.700  0.5823 -0.2507 -0.1725
17984W        W33793   0.313  16.918   9.850 -0.0393 -0.0045 -0.1871
17985W        W33794  10.927   8.882  13.361  0.1228  0.0393  0.1903
17986W        W33795  11.624  12.946  15.038  0.0731  0.2318 -0.1211
17987W        W33796   8.786  12.211  12.644  0.0500  0.1124 -0.2648
17988W        W33797  12.307  14.184  14.302  0.2077 -0.1918 -0.1001
17989W        W33798   1.653  12.558   2.338 -0.2579 -0.1852 -0.0108
17990W        W33799  12.183   4.686   4.784  0.2216 -0.2027  0.1453
17991W        W33800   0.701  11.304   4.016 -0.1977 -0.3518  0.0308
17992W        W33801  11.289  14.576  10.887 -0.3475  0.0136  0.0060
17993W        W33802   6.200   3.303  13.504  0.1050 -0.1048  0.0431
17994W        W33803   1.424   1.754   3.377  0.0987 -0.1585 -0.1816
17995W        W33804   6.405  17.229  11.610 -0.0640 -0.3635 -0.4369
17996W        W33805   4.878  17.733  13.833 -0.3324  0.5583  0.0642
17997W        W33806   3.168  14.750  11.458  0.3262 -0.2953  0.2404
17998W        W33807  18.120   1.370  10.823 -0.0255 -0.2955  0.0114
17999W        W33808  10.321   8.154  12.734  0.0333 -0.2795  0.0631
18000W        W33809  11.037   8.178   2.933 -0.1419 -0.1987  0.1598
18001W        W33810  12.624  15.260   3.303 -0.0505 -0.2309 -0.0614
18002W        W33811   6.632   9.851  15.214 -0.2300  0.0023 -0.1600
18003W        W33812   8.343  16.877  12.108  0.1215 -0.1317 -0.0359
18004W        W33813   7.822  11.809   9.930  0.0473 -0.1202  0.1295
18005W        W33814   6.198   9.829  13.986 -0.0649 -0.2197 -0.0862
18006W        W33815  17.846   9.558  14.124  0.0747  0.1669  0.1620
18007W        W33816   0.833   5.099  10.846 -0.0408  0.2554  0.3417
18008W        W33817  15.609   5.103   3.452  0.2491  0.0272  0.5036
18009W        W33818   4.089  15.318  11.500 -0.0459  0.1960  0.3862
18010W        W33819   8.997   7.869  15.737  0.1373  0.0550  0.0069
18011W        W33820   8.515   8.697   0.143  0.1678 -0.0349  0.1885
18012W        W33821  17.744  14.758  12.437 -0.1819 -0.0311 -0.0351
18013W        W33822   9.666   1.068   4.220 -0.3330  0.1953 -0.1061
18014W        W33823   4.233   5.390  11.834  0.0733  0.0385 -0.0617
18015W        W33824  13.645  10.748  12.221 -0.1416  0.0403 -0.1128
18016W        W33825  12.762  16.427   1.154  0.0306  0.1670 -0.0794
18017W        W33826   8.713  12.288  12.085  0.0949 -0.2411 -0.0205
18018W        W33827   2.885   0.001  14.002 -0.1769 -0.2659  0.2178
18019W        W33828   0.263   1.338   2.756  0.3159  0.0449  0.2221
18020W        W33829  17.186   5.365  15.160  0.0241 -0.1144 -0.3452
18021W        W33830  12.836   1.994  11.618  0.0560 -0.1375 -0.2298
18022W        W33831  13.022   0.256   1.958 -0.2067  0.2030  0.1120
18023W        W33832   0.377   9.667   2.990 -0.2847  0.2800  0.1331
18024W        W33833   5.954   0.407   3.925 -0.0604 -0.0640  0.1778
18025W        W33834   5.177  16.670  11.790 -0.2284 -0.1183 -0.2658
18026W        W33835  15.284   0.797  10.956 -0.0203 -0.1987 -0.0499
18027W        W33836   2.006  16.720  11.133 -0.0248  0.0508 -0.0298
18028W        W33837   3.852  14.418   3.911 -0.0482  0.1857  0.0030
18029W        W33838   6.887   6.526   4.789  0.1646  0.2046  0.0412
18030W        W33839  14.026   8.477  13.264 -0.2318 -0.2927  0.0687
18031W        W33840  18.257  17.567   4.813 -0.1381  0.2567 -0.2093
18032W        W33841  16.395  16.170  10.717  0.0198  0.2782 -0.1523
18033W        W33842  12.071   0.113   4.241 -0.0030 -0.1214 -0.2404
18034W        W33843  12.984   1.536   5.648  0.0290 -0.0101 -0.0236
18035W        W33844   2.826  15.425  13.816 -0.1317  0.1173 -0.0525
18036W        W33845  12.915   8.881   1.900 -0.1389  0.2495  0.1967
18037W        W33846   5.583  15.511   3.034  0.0131 -0.2194  0.3023
18038W        W33847   9.808  12.518   2.070 -0.0581  0.2094 -0.0345
18039W        W33848  17.620   3.065  10.898 -0.1164 -0.2418  0.0465
18040W        W33849   3.604   1.551   4.780 -0.1804 -0.2558  0.1368
18041W        W33850   0.497   0.381   0.551 -0.0097  0.1652  0.0930
18042W        W33851   5.683  15.058  14.009  0.0049 -0.2476  0.0958
18043W        W33852  15.203  16.291   3.480 -0.2583  0.2670  0.1241
18044W        W33853   5.490   5.023  10.523 -0.1096 -0.0723 -0.0458
18045W        W33854  10.817   0.707   1.032 -0.1336 -0.1658 -0.5172
18046W        W33855   3.347  11.723  11.010  0.2658  0.0705 -0.2086
18047W        W33856   8.816  14.956  11.819 -0.1302  0.2085 -0.0346
18048W        W33857   1.339   4.046   3.337  0.1448  0.3089 -0.1751
18049W        W33858   5.973   1.635   1.173 -0.2619 -0.1648 -0.0367
18050W        W33859  17.795   9.500   5.139 -0.0356  0.0710  0.1207
18051W        W33860   5.725  13.345   1.524  0.3908 -0.1351  0.0759
18052W        W33861  14.419   1.235  13.917  0.0388 -0.0850  0.3378
18053W        W33862   2.215   6.443   3.966  0.1101  0.1069  0.0609
18054W        W33863  13.849   5.642   0.445 -0.2052  0.1036  0.0352
18055W        W33864   0.750   1.259   2.944 -0.0535 -0.3042 -0.0173
18056W        W33865   0.937   5.505   5.861 -0.1644  0.3360  0.1544
18057W        W33866  15.330   8.882   3.625  0.0183  0.0116  0.3725
18058W        W33867   9.425  18.324  14.895 -0.4217  0.3747  0.1033
18059W        W33868   6.255   4.095   4.197 -0.0644 -0.2154  0.1250
18060W        W33869   1.196  18.108  15.029 -0.0473  0.0500  0.2189
18061W        W33870   7.061   8.636   1.157  0.1395  0.1189 -0.0163
18062W        W33871   2.807   8.486   6.257 -0.1230 -0.0163  0.0187
18063W        W33872   1.798   5.676   3.087  0.1869  0.1237  0.1367
18064W        W33873  11.536  17.029   1.706 -0.0566  0.1519  0.3196
18065W        W33874  16.086   9.935   0.986 -0.1808 -0.2553 -0.0561
18066W        W33875   6.337   1.483  14.567 -0.0381 -0.2200 -0.0288
18067W        W33876   0.721   2.961  12.328  0.2486  0.0896 -0.0853
18068W        W33877   1.661   0.184  11.027 -0.0419  0.0017 -0.2963
18069W        W33878  15.955  15.744   0.204 -0.1327  0.3866  0.0517
18070W        W33879   2.474   1.375  12.006  0.2631  0.0148  0.0377
18071W        W33880   5.909  12.425   2.044 -0.0494  0.1413 -0.0104
18072W        W33881   9.367  11.876  13.113  0.2147  0.0493 -0.1250
18073W        W33882   8.868   4.442  13.345  0.2333 -0.0986  0.0945
18074W        W33883  18.519   8.559  15.519 -0.2097 -0.0258 -0.2421
18075W        W33884  13.152  17.687   1.635 -0.4586  0.2700  0.2423
18076W        W33885   8.800  14.698  11.376 -0.1541  0.0298  0.0244
18077W        W33886   3.039   0.827  13.064 -0.0012 -0.0654 -0.1254
18078W        W33887   8.520   0.603  14.530 -0.0200  0.1710  0.0642
18079W        W33888   7.886   8.314  14.770  0.0913 -0.1058  0.0492
18080W        W33889   3.758  14.677  13.463  0.2685  0.1398 -0.3249
18081W        W33890  17.640   8.683  12.311  0.2337 -0.1986  0.0363
18082W        W33891  17.518   0.310  14.257  0.2596  0.0975  0.1402
18083W        W33892  17.816   5.510  11.146 -0.0500  0.2716 -0.2345
18084W        W33893  13.846  17.213  14.092 -0.4047 -0.2801  0.2867
18085W        W33894   5.124  14.335   5.431 -0.0336  0.2626  0.1348
18086W        W33895  11.087   1.203  10.452  0.1220 -0.0863 -0.1089
18087W        W33896  17.070  13.119   0.514  0.1707  0.1808  0.0682
18088W        W33897  13.242   1.498   4.656  0.0475 -0.1198 -0.0637
18089W        W33898   7.743  16.130  12.165 -0.1131 -0.0451 -0.0675
18090W        W33899  17.809   0.122  12.793 -0.2957 -0.2206 -0.0224
18091W        W33900  14.903   3.313  12.142  0.0732 -0.4261 -0.1521
18092W        W33901   0.524   8.234   3.520  0.1716  0.2470  0.1152
18093W        W33902   8.951  16.535   9.762 -0.0730  0.0933 -0.0850
18094W        W33903   5.008   9.065  13.641  0.1093  0.1995  0.0259
18095W        W33904   8.394   2.042  12.061  0.0498 -0.0328  0.3222
18096W        W33905  18.023  15.013  13.600  0.1715 -0.0958  0.1181
18097W        W33906  11.739  11.861  13.966  0.1987 -0.4356  0.0219
18098W        W33907  16.376   3.538  11.894 -0.2862 -0.0814  0.0246
18099W        W33908   0.145  15.799   2.004 -0.2593  0.2980  0.1112
18100W        W33909  18.560   7.557  14.071  0.3848  0.0835  0.1320
18101W        W33910  10.203   0.991  12.720  0.1382 -0.1636  0.4014
18102W        W33911   6.982   1.237   4.447  0.0578 -0.0208  0.3107
18103W        W33912   6.672  13.196  12.485 -0.2032 -0.0399  0.0462
18104W        W33913   7.717  15.723  15.701 -0.0183  0.3550  0.2532
18105W        W33914  12.102  16.855   1.804  0.3535  0.1746 -0.0532
18106W        W33915  15.430   5.880   2.513 -0.0275 -0.2226 -0.1663
18107W        W33916  17.522   4.147   4.870 -0.1494 -0.3087  0.2591
18108W        W33917   2.362  10.344   1.586  0.1747 -0.1486  0.1948
18109W        W33918   7.957   3.446  15.084  0.0258  0.4629 -0.0033
18110W        W33919  17.769  10.683  11.644  0.0152  0.0174  0.1843
18111W        W33920   2.154   9.182   1.911  0.5573  0.1583  0.0018
18112W        W33921  12.811  15.327  11.973  0.3202 -0.0295  0.1371
18113W        W33922   6.651   2.684  15.576 -0.1365  0.3516 -0.3514
18114W        W33923   8.957  12.597  12.948 -0.0926 -0.2466  0.0681
18115W        W33924   0.660   3.328   0.465  0.1788  0.0298  0.1681
18116W        W33925  12.194   6.397  14.712  0.2923 -0.2498 -0.3121
18117W        W33926   8.191  10.623   3.061 -0.3750  0.1612 -0.1388
18118W        W33927   0.316   9.806  14.183 -0.0968  0.0951 -0.2150
18119W        W33928  17.295  10.570   1.272  0.2121  0.2707 -0.1747
18120W        W33929   0.375   3.256   5.739 -0.1175 -0.0371  0.2442
18121W        W33930  14.562  12.787  15.577  0.0947 -0.2457 -0.1381
18122W        W33931   9.841  11.449  15.070 -0.0312  0.2182  0.2016
18123W        W33932   2.740   8.068   1.052 -0.0628  0.2117  0.2658
18124W        W33933  12.930  18.597   4.755  0.2792 -0.2421  0.0827
18125W        W33934  15.818  12.799   0.449  0.0106  0.2116  0.4163
18126W        W33935   6.973  10.806   4.908 -0.0310 -0.2077 -0.3911
18127W        W33936  17.253   9.551   0.434 -0.3381 -0.1436  0.2504
18128W        W33937  15.657  13.082  12.915 -0.2981 -0.4404 -0.0474
18129W        W33938  18.205  11.528  10.838  0.4570  0.2320 -0.1510
18130W        W33939  14.246   4.411   3.127  0.0477  0.0240 -0.0251
18131W        W33940  17.642   5.416   2.556 -0.0073  0.3046 -0.2748
18132W        W33941  14.074   6.975  11.112 -0.1007  0.0169  0.0588
18133W        W33942  18.616   6.773  12.818  0.0499 -0.0541  0.1691
18134W        W33943   0.613  10.883   3.680 -0.2542  0.2965 -0.2002
18135W        W33944   0.471   5.517   1.782  0.0740  0.1890  0.2012
18136W        W33945   8.878   6.927   4.762  0.1373 -0.0974 -0.3943
18137W        W33946   9.139   5.383  13.823 -0.1163  0.2247 -0.1882
18138W        W33947   1.917   3.924   1.025  0.2515 -0.5700  0.1091
18139W        W33948   5.320   3.610   3.382  0.0534  0.0942  0.1809
18140W        W33949  16.433  11.038  12.082 -0.1203 -0.2872 -0.0372
18141W        W33950   2.864   3.067  15.323 -0.2702  0.0669  0.0077
18142W        W33951   1.481   1.034  15.572 -0.0580  0.0250  0.0402
18143W        W33952   2.966   3.474  12.147  0.2682 -0.0467  0.1241
18144W        W33953   3.418   4.508   3.038  0.0827  0.1200 -0.2273
18145W        W33954   2.693   6.342   2.900 -0.0212 -0.0369  0.2716
18146W        W33955  17.049   0.453  12.236  0.0661 -0.2415  0.0171
18147W        W33956  10.281   8.675   0.697  0.1382  0.4635 -0.0434
18148W        W33957   1.573  10.755  15.130 -0.3716  0.1784  0.0980
18149W        W33958   5.978   4.504  12.827 -0.2757 -0.0934  0.2840
18150W        W33959  12.552   3.794   3.057  0.0498 -0.2833 -0.2198
18151W        W33960   5.611   2.611   2.809  0.0546 -0.2000  0.2340
18152W        W33961   7.100   3.685   3.253  0.1556 -0.1295 -0.0562
18153W        W33962   9.113   5.077   2.519  0.2840 -0.1317  0.0031
18154W        W33963  15.939   1.389  11.629 -0.4136  0.1827 -0.1002
18155W        W33964  10.036  10.180  15.682 -0.0169 -0.2849 -0.0280
18156W        W33965   4.837   8.736   4.790 -0.2322 -0.2806  0.2618
18157W        W33966   9.550   8.509   2.456 -0.1874  0.1808 -0.0674
18158W        W33967  12.128  10.678  13.155  0.2073  0.2897 -0.0030
18159W        W33968  10.847  18.140   1.447 -0.0905  0.5255  0.0234
18160W        W33969   1.036   4.793   5.218  0.0212  0.0079 -0.0574
18161W        W33970   8.088   4.130   0.170 -0.0330  0.3825 -0.2855
18162W        W33971  13.140   0.046  10.575  0.0914 -0.1449  0.2516
18163W        W33972  11.030   9.816   0.970 -0.1524 -0.0120 -0.0239
18164W        W33973   8.197   5.678   2.393 -0.3966 -0.0833 -0.2101
18165W        W33974   2.175   2.133  12.431  0.0465  0.5180  0.0093
18166W        W33975  16.507  12.839   2.707  0.0601 -0.0615  0.0721
18167W        W33976   6.461  14.642  11.204  0.0364  0.0874 -0.3382
18168W        W33977  15.374  16.803  14.271 -0.2766 -0.0563  0.1050
18169W        W33978   0.670   9.787   4.797  0.0096 -0.1698 -0.0748
18170W        W33979   4.747  13.976   4.136  0.3982  0.0339 -0.3464
18171W        W33980   2.090   7.397   0.286 -0.1515  0.0272  0.1121
18172W        W33981  16.023  10.022   4.994 -0.0938 -0.3824  0.2921
18173W        W33982  13.124  13.906   2.897  0.0677  0.1955 -0.3212
18174W        W33983   7.883   1.222   2.936 -0.1536 -0.0052 -0.3165
18175W        W33984  14.255   9.373  10.095 -0.0286  0.2039  0.2279
18176W        W33985  15.779  11.529   1.272  0.0952 -0.4548 -0.0859
18177W        W33986   3.121   5.695  15.140 -0.2003 -0.0652  0.3056
18178W        W33987  18.031   1.269   0.863  0.1904  0.2158 -0.3812
18179W        W33988  12.290  16.055  10.876 -0.1869  0.3123  0.3313
18180W        W33989   2.339   4.359  15.115  0.3681 -0.0884  0.1214
18181W        W33990   0.091  13.061   1.268 -0.0066  0.1363  0.1944
18182W        W33991  16.086  18.466   0.897  0.1482  0.2430  0.1460
18183W        W33992  13.832   4.085   4.794  0.0763 -0.1382  0.1447
18184W        W33993   1.688   4.511  11.816  0.2007 -0.0279 -0.1161
18185W        W33994   6.086  12.065   2.290  0.2657 -0.0926 -0.4076
18186W        W33995  18.040  16.555   1.959 -0.0482  0.0764  0.1011
18187W        W33996  13.835  15.263   5.503  0.0341  0.0541 -0.1281
18188W        W33997  15.579  14.001  15.651 -0.0523  0.0451 -0.2178
18189W        W33998  11.467  12.534  10.191  0.0953  0.0824  0.0804
18190W        W33999   9.503   9.574   0.949  0.0126 -0.0156  0.1026
18191W        W34000  12.292   0.817  12.326 -0.1792  0.0703  0.0078
18192W        W34001   5.748   6.446   3.656 -0.3196 -0.1911  0.2826
18193W        W34002  15.080  11.402  15.317  0.2304 -0.1759 -0.2993
18194W        W34003   6.539   1.723  10.917 -0.1231 -0.2818 -0.1744
18195W        W34004   9.902  12.683   5.593  0.0107  0.0693 -0.1448
18196W        W34005  18.068  15.571   4.740 -0.0328  0.0669  0.0478
18197W        W34006  12.831   9.117   4.893 -0.0167  0.1442 -0.0389
18198W        W34007   8.299  11.535   0.348  0.0710 -0.2128  0.0803
18199W        W34008   2.205   7.544  14.710 -0.1268  0.0279 -0.0252
18200W        W34009  18.509  10.918  15.611  0.0533  0.3089  0.1222
18201W        W34010  15.294   2.713  15.010 -0.0181  0.4298 -0.2859
18202W        W34011   2.422  16.941  11.018  0.0007 -0.1587  0.5158
18203W        W34012   2.903  13.430   5.333  0.2064  0.1172 -0.1729
18204W        W34013   2.048  14.495   4.673 -0.1629 -0.2408  0.1294
18205W        W34014  15.713  15.426  14.827  0.0887  0.2957  0.0422
18206W        W34015  15.331  18.207   4.071  0.1858 -0.1171 -0.0777
18207W        W34016   4.893   9.884  15.618 -0.1526  0.1801 -0.0544
18208W        W34017   5.380   0.413  11.821 -0.1365 -0.1093 -0.0599
18209W        W34018   1.447   4.392   1.638  0.1854  0.0183  0.0677
18210W        W34019  10.905   4.010  14.669 -0.2200  0.2204  0.0312
18211W        W34020   1.852  14.263   4.164  0.1024  0.1398 -0.0430
18212W        W34021  14.717   0.287  13.825  0.0318  0.1180 -0.1058
18213W        W34022   9.593  15.893   4.688  0.0051 -0.0068  0.0252
18214W        W34023  17.856  16.326  13.500  0.1140  0.1463  0.2401
18215W        W34024  13.823   3.997  14.175  0.0259 -0.1367  0.1836
18216W        W34025  16.027   2.401   5.516  0.0258 -0.1418  0.1179
18217W        W34026   3.186  15.758  10.479 -0.0978  0.0036  0.3806
18218W        W34027   7.119  10.794  13.825  0.0085  0.2103  0.0638
18219W        W34028   9.001  14.937  14.291 -0.3392 -0.1033 -0.0604
18220W        W34029  13.733   6.636  14.687 -0.0596 -0.3436  0.0969
18221W        W34030   9.087   7.361   4.800 -0.0516  0.0746  0.1941
18222W        W34031  17.415  10.990  15.263 -0.0084  0.0280  0.0261
18223W        W34032  13.804   3.880  15.176  0.0003 -0.1997  0.1372
18224W        W34033   7.379   6.031  13.268 -0.0400  0.2940  0.0543
18225W        W34034  14.267  12.447   4.988  0.4603  0.0554  0.3746
18226W        W34035  15.275   8.295  10.942  0.2902 -0.2073 -0.0761
18227W        W34036  10.111  18.470  10.347 -0.1836 -0.2047 -0.0525
18228W        W34037   3.091   4.543   0.930 -0.0626 -0.1474 -0.1468
18229W        W34038   4.070  16.141   0.367  0.0311 -0.3053 -0.0922
18230W        W34039  12.907   4.955  10.751 -0.2639  0.0487  0.0373
18231W        W34040   3.277  12.922   0.924  0.2216  0.2836 -0.0819
18232W        W34041  18.582   9.598   2.208  0.0872 -0.0079  0.1534
18233W        W34042  17.739  14.633  10.863  0.1813 -0.1345 -0.2564
18234W        W34043   4.246   2.839   1.591 -0.0867  0.5798  0.0201
18235W        W34044   8.428  10.844  12.481 -0.0537  0.2070 -0.0273
18236W        W34045  11.577  12.778   0.387  0.2190 -0.0769  0.1802
18237W        W34046  16.522  13.205   9.575  0.1955 -0.1244  0.1081
18238W        W34047  12.770   6.941  12.488 -0.0206  0.3431 -0.2131
18239W        W34048   5.376   7.919   1.252  0.0964 -0.0538 -0.0784
18240W        W34049   9.216  12.731  15.471  0.3135  0.2081 -0.1244
18241W        W34050   8.920   3.386   4.777 -0.0780  0.1787 -0.1131
18242W        W34051   3.679  13.125  15.260  0.0195  0.1866 -0.3207
18243W        W34052  17.557  10.255  11.741  0.1372  0.3182 -0.0002
18244W        W34053   7.954   2.981  10.958  0.1302  0.0451 -0.0400
18245W        W34054   2.229   6.910   0.577 -0.0061  0.1719  0.1578
18246W        W34055  12.269   9.605  13.920 -0.1575  0.3413 -0.1014
18247W        W34056   0.951  13.444   1.504 -0.4333  0.3124  0.0784
18248W        W34057  17.683  10.080  14.999 -0.1324  0.0003  0.4120
18249W        W34058  17.534  10.445  12.553  0.2680 -0.1649 -0.1064
18250W        W34059  15.253  12.306  12.775  0.0406 -0.2154  0.0480
18251W        W34060   3.674   0.917  11.290 -0.0129 -0.1918  0.0376
18252W        W34061   1.724   3.614  11.406  0.1915  0.0886  0.0783
18253W        W34062  15.644  10.030  11.918  0.2588 -0.0555  0.0703
18254W        W34063  12.537  17.461   4.278  0.1516  0.0615  0.0280
18255W        W34064   7.481  11.137  11.675  0.1729  0.0926  0.0737
18256W        W34065  15.491  17.385   4.055 -0.0001  0.0284  0.0415
18257W        W34066  11.342   6.567   2.910 -0.0032  0.1354 -0.3055
18258W        W34067  18.516  18.153   2.765  0.1999  0.3540  0.0596
18259W        W34068  16.436  14.032   2.098  0.2022 -0.2026 -0.1717
18260W        W34069  16.206  16.533   2.515 -0.2100  0.4034  0.0396
18261W        W34070  10.959   0.225  15.093 -0.0220  0.2472  0.3588
18262W        W34071   9.188  13.156  15.040 -0.3372  0.0065  0.0419
18263W        W34072   4.629   0.167  15.314 -0.2325 -0.0667 -0.2666
18264W        W34073  11.598   8.377  13.205 -0.4646  0.0261 -0.3001
18265W        W34074  16.822  15.894   5.353  0.2166  0.0977  0.1128
18266W        W34075   3.308  14.699  13.630  0.0617  0.2033 -0.1565
18267W        W34076   0.489  10.974   5.198  0.1550 -0.0156  0.1321
18268W        W34077   0.861   9.428  14.661 -0.0452 -0.1259  0.1630
18269W        W34078   7.592   5.264   3.508  0.0972  0.0550 -0.2820
18270W        W34079   4.237  18.553  11.585 -0.0475 -0.1483 -0.0606
18271W        W34080   2.337  12.917  14.214 -0.3597  0.3174 -0.2494
18272W        W34081   5.047  14.488  13.440  0.3270 -0.1393  0.1580
18273W        W34082   2.809   1.994   1.427  0.0825  0.0474 -0.1177
18274W        W34083   3.330   8.803  15.331  0.1399  0.2386 -0.0042
18275W        W34084  15.923  17.807  12.272  0.1606 -0.0972  0.1501
18276W        W34085  13.403  13.962  12.472  0.1118 -0.0892  0.1482
18277W        W34086  15.223   3.011   1.540 -0.2049  0.0576 -0.0915
18278W        W34087   1.290  16.113  10.921 -0.1962 -0.1938  0.0577
18279W        W34088  17.655   2.920  14.152 -0.1639 -0.0788  0.0665
18280W        W34089   6.489   6.473   0.260 -0.0699  0.2587  0.2974
18281W        W34090   7.008   6.847   1.242 -0.0581  0.1808 -0.2356
18282W        W34091  10.369  12.789  13.243  0.3328 -0.1747 -0.0554
18283W        W34092   6.042   5.939   4.968 -0.0136  0.2296 -0.1836
18284W        W34093   2.599  17.142   3.135  0.2167 -0.3606 -0.2524
18285W        W34094  12.640   7.893  12.922 -0.1367  0.1569  0.0467
18286W        W34095   2.897  11.067  12.706 -0.1514 -0.0486  0.0598
18287W        W34096  14.708  17.739   9.278  0.0335  0.1355  0.3780
18288W        W34097   3.539   8.329   5.505  0.2272  0.0450 -0.3008
18289W        W34098  17.067  14.277   3.480 -0.0405 -0.1777 -0.1557
18290W        W34099  13.158   5.217  12.042 -0.3859  0.0837  0.0278
18291W        W34100   3.305  10.319   2.448 -0.3679  0.3249  0.0086
18292W        W34101   6.795   5.764   3.855  0.1337  0.2628  0.1370
18293W        W34102   0.133   9.596  14.973 -0.1736  0.0814  0.2634
18294W        W34103   4.757   6.311   2.691  0.3627 -0.0252  0.0689
18295W        W34104   6.747  14.984  10.402  0.0240 -0.1243  0.0744
18296W        W34105   6.869   2.825  14.363 -0.2026  0.1325  0.2398
18297W        W34106   5.851   9.791   3.652  0.0543 -0.0015  0.1522
18298W        W34107  13.707   2.905  12.326 -0.1971 -0.0454 -0.0492
18299W        W34108   5.105  17.701   2.972 -0.0733 -0.0902 -0.2881
18300W        W34109  14.858  12.504   1.186  0.3730 -0.2932 -0.1506
18301W        W34110   6.824  16.437   1.867  0.2416  0.1354  0.1513
18302W        W34111   4.859   9.255   4.850 -0.1404  0.4472 -0.2596
18303W        W34112  15.208   9.620   4.183  0.5621  0.1490  0.2003
18304W        W34113   8.707  15.329  15.039 -0.1590  0.0605  0.1909
18305W        W34114   5.216  12.780   3.360  0.1407  0.0870  0.1985
18306W        W34115   6.539   2.973   4.835 -0.0254 -0.1265 -0.1919
18307W        W34116   7.364  17.885   5.673 -0.0872  0.1853 -0.2678
18308W        W34117   4.538  16.806  13.633  0.0999  0.0356  0.0763
18309W        W34118  11.736   6.889   2.996 -0.0036 -0.1127  0.0317
18310W        W34119  18.108   5.546  12.272 -0.2203 -0.1616 -0.1212
18311W        W34120  15.418  16.215  14.273  0.0283  0.0688 -0.0325
18312W        W34121  13.075   4.744  11.249 -0.1339 -0.0223 -0.2396
18313W        W34122  16.660  14.474   2.089  0.0134 -0.0061  0.1114
18314W        W34123  10.130  17.027   2.499  0.1786  0.0818 -0.2055
18315W        W34124  13.480   7.827  13.286 -0.1023 -0.1519 -0.3764
18316W        W34125  14.850  16.080   3.843 -0.0249  0.2836  0.3096
18317W        W34126  14.334  10.746   1.589  0.0242 -0.3416 -0.1864
18318W        W34127  15.028  18.142  12.336 -0.1815 -0.0168  0.1968
18319W        W34128   1.934  12.320  13.904 -0.3198  0.0462  0.0072
18320W        W34129   3.420   3.447  10.858  0.1056 -0.2155  0.2564
18321W        W34130   9.436   8.058   1.623  0.1617  0.4682 -0.0498
18322W        W34131   8.891   2.732   1.961 -0.1429 -0.0745  0.1355
18323W        W34132  10.775  11.843  13.588 -0.0626 -0.0197  0.3191
18324W        W34133   2.352   6.407  11.506 -0.0298  0.2053 -0.4775
18325W        W34134   0.208   9.902   0.215  0.3849  0.0437  0.2791
18326W        W34135   0.777   1.416   0.815 -0.1964 -0.1506  0.0129
18327W        W34136  17.200  15.587   5.272 -0.2189 -0.1920  0.0173
18328W        W34137   8.506   7.693  14.465  0.0014  0.0483 -0.0649
18329W        W34138   3.559   2.485  13.537 -0.0572 -0.1041  0.1157
18330W        W34139  14.497  11.225   0.915 -0.0695 -0.1111 -0.3460
18331W        W34140   0.091   2.861   1.639 -0.1642  0.1059  0.1559
18332W        W34141  15.151   0.800  11.937  0.2666 -0.1290 -0.3025
18333W        W34142   3.997  15.163  15.069  0.0449 -0.5271 -0.3043
18334W        W34143  10.122   0.483  14.263  0.1208 -0.0780  0.5118
18335W        W34144  13.275   9.212   1.771 -0.2650  0.3484 -0.1591
18336W        W34145  10.931  16.753   2.569 -0.0255 -0.3451 -0.1714
18337W        W34146  10.883  11.845   0.892  0.0896  0.0788  0.4208
18338W        W34147  11.081   4.520  13.803 -0.2580 -0.0401  0.1415
18339W        W34148   6.426   8.551   3.824 -0.0849  0.2790  0.1831
18340W        W34149  14.867   7.413  12.235  0.0130 -0.2136 -0.2598
18341W        W34150  14.279   0.270  13.230  0.1045  0.0748  0.0913
18342W        W34151   6.817   8.375   5.260  0.0521  0.1584  0.0928
18343W        W34152  16.220  16.625  12.937 -0.0375 -0.0743  0.0548
18344W        W34153  10.432  15.622  12.092 -0.1138  0.1648  0.2053
18345W        W34154  13.267   4.132   2.784  0.0273 -0.1903 -0.0100
18346W        W34155   8.484  12.699   1.406  0.0392  0.1081  0.1722
18347W        W34156   6.410  12.717   5.136  0.0775  0.1205  0.1223
18348W        W34157   2.996  10.078  12.983  0.0816 -0.0432 -0.0146
18349W        W34158  12.257   6.272  11.155 -0.1686  0.2581 -0.0057
18350W        W34159  11.298   3.689  14.615 -0.2255  0.0935 -0.0077
18351W        W34160   3.795  11.380   3.419  0.2036 -0.0625  0.2763
18352W        W34161  15.360  11.361  11.784 -0.1801 -0.0745  0.1556
18353W        W34162   3.086  14.763   1.694  0.0303  0.2125  0.2733
18354W        W34163  10.758  10.557  12.009  0.0986  0.0621 -0.1277
18355W        W34164   4.936   1.428  14.834 -0.0966 -0.2513 -0.1543
18356W        W34165  16.716  11.967  14.372 -0.1290  0.0870  0.0519
18357W        W34166  11.568   4.699   3.862  0.1910 -0.0342 -0.3819
18358W        W34167   5.119  15.709   0.331  0.1991  0.2145  0.1503
18359W        W34168   9.171  17.308   0.331  0.0876  0.1832  0.2476
18360W        W34169  18.483  12.958   3.453  0.2199 -0.3489  0.0709
18361W        W34170   6.478  17.882  12.244 -0.0844 -0.0073 -0.0874
18362W        W34171  10.045  11.377   0.303  0.0589 -0.3474  0.0920
18363W        W34172   4.749  12.645   3.587  0.0155  0.1551 -0.1626
18364W        W34173   8.355  12.603  15.020 -0.0741  0.2649  0.2883
18365W        W34174  14.010  12.432   0.935 -0.1733 -0.1548  0.0802
18366W        W34175  14.373  15.746   0.886 -0.2319 -0.1647  0.2326
18367W        W34176  13.933   2.852  10.482  0.0428  0.6005 -0.1828
18368W        W34177  14.193   9.016   5.078 -0.0652 -0.1548 -0.1487
18369W        W34178  10.392  15.084  11.310  0.1331 -0.1273 -0.0157
18370W        W34179   8.150  10.083   3.718  0.3501 -0.0059 -0.0843
18371W        W34180  13.874  14.922  15.375 -0.1186  0.6075  0.0007
18372W        W34181  17.522  11.746  13.383  0.2824  0.1734  0.0475
18373W        W34182   4.411  11.476   4.737  0.3814 -0.0582 -0.0794
18374W        W34183  17.700  18.226  13.635  0.4047 -0.1346  0.2883
18375W        W34184  12.800   9.359   0.601  0.0689  0.2249 -0.0166
18376W        W34185   0.092  12.060  12.980  0.4828  0.0706  0.0264
18377W        W34186  18.303  14.552   2.580  0.1374 -0.1886  0.1585
18378W        W34187   4.991   4.172   2.306 -0.0740  0.1735  0.0849
18379W        W34188  15.457  14.391  14.583 -0.2063 -0.0059 -0.0952
18380W        W34189  17.917   7.585  10.314  0.0652  0.1128  0.1330
18381W        W34190  16.500  12.965  15.545 -0.0542  0.1490 -0.0263
18382W        W34191  15.499  15.780  13.828  0.2680 -0.1861 -0.0989
18383W        W34192   7.625  11.850   4.600  0.2090  0.2032 -0.1086
18384W        W34193   1.469  12.449  13.122 -0.2408  0.5683  0.1044
18385W        W34194   5.783  13.438   2.812 -0.2253 -0.0176  0.3771
18386W        W34195  17.685  13.410  15.428 -0.3041 -0.2114  0.0300
18387W        W34196  16.126  17.568  13.490 -0.0835 -0.0246 -0.0111
18388W        W34197   1.600   2.932   2.060  0.3300 -0.1216 -0.0035
18389W        W34198  11.873   2.832  11.619 -0.1931 -0.3921  0.1539
18390W        W34199   0.665  15.116  14.414  0.0617 -0.0397  0.0920
18391W        W34200   8.730   9.273   3.562  0.0063 -0.0773  0.0792
18392W        W34201   6.325   7.760   0.408  0.2182 -0.1967 -0.4339
18393W        W34202   6.399   4.583  12.542 -0.0706  0.0966 -0.0902
18394W        W34203   5.190  13.896  12.647 -0.1815  0.2709  0.0657
18395W        W34204   9.993  16.864   4.996  0.1770  0.0826  0.1677
18396W        W34205  10.344   1.081  14.892 -0.0886 -0.1160 -0.0553
18397W        W34206  14.104  12.741  11.271  0.2824 -0.1753 -0.1797
18398W        W34207   1.025   5.611   3.825  0.0477  0.0167 -0.0065
18399W        W34208  18.080  16.909   3.457 -0.1180 -0.1814 -0.3215
18400W        W34209   8.245  10.821  11.553 -0.1010 -0.1094 -0.2009
18401W        W34210  16.298   7.505   1.254  0.1566  0.2502  0.0856
18402W        W34211  18.199  14.776  10.780  0.1639  0.0135 -0.0987
18403W        W34212   6.361  11.357  10.595 -0.1079 -0.4194 -0.0666
18404W        W34213  16.378   8.743  13.629 -0.1900  0.3676 -0.2020
18405W        W34214   5.228  14.766   1.838 -0.2156 -0.1656  0.3258
18406W        W34215  12.433  11.639  10.665 -0.1432  0.0992  0.0194
18407W        W34216  18.231   1.316  11.883 -0.3523 -0.0771 -0.2145
18408W        W34217  14.894  10.202   0.108 -0.0012 -0.0225 -0.2633
18409W        W34218  16.169   5.898  11.437 -0.2156  0.2329 -0.1785
18410W        W34219  17.903   5.702  13.804 -0.2013  0.0635  0.2802
18411W        W34220   0.878  11.948  11.830  0.2688  0.0152 -0.0201
18412W        W34221   3.572   0.445   5.336 -0.0289 -0.2133  0.0683
18413W        W34222  13.993   4.422  10.782 -0.1392 -0.0319 -0.0540
18414W        W34223   5.944   3.019   0.145 -0.3358 -0.1499  0.0859
18415W        W34224   1.477   4.007   2.875  0.0806  0.1872 -0.3334
18416W        W34225  13.165   9.083  13.260  0.1223  0.0742  0.3425
18417W        W34226   7.346   0.571  10.732  0.1008 -0.0738  0.0694
18418W        W34227   0.299   3.261   1.459 -0.0758  0.3952 -0.3664
18419W        W34228  12.958   9.514   3.439  0.1336 -0.1535  0.0220
18420W        W34229  15.044  15.079  11.741 -0.2163  0.0170 -0.0399
18421W        W34230   2.780   4.300  15.412  0.0336 -0.2405 -0.0985
18422W        W34231  18.009   2.698  10.911  0.1795 -0.0825  0.1560
18423W        W34232   1.073   3.894  10.117  0.0659 -0.0966  0.0050
18424W        W34233   4.172  15.728   0.034  0.0521  0.2743 -0.2297
18425W        W34234  16.354  16.970  15.253  0.1230  0.0354  0.1132
18426W        W34235  15.234   0.897  15.372  0.4220  0.2260 -0.1034
18427W        W34236  15.396  17.282  15.259  0.0230  0.2565  0.2125
18428W        W34237   1.966   6.153  12.201 -0.1259  0.1690  0.0455
18429W        W34238  15.708  10.534   1.687  0.0901  0.3432 -0.0208
18430W        W34239  14.460   8.611  15.276  0.0955  0.2285 -0.1175
18431W        W34240  13.638   5.887  14.674  0.0749  0.0057  0.1128
18432W        W34241  18.044   1.970   2.269 -0.0853 -0.1010 -0.0194
18433W        W34242   8.274  17.343   2.414 -0.3321  0.0710 -0.0510
18434W        W34243   6.243  13.281   1.003  0.1064  0.5106 -0.0922
18435W        W34244   2.142  11.410   1.571  0.0518  0.1300 -0.2156
18436W        W34245   3.231   2.163  13.129 -0.0387 -0.2054 -0.1157
18437W        W34246   9.096   4.433   4.944  0.2162 -0.1318 -0.1419
18438W        W34247  15.518  17.073  10.147  0.2678 -0.0165  0.0219
18439W        W34248   0.554   9.763   2.039  0.2746 -0.0716  0.1327
18440W        W34249   0.581   9.169   1.780 -0.3659 -0.0657  0.0180
18441W        W34250   1.773  16.114  12.900 -0.0619 -0.1968  0.1064
18442W        W34251  13.802   5.581  15.000 -0.2186 -0.2071  0.2748
18443W        W34252  10.922   6.848  13.301 -0.2114 -0.0648  0.1161
18444W        W34253  17.455   4.814   2.420  0.2485 -0.1067  0.0264
18445W        W34254   9.724  12.395   4.299 -0.3994 -0.1733  0.1909
18446W        W34255   1.503  17.454  12.720  0.2228 -0.0034 -0.1933
18447W        W34256   4.735  12.594  13.645 -0.1537  0.0923 -0.0730
18448W        W34257  14.512   1.586  13.318  0.0509  0.2428 -0.1447
18449W        W34258   1.339   2.938  12.364 -0.1607  0.2010  0.1465
18450W        W34259  17.060  10.078  13.327 -0.0601  0.2320 -0.0569
18451W        W34260  15.159  16.994   1.207 -0.0599  0.0651 -0.0050
18452W        W34261   0.447   7.452  14.689 -0.3064  0.0088  0.0114
18453W        W34262   3.422   1.545  14.672 -0.2287  0.4422 -0.0346
18454W        W34263  15.337   7.159  14.943 -0.2257 -0.0109  0.1684
18455W        W34264   5.813   9.790   4.464  0.1490  0.1351 -0.1240
18456W        W34265   8.090   5.214   3.689 -0.0561 -0.1138 -0.1150
18457W        W34266  13.241   7.482   1.515  0.2186 -0.0480  0.0017
18458W        W34267  10.882   9.512   1.862 -0.0144  0.2603 -0.1836
18459W        W34268  17.889  14.573  13.877 -0.2741 -0.0787  0.4584
18460W        W34269   3.219   5.539  13.756  0.2512 -0.2473  0.0780
18461W        W34270   8.152  12.106   3.966  0.0570 -0.0917 -0.2047
18462W        W34271   0.352   3.599  12.531 -0.0597 -0.0768  0.1003
18463W        W34272  10.488   5.010   1.575 -0.2922 -0.0220 -0.0591
18464W        W34273   7.530  10.249   3.186 -0.0590 -0.1229 -0.0005
18465W        W34274   1.481  16.595  12.927  0.0752  0.0037  0.1454
18466W        W34275  16.474   1.115   1.310  0.0834  0.2633  0.1452
18467W        W34276   6.058  11.794  14.935  0.1028  0.2535 -0.0101
18468W        W34277   7.452  12.381   0.724  0.2679 -0.0750  0.4224
18469W        W34278   6.092  17.566   0.066 -0.1892  0.3157 -0.2434
18470W        W34279   5.547  17.477  14.547  0.0329  0.1396 -0.0531
18471W        W34280  12.293   1.289  11.537 -0.1313 -0.0247  0.3808
18472W        W34281  11.723   8.192   4.741 -0.0162  0.3239  0.1328
18473W        W34282   4.998  11.219  11.712 -0.0693  0.0203 -0.0890
18474W        W34283  13.846   0.152   2.047 -0.1997  0.0057  0.3279
18475W        W34284   1.447  12.127  13.988 -0.1798 -0.1542 -0.0202
18476W        W34285   5.001   6.003   4.043  0.2651  0.3929  0.1636
18477W        W34286   0.782  15.120  11.314  0.1141  0.2098 -0.1671
18478W        W34287   4.741   2.992  14.484  0.1250 -0.0744  0.2644
18479W        W34288   2.867  12.483   4.496 -0.1788 -0.0914  0.2016
18480W        W34289   9.298   9.724   5.482  0.0834  0.2399  0.2368
18481W        W34290   5.019   6.221   2.261 -0.2234  0.4148 -0.2746
18482W        W34291   5.778  15.872  13.699  0.0767  0.0154  0.2580
18483W        W34292   9.839  13.296   1.522 -0.2911  0.1910 -0.2134
18484W        W34293  17.014   8.138   4.049 -0.2186  0.2250  0.1877
18485W        W34294   5.392   1.619  14.449 -0.0329  0.4720 -0.0512
18486W        W34295   7.458   1.592  13.789  0.0776 -0.2141 -0.0646
18487W        W34296  14.612  11.056  14.761  0.1607 -0.1274 -0.1651
18488W        W34297  11.987  10.513   2.337 -0.0045  0.0321 -0.0290
18489W        W34298  18.058  17.689   0.338  0.0948 -0.1988 -0.3145
18490W        W34299  10.370   2.559   5.435  0.0767 -0.0094 -0.0916
18491W        W34300  10.922  11.174   1.258  0.0070 -0.1846  0.1222
18492W        W34301  11.089   7.340   2.555 -0.1832  0.0320 -0.1480
18493W        W34302  11.575   0.677  11.674 -0.1100 -0.0599  0.1913
18494W        W34303   0.304  16.492   2.196 -0.2974 -0.0222  0.2170
18495W        W34304   4.409   7.461  14.461  0.0417 -0.3644  0.0543
18496W        W34305  13.216  18.219  11.301 -0.2219 -0.0726  0.1209
18497W        W34306  11.020   0.612  14.776 -0.1113 -0.0288  0.3028
18498W        W34307   7.494  17.757   0.243 -0.1102  0.0813  0.0188
18499W        W34308   6.882  14.707  12.814 -0.3300 -0.1816  0.3070
18500W        W34309  17.649   5.793  15.407 -0.2005 -0.2797 -0.2388
18501W        W34310   3.091   4.417  14.602  0.0497 -0.1461  0.1965
18502W        W34311  12.431   9.196  11.730  0.1778  0.2133  0.2050
18503W        W34312  12.998   9.738   3.881 -0.1399  0.2142  0.3547
18504W        W34313   4.782   0.016  12.381 -0.2201 -0.0382 -0.0829
18505W        W34314   2.434  13.986   0.700  0.0234  0.0897  0.1861
18506W        W34315  15.736  14.866   0.056  0.3184  0.1204 -0.1758
18507W        W34316   6.131   3.802  15.158 -0.0145 -0.1276  0.0093
18508W        W34317   0.232   4.094  11.698  0.2271 -0.1637 -0.1529
18509W        W34318   5.098   6.694  11.820  0.0298 -0.3491 -0.0854
18510W        W34319  10.462  15.051  15.275 -0.1148 -0.2927 -0.2115
18511W        W34320   7.071  13.639  15.544 -0.2650 -0.0324 -0.1753
18512W        W34321  14.436   5.340  13.344 -0.0274  0.1081 -0.3176
18513W        W34322   9.920  13.526   1.956  0.1388  0.1292  0.1972
18514W        W34323  12.043   6.838  14.666 -0.1632  0.0397 -0.0637
18515W        W34324  13.859  12.573   4.518 -0.4361 -0.1247 -0.1138
18516W        W34325   1.815   3.616   3.941  0.2142 -0.0578 -0.3038
18517W        W34326   6.626   9.185   1.713  0.0192 -0.2904 -0.0903
18518W        W34327   7.023   2.833  13.227 -0.0017 -0.1670 -0.2060
18519W        W34328   5.022  16.720   2.255 -0.0877 -0.1309  0.4175
18520W        W34329   3.235  18.147   4.501 -0.1504 -0.1143 -0.0744
18521W        W34330   0.595   4.570  13.671  0.2205  0.0554 -0.0855
18522W        W34331  14.936   7.362  15.546 -0.0418  0.3662 -0.4969
18523W        W34332   2.977   5.253   0.406  0.0153  0.1585 -0.2328
18524W        W34333   1.131   7.187   4.310  0.1219 -0.1422  0.0903
18525W        W34334  17.638   9.267  10.540  0.1218 -0.0045 -0.0921
18526W        W34335  15.294  15.224  10.959 -0.1401  0.1765  0.0578
18527W        W34336   4.942  11.132   4.128  0.2201 -0.0384 -0.1069
18528W        W34337   3.473  13.972  15.258  0.2685 -0.3231  0.1116
18529W        W34338  18.030  15.891  12.000  0.2395 -0.0297 -0.0268
18530W        W34339   8.804  14.763   4.488  0.0763  0.5727  0.2746
18531W        W34340  16.084  17.248   2.286 -0.0192 -0.1218  0.0806
18532W        W34341  11.335  18.333   1.231  0.0902 -0.2277 -0.0622
18533W        W34342   8.657   3.794  11.098  0.0662  0.0841 -0.0784
18534W        W34343  14.885  16.256   4.914 -0.4308  0.2086  0.2094
18535W        W34344   4.620   5.402  13.120 -0.2265 -0.0482 -0.3045
18536W        W34345  10.552  18.246   0.150  0.0349  0.2193 -0.0071
18537W        W34346   3.855   8.692  14.022  0.0776 -0.2196 -0.0148
18538W        W34347  18.123  12.695   1.903  0.3318 -0.1165  0.0174
18539W        W34348   8.901  12.125  13.123 -0.3255  0.1770  0.0518
18540W        W34349  18.576   6.629   3.793 -0.1167 -0.1585  0.1116
18541W        W34350  10.656   8.678   1.966 -0.1806 -0.2754  0.3383
18542W        W34351  12.928  16.771  10.017 -0.2267 -0.3057 -0.1456
18543W        W34352   0.163   3.918  12.168  0.1967 -0.0926 -0.1474
18544W        W34353   8.433   5.413   0.372 -0.0270 -0.2015  0.0540
18545W        W34354  17.712  16.314  15.457 -0.0555 -0.1945  0.1096
18546W        W34355  17.819  10.751  14.957  0.1397  0.1228 -0.1184
18547W        W34356  10.509  10.163   0.516  0.6713 -0.0673  0.1827
18548W        W34357   0.178   9.086   2.272 -0.2813  0.0194  0.1126
18549W        W34358  15.076   0.918  12.497  0.0202 -0.0344  0.1528
18550W        W34359  11.654  12.280   2.403 -0.0712  0.2209 -0.1439
18551W        W34360  11.799   8.004  14.147  0.2241 -0.0140  0.0428
18552W        W34361   5.275   2.725  15.328  0.2071 -0.2071  0.1161
18553W        W34362   5.692   6.305   5.021  0.0430  0.1945  0.1598
18554W        W34363   8.362   0.544  15.038 -0.1346  0.1967 -0.0524
18555W        W34364  11.938   9.564   1.997  0.3477  0.0939 -0.3956
18556W        W34365   2.039   1.561   2.418  0.3074 -0.0119  0.4264
18557W        W34366  13.852   3.082   4.953  0.1943 -0.0152 -0.2208
18558W        W34367   5.302  12.318  10.873  0.4028  0.0920 -0.0288
18559W        W34368  15.408   5.943   3.423 -0.0556  0.0923  0.0818
18560W        W34369   2.245  17.474   4.944  0.0246 -0.1218 -0.0202
18561W        W34370  17.214   7.986   1.106  0.3477 -0.1806  0.1401
18562W        W34371   7.353  14.823  13.259  0.1937 -0.4073 -0.0472
18563W        W34372  10.199   1.060   4.143  0.0198  0.0458 -0.1525
18564W        W34373  10.388   9.631   2.746 -0.1292 -0.7034 -0.2696
18565W        W34374   7.211   9.906  10.868  0.1313 -0.0977  0.1897
18566W        W34375   4.265   0.043  14.327  0.3608 -0.2842 -0.1516
18567W        W34376  14.890   5.213  14.227  0.2119  0.1701  0.1856
18568W        W34377  11.349  14.199  11.175  0.0438 -0.2901 -0.0519
18569W        W34378  16.681  18.260   3.802 -0.2889 -0.1806  0.2591
18570W        W34379  10.156   5.964   1.282  0.1991  0.1535 -0.0114
18571W        W34380   5.566   0.037  12.955 -0.3779  0.2180  0.1319
18572W        W34381   7.498   9.273  14.752  0.0652  0.0407  0.1627
18573W        W34382  11.378   1.276   2.790  0.1939 -0.1188  0.2171
18574W        W34383   5.631   0.597  14.066 -0.0929 -0.2466 -0.3265
18575W        W34384  11.077  17.543   0.796  0.1153  0.0532 -0.1980
18576W        W34385   8.266  17.851  11.457  0.0924  0.2369  0.1536
18577W        W34386   2.422   2.828  14.347 -0.2011 -0.2836  0.0331
18578W        W34387  15.824  18.082   3.668 -0.2307  0.0716 -0.0102
18579W        W34388  16.993   9.410  12.063  0.3285 -0.1893  0.0981
18580W        W34389  14.440  10.056  15.590 -0.0683 -0.0246  0.1745
18581W        W34390   4.673  10.537  12.224  0.0308  0.3769 -0.6539
18582W        W34391  15.926  11.397  11.984  0.3105 -0.0614 -0.1648
18583W        W34392   7.512  15.874   4.614 -0.0741 -0.1013  0.0613
18584W        W34393  10.466   0.558  12.835  0.0519  0.2486  0.0944
18585W        W34394  16.528  15.505   3.933  0.0380  0.0389 -0.0088
18586W        W34395   5.781  17.020  14.366  0.2810 -0.0011 -0.3475
18587W        W34396   1.701   5.717  15.252 -0.0009  0.2220 -0.0982
18588W        W34397   7.312  17.253  11.819 -0.1021  0.0592 -0.0783
18589W        W34398   3.255   1.635  13.282 -0.1861 -0.2400 -0.2273
18590W        W34399  14.572   0.245  15.535  0.0767 -0.3212  0.0007
18591W        W34400  15.257   2.325  12.888 -0.4726 -0.0048 -0.1698
18592W        W34401   4.307   9.672   1.959 -0.0539 -0.0460  0.2489
18593W        W34402  11.660  17.510   3.960 -0.0488 -0.0401 -0.1394
18594W        W34403   7.000  15.406   1.662  0.0531  0.0757  0.1050
18595W        W34404   6.503   3.688   0.373 -0.0132  0.0418 -0.0888
18596W        W34405  17.388   7.290  14.375 -0.1392 -0.0210  0.2532
18597W        W34406   8.849   3.534   5.616 -0.1163 -0.2955 -0.0505
18598W        W34407  13.709   5.412  11.570  0.3972  0.0548  0.0471
18599W        W34408  12.704   9.298   1.550 -0.2654 -0.2706  0.0818
18600W        W34409   7.838   1.215  12.824  0.2293 -0.0630  0.2565
18601W        W34410   7.866   9.539  13.159  0.0292  0.1255  0.0342
18602W        W34411  15.437  16.009  11.317 -0.1439  0.0390  0.3163
18603W        W34412   3.727   1.300  12.639  0.0215  0.2435  0.3390
18604W        W34413  13.807  13.869   4.513  0.0455  0.0635 -0.0096
18605W        W34414   9.699   6.802   5.894  0.0779  0.4431 -0.0804
18606W        W34415  15.217  17.184   3.220 -0.3001  0.1448 -0.5368
18607W        W34416   5.166   1.132  11.108  0.3082 -0.2990  0.0046
18608W        W34417   0.427  17.870  14.196 -0.1356  0.2048 -0.1376
18609W        W34418   3.313  11.090  12.223 -0.0894  0.0348  0.0056
18610W        W34419  12.907  12.804   1.538  0.1125  0.1494  0.1173
18611W        W34420  13.619  17.499  10.195  0.0093  0.0996  0.0035
18612W        W34421  10.816   9.218  13.800  0.0994  0.1035  0.0189
18613W        W34422   0.366   9.154   2.757 -0.1840  0.0962 -0.0364
18614W        W34423   6.524   9.550   0.046 -0.2380  0.2148  0.0568
18615W        W34424   1.553   4.488   0.676  0.1694 -0.0344 -0.0523
18616W        W34425   2.965  10.579  13.374 -0.1868  0.1824 -0.0423
18617W        W34426  12.767   8.796  13.435 -0.0948  0.0338  0.0523
18618W        W34427   2.866   4.343  13.735  0.0528  0.0120 -0.0126
18619W        W34428  15.162   2.715  14.121  0.1472 -0.0978 -0.0430
18620W        W34429  13.499  17.356  11.605 -0.1596  0.1491 -0.0514
18621W        W34430  18.006   4.862  13.582  0.3017  0.0437  0.2305
18622W        W34431   3.784  13.001   4.272 -0.0434  0.4516  0.2453
18623W        W34432  14.374  17.803  14.720  0.2128  0.1677 -0.0873
18624W        W34433   4.459   1.253   0.439  0.0901  0.0365 -0.1367
18625W        W34434   8.099  12.681   4.560 -0.1734  0.2424 -0.1804
18626W        W34435  10.240   9.553  15.722 -0.2481  0.1837 -0.1100
18627W        W34436  14.896  12.618   3.767 -0.4654  0.0737 -0.0467
18628W        W34437   6.995  10.473   3.260 -0.1048  0.1030 -0.1272
18629W        W34438   5.716   0.392   0.924 -0.1506  0.0780 -0.0823
18630W        W34439  11.986   0.093  13.577 -0.1629  0.3959 -0.0162
18631W        W34440   6.705   7.420   5.167  0.0025 -0.1418  0.1307
18632W        W34441   6.643   1.983   0.720  0.1080  0.3835  0.1690
18633W        W34442   4.718  16.973   1.787 -0.2755  0.3132 -0.2364
18634W        W34443   1.398   2.271   5.146  0.1015  0.1161  0.2524
18635W        W34444   8.235   1.520  11.820  0.0851 -0.1335 -0.0782
18636W        W34445  17.762   6.746   0.977 -0.2631 -0.1865  0.0479
18637W        W34446  11.114  17.237  11.383  0.0062 -0.2541 -0.1398
18638W        W34447   3.194  15.569  11.008  0.1816 -0.1408 -0.1719
18639W        W34448   0.421   8.555   2.544 -0.2883  0.0502 -0.1585
18640W        W34449  14.262  13.990   0.890  0.3035 -0.1646  0.0575
18641W        W34450  13.788  11.937  14.175  0.2752  0.1541 -0.0875
18642W        W34451   0.158   5.074   0.018 -0.0460 -0.2805  0.1786
18643W        W34452  14.154   5.881   4.417 -0.1950 -0.1206 -0.0958
18644W        W34453   6.324   0.693   5.244  0.3582 -0.2170 -0.2468
18645W        W34454   2.823  15.617  14.349  0.1708  0.0334  0.2930
18646W        W34455   2.966  10.511  14.504  0.2892  0.0320  0.0135
18647W        W34456  10.149   4.105   2.891 -0.1116  0.3990  0.2302
18648W        W34457   1.663  16.033   5.302 -0.0827  0.0030  0.0655
18649W        W34458  11.640   0.562   0.788 -0.2807  0.1879  0.1968
18650W        W34459  12.623   2.483   5.367 -0.0550  0.0309  0.1069
18651W        W34460  17.737   8.281   3.012  0.3825  0.1994 -0.1412
18652W        W34461   6.920   3.862  11.871  0.1660  0.0028 -0.1361
18653W        W34462  16.775   9.966   0.843  0.1028  0.2069 -0.0796
18654W        W34463  16.544   1.871   3.074 -0.0309 -0.2778  0.1087
18655W        W34464  17.842   3.686  15.674 -0.0530 -0.1213 -0.0189
18656W        W34465   9.785   4.175   9.931  0.0215  0.0463  0.1318
18657W        W34466  12.039  18.637  12.794 -0.1754  0.2013 -0.0320
18658W        W34467   2.696  18.629  12.288 -0.2205 -0.1194 -0.1421
18659W        W34468  10.720  16.366  11.209 -0.2408  0.0220 -0.1537
18660W        W34469   5.472   3.254   2.050 -0.3114 -0.1286  0.0495
18661W        W34470  11.996  10.175   1.917 -0.1979 -0.0221 -0.3197
18662W        W34471  11.480  17.808  13.347 -0.0541 -0.0734 -0.1651
18663W        W34472  10.178  11.437   2.873 -0.0146  0.0281  0.0577
18664W        W34473   8.128  10.448   2.425 -0.2375 -0.1894 -0.2187
18665W        W34474   6.917  12.168  13.508  0.0257 -0.1486  0.1035
18666W        W34475  12.020   3.428  13.271  0.2206  0.0342  0.1297
18667W        W34476   3.505  10.343   4.502 -0.1740  0.0793 -0.1406
18668W        W34477   4.010  10.070   4.495  0.1800  0.0833 -0.0228
18669W        W34478  11.186  15.042  10.641 -0.1275  0.1249 -0.3092
18670W        W34479  10.356   5.275  14.353  0.1794  0.1231  0.2704
18671W        W34480   3.890  15.088   3.439  0.1254 -0.0505  0.2323
18672W        W34481   6.475   1.029   0.979 -0.0036  0.0937 -0.2970
18673W        W34482  15.642   8.083   3.667 -0.0289  0.0691  0.0494
18674W        W34483   6.772  15.483   3.093 -0.0278 -0.2290  0.1108
18675W        W34484   4.733  17.935   3.186  0.1900  0.0458  0.3477
18676W        W34485  13.461   5.966  13.551  0.0044  0.1642  0.0974
18677W        W34486   9.461   9.024   9.875 -0.0154  0.1671  0.1083
18678W        W34487  11.357  12.908  13.922  0.0778  0.0141  0.1928
18679W        W34488  11.685   6.944   0.968 -0.0194 -0.1610 -0.0184
18680W        W34489   3.792  16.767  14.225  0.0185 -0.0726  0.1040
18681W        W34490  16.763  18.373   0.078 -0.1699 -0.3845  0.1857
18682W        W34491   4.161  11.843   2.126 -0.1868 -0.1037  0.0978
18683W        W34492  18.414   8.652   5.373 -0.4380 -0.0565  0.1422
18684W        W34493   5.575   2.165   1.948  0.2884 -0.2343  0.1087
18685W        W34494   6.675  18.186  14.488  0.0954  0.3569 -0.1566
18686W        W34495   6.540   8.607  13.458 -0.0529 -0.1880 -0.3576
18687W        W34496  15.240   4.642   2.641 -0.3935  0.2319 -0.2654
18688W        W34497  12.584  17.812  12.144  0.3760 -0.2670  0.1620
18689W        W34498  16.583   1.978  11.067  0.2403 -0.1820  0.0433
18690W        W34499  16.491  13.922  12.832  0.1581  0.1911 -0.0941
18691W        W34500   1.121  14.689  14.506  0.1248 -0.1168  0.2994
18692W        W34501   7.661  18.068   3.098  0.2088 -0.0618  0.3645
18693W        W34502  14.930   7.973  14.672  0.1678  0.0273 -0.0647
18694W        W34503   3.992  18.307   3.424 -0.2858  0.4251  0.0303
18695W        W34504   8.045   2.212  11.764 -0.2311  0.2300  0.2008
18696W        W34505   8.582   0.343  12.457  0.0869 -0.0533  0.2524
18697W        W34506  16.184  14.306  13.817 -0.0390 -0.1045 -0.2280
18698W        W34507  16.317  10.239  15.146 -0.0662 -0.1798  0.0657
18699W        W34508   7.905   6.440   1.142 -0.1088  0.1974  0.1371
18700W        W34509   5.919  17.047  15.685 -0.1535 -0.2822 -0.0093
18701W        W34510   8.126   6.803   4.940  0.1817 -0.2300  0.1973
18702W        W34511  15.202  16.145  14.832 -0.0112  0.3497  0.4416
18703W        W34512  11.970   7.085  13.247 -0.3240  0.1732  0.1933
18704W        W34513   6.216  12.425   3.051 -0.1214  0.3056 -0.1169
18705W        W34514  11.573   4.065  14.425 -0.2097 -0.3477  0.2465
18706W        W34515   0.386   6.465  12.075 -0.0428 -0.4618 -0.0006
18707W        W34516   1.474   7.762   5.092  0.0529 -0.0980  0.0022
18708W        W34517   1.522  10.200  11.158  0.0163  0.0938  0.0325
18709W        W34518   2.419  10.780  14.550 -0.1686  0.1066 -0.2858
18710W        W34519   3.931  18.066   1.991  0.0047  0.1649  0.0143
18711W        W34520  17.252  15.962   4.421 -0.0149 -0.2723  0.0030
18712W        W34521   8.294  17.195  11.084  0.1101  0.0416  0.1608
18713W        W34522   6.296  17.980  12.741 -0.1786 -0.0210  0.2393
18714W        W34523   4.556   8.705  13.922  0.1096 -0.2707 -0.2158
18715W        W34524   1.139  18.467  15.372 -0.2084 -0.0632 -0.0345
18716W        W34525   9.140   3.104   9.931 -0.0725  0.0610 -0.1645
18717W        W34526  16.523   0.991  12.470 -0.1406  0.2347 -0.0629
18718W        W34527  17.656   1.231  11.009 -0.0568  0.1706  0.2548
18719W        W34528   0.085   7.571  15.574 -0.2546 -0.0711 -0.0984
18720W        W34529  16.765   9.611  11.653 -0.0019 -0.2272  0.1870
18721W        W34530  10.148  13.038  10.854 -0.0263 -0.0766  0.1194
18722W        W34531   0.795   1.131   4.656 -0.1176  0.2675  0.0813
18723W        W34532  10.409  11.369  11.965  0.2345 -0.0104 -0.2001
18724W        W34533  17.036   1.586  15.468 -0.0968  0.3659 -0.1079
18725W        W34534  14.299   0.619  10.893 -0.1637  0.0680  0.1536
18726W        W34535   7.700   1.589   0.790  0.1591  0.0046  0.0993
18727W        W34536   5.380  13.460  14.473 -0.0160  0.2360 -0.2679
18728W        W34537   5.200   9.673  12.282 -0.2519 -0.1314 -0.0437
18729W        W34538   7.888  17.624  14.674  0.0164  0.1825  0.3226
18730W        W34539   8.025  12.622   0.125  0.2621  0.2970 -0.1397
18731W        W34540   9.539   4.910   4.655  0.0211  0.0458  0.1790
18732W        W34541  16.841   6.929  13.806 -0.3018 -0.0451  0.1884
18733W        W34542  13.744   8.542  13.709 -0.1021  0.0233  0.1980
18734W        W34543  12.585  14.766  14.328 -0.5438 -0.2458 -0.1817
18735W        W34544  12.045  12.562  12.287 -0.0303 -0.0420  0.0827
18736W        W34545  18.057  18.426  13.299 -0.0203  0.3904 -0.0012
18737W        W34546  14.629  16.981   3.949  0.1277 -0.3161 -0.0334
18738W        W34547  11.707   1.361   3.152  0.2177  0.3043  0.0563
18739W        W34548  13.729   7.094   0.578 -0.3984 -0.2060  0.3765
18740W        W34549  16.803  14.974  10.378 -0.0411  0.1883  0.2105
18741W        W34550   0.103   6.903   1.559 -0.0708  0.1097 -0.0327
18742W        W34551   1.091  10.094  13.972  0.2024 -0.1316  0.3360
18743W        W34552   8.807  10.738   2.324  0.0675  0.1865 -0.0523
18744W        W34553  15.059   9.036  13.634 -0.2745  0.2126  0.1558
18745W        W34554  16.394  11.788  13.504 -0.1266  0.3439  0.1903
18746W        W34555  10.513   1.053   2.913 -0.0347 -0.2864  0.2088
18747W        W34556   7.620   3.452  14.661  0.1519 -0.2298 -0.0961
18748W        W34557   3.472  15.112  13.173  0.2552  0.1264  0.1492
18749W        W34558   0.415   0.340   5.089 -0.0558 -0.0412  0.0751
18750W        W34559   3.764   4.217  12.017 -0.0982 -0.1458  0.3644
18751W        W34560   2.210   6.464   0.185  0.0153  0.0129  0.1772
18752W        W34561   3.168   8.825   6.109 -0.2010 -0.0225  0.0936
18753W        W34562  15.637  12.672   2.758 -0.2796 -0.0181 -0.1201
18754W        W34563  16.081   8.813   6.192  0.2818 -0.0260 -0.1099
18755W        W34564   3.256   0.037   4.564  0.2666 -0.2434  0.0632
18756W        W34565   6.729  12.700   0.878  0.0736 -0.1787 -0.2582
18757W        W34566  11.389  10.085   4.357 -0.0433  0.1118  0.1252
18758W        W34567   5.808   0.629   3.346  0.1296  0.0113  0.0779
18759W        W34568   3.279  12.896  13.638  0.3004  0.0779  0.2096
18760W        W34569  10.776  16.924  12.007  0.0213  0.2629  0.0372
18761W        W34570   6.676  17.458  10.659 -0.0743  0.1038 -0.0209
18762W        W34571  13.343   4.640  11.671 -0.0018  0.0834  0.3304
18763W        W34572   2.547  13.292   3.314  0.2249 -0.0404  0.1663
18764W        W34573   6.768   4.925  13.313 -0.2323  0.0505  0.1305
18765W        W34574  17.770  17.620   1.801  0.1904 -0.0648 -0.3139
18766W        W34575   9.240  13.090  13.021 -0.1450  0.1733  0.0571
18767W        W34576  14.747   2.948   0.860  0.2388  0.1174  0.0601
18768W        W34577   9.632  11.372   1.502 -0.1609 -0.3928 -0.0689
18769W        W34578  10.141   0.464  11.867  0.0722  0.1087  0.2781
18770W        W34579   3.936  10.035  12.675  0.3272  0.3181 -0.2705
18771W        W34580   9.761   6.549   2.560  0.0311 -0.0452 -0.2671
18772W        W34581   8.460   1.607  13.727 -0.1234 -0.1662 -0.1037
18773W        W34582   2.239  14.528   2.012  0.5197 -0.3127  0.0262
18774W        W34583  17.458  14.673   2.180 -0.0963 -0.1127  0.1045
18775W        W34584  18.087   0.428  15.082  0.3235  0.4525  0.1432
18776W        W34585   5.740   4.640  14.294  0.2120 -0.3352 -0.2243
18777W        W34586   5.102  16.727  12.832  0.1952 -0.1040 -0.0270
18778W        W34587  18.100   9.643   2.378  0.0134 -0.0878  0.2811
18779W        W34588  10.949  18.559  13.808  0.3277 -0.2976  0.0574
18780W        W34589  11.347  18.571  15.237 -0.2199  0.3113  0.3136
18781W        W34590   1.639   5.469  14.810 -0.3401  0.1243  0.0175
18782W        W34591   2.381   0.236  15.428 -0.1695 -0.2102 -0.2167
18783W        W34592   7.705   7.250   2.373  0.1358  0.1613  0.1140
18784W        W34593   1.697   8.778  13.771  0.2397 -0.1016  0.1760
18785W        W34594   9.976  11.661  11.949 -0.1041  0.0365  0.0774
18786W        W34595  17.622   4.728  13.883 -0.3594  0.0125 -0.1412
18787W        W34596  14.251  13.854   3.958  0.3000  0.0965 -0.3204
18788W        W34597   7.150  13.978  15.208  0.1327 -0.3450 -0.1966
18789W        W34598  12.619   5.747  11.103 -0.2085 -0.0954  0.1057
18790W        W34599   5.756  12.881  14.428 -0.0576  0.2595 -0.0521
18791W        W34600   6.774  12.189  14.469  0.2155  0.0731  0.2394
18792W        W34601   4.630   7.308  13.490  0.0881  0.0980  0.1096
18793W        W34602   3.042  13.986  13.946  0.1409 -0.0013  0.3219
18794W        W34603  16.031   6.006  12.681  0.2585  0.2513 -0.0397
18795W        W34604   3.772   9.416  15.156  0.0594  0.2388  0.0802
18796W        W34605   5.468   3.263   0.322 -0.2789  0.3813 -0.5372
18797W        W34606   9.460  11.484  11.001  0.1413 -0.1057  0.1319
18798W        W34607   7.593  15.934   4.093  0.1602 -0.2695 -0.1865
18799W        W34608   0.950   5.285   2.482  0.1652 -0.2594  0.0189
18800W        W34609   1.506   5.525  13.312  0.0375  0.0757 -0.0013
18801W        W34610   5.899   1.750  13.701 -0.0540  0.3685  0.1448
18802W        W34611  17.935  13.922   3.841 -0.1730  0.0231  0.2306
18803W        W34612   6.411   6.336   3.021 -0.0792  0.1110 -0.0618
18804W        W34613  15.222  15.189  10.366  0.0682 -0.2066 -0.2523
18805W        W34614  15.601  17.499   3.050  0.0459 -0.0542 -0.0890
18806W        W34615   8.718   3.956   1.574  0.2440 -0.0803 -0.1974
18807W        W34616   6.972   5.303   5.784  0.1968 -0.1983  0.1136
18808W        W34617  14.434  12.769  10.823 -0.0909 -0.2314 -0.0849
18809W        W34618  18.084   9.339   3.481 -0.1067 -0.0439 -0.4336
18810W        W34619  10.128  10.632  10.942  0.3469  0.0797 -0.0779
18811W        W34620  15.255  18.489  13.761  0.0621 -0.0530 -0.2263
18812W        W34621   7.101  11.050   0.070  0.0598 -0.0677  0.4612
18813W        W34622   5.634   5.060  11.584 -0.0328 -0.3266  0.1713
18814W        W34623   7.160  12.003   3.207  0.1857 -0.0792 -0.2209
18815W        W34624   7.089  12.240   2.721  0.1830 -0.0228  0.3443
18816W        W34625   7.370  15.686   0.432  0.0637  0.0019 -0.1172
18817W        W34626   4.870   5.551   3.841 -0.3097 -0.0974  0.2374
18818W        W34627  11.435  10.294   2.587  0.1690 -0.0113  0.0083
18819W        W34628   3.332  10.189  12.302  0.3428 -0.0266 -0.1493
18820W        W34629  14.987  15.076   2.828  0.0067  0.1182  0.4713
18821W        W34630  17.692  13.503   1.884 -0.1145 -0.2899  0.1621
18822W        W34631   2.626  14.450  14.821 -0.2106  0.1437 -0.2857
18823W        W34632  14.523  14.629   2.568  0.0627 -0.1637 -0.2425
18824W        W34633  16.341  17.232  13.225  0.5049  0.2176  0.3884
18825W        W34634  15.425   2.988  11.243  0.1285 -0.2999 -0.0587
18826W        W34635   2.755   4.096   5.022  0.1190  0.0888 -0.3593
18827W        W34636   7.738   1.260   3.439 -0.1488 -0.1298  0.1257
18828W        W34637   3.342  17.982  15.181  0.0175  0.0697 -0.0113
18829W        W34638   9.900   2.607   1.640  0.3872 -0.1356 -0.2091
18830W        W34639   0.688  15.037   2.039  0.3203  0.0655 -0.0438
18831W        W34640   8.854   2.613  14.020  0.0138 -0.0657 -0.1609
18832W        W34641  12.494   9.281  13.582 -0.5492  0.0675 -0.1551
18833W        W34642  10.364   3.397  15.007  0.3621  0.1653 -0.0357
18834W        W34643  13.255   8.829   4.595  0.0750  0.2411  0.1143
18835W        W34644   5.257   9.132   0.585  0.1302  0.2200  0.0809
18836W        W34645  14.839  12.589  13.117 -0.3293  0.0163  0.2287
18837W        W34646  17.068   2.853  11.863 -0.3028 -0.0146 -0.2759
18838W        W34647  13.097  16.316   1.768 -0.1209  0.0289 -0.0125
18839W        W34648   8.322   0.490  12.964 -0.2236 -0.4366  0.0708
18840W        W34649   8.107   0.286   5.104 -0.0052 -0.3203 -0.0022
18841W        W34650   3.363   2.256  11.926  0.2811 -0.3904  0.0128
18842W        W34651  15.823   8.885   4.355 -0.0718  0.0662  0.0386
18843W        W34652   0.212  17.606  12.398 -0.0965  0.1415 -0.1360
18844W        W34653  11.718   9.970  13.785  0.4298 -0.0302 -0.0440
18845W        W34654   5.561   9.307   4.286 -0.3543 -0.1707 -0.1072
18846W        W34655  11.518   2.228   0.900  0.1252  0.2800 -0.1992
18847W        W34656   4.397  15.154   3.386 -0.1043  0.0217  0.0943
18848W        W34657  13.224  11.257   4.438 -0.0122 -0.0046  0.1660
18849W        W34658   9.450  16.648  13.777  0.0492  0.0035  0.2706
18850W        W34659  11.061  15.007  12.403 -0.0356  0.0200 -0.0810
18851W        W34660   8.820  13.176   1.586  0.0722 -0.3167  0.0704
18852W        W34661  13.122  17.555  11.341  0.1951  0.1599 -0.2688
18853W        W34662   4.755   5.408  15.715 -0.1679  0.0346  0.0644
18854W        W34663  14.040   8.614   0.110 -0.2120  0.0169  0.5730
18855W        W34664   0.334   2.538  13.441 -0.1999  0.1070 -0.0334
18856W        W34665   8.988   6.871  12.941  0.1819  0.0298 -0.1005
18857W        W34666  11.126   5.727   4.778 -0.3809  0.2224 -0.2265
18858W        W34667   5.848   8.678  14.779 -0.0608 -0.4501  0.0437
18859W        W34668   8.130  16.014  14.920 -0.1576 -0.4767  0.0667
18860W        W34669  15.647  12.474  15.639 -0.0347  0.1133 -0.1865
18861W        W34670  14.777  18.613   2.236 -0.0214  0.3439 -0.2504
18862W        W34671   7.271   7.330  13.540  0.0381 -0.2921 -0.3272
18863W        W34672  18.177  14.609  10.255 -0.0099 -0.2528 -0.1882
18864W        W34673  17.589   0.213   0.172 -0.2151  0.2444  0.2336
18865W        W34674   2.873  15.190   4.684  0.3009  0.2390  0.0435
18866W        W34675  10.416   9.601   2.083  0.0443  0.1679 -0.0386
18867W        W34676  10.804  11.476  14.825  0.0773  0.1729 -0.1953
18868W        W34677  15.882  11.322   0.263 -0.0856 -0.2603  0.1995
18869W        W34678  18.464   0.012  14.191  0.2830  0.0699 -0.1504
18870W        W34679  16.104   5.386   3.886 -0.0850  0.1039  0.4403
18871W        W34680  10.687   3.570   0.897 -0.1006 -0.0374 -0.0906
18872W        W34681  11.190   4.179  12.688  0.3233 -0.0999  0.1232
18873W        W34682   7.958  18.619  13.449 -0.0233 -0.2292 -0.2112
18874W        W34683  12.094   9.922   3.628  0.2064 -0.0119 -0.0644
18875W        W34684  18.238  17.331  11.908  0.3592 -0.2774  0.0311
18876W        W34685   6.637  11.344  13.246  0.2276  0.1342 -0.2125
18877W        W34686   4.672   9.023  12.645 -0.1475 -0.0114  0.1840
18878W        W34687   7.513   9.057   3.365 -0.0738  0.1418  0.1703
18879W        W34688  17.176   0.344   2.388 -0.3184  0.1601 -0.1572
18880W        W34689   7.774  13.680   2.761 -0.2010  0.0732  0.2649
18881W        W34690  10.115   1.414  13.830 -0.1632 -0.0851 -0.2472
18882W        W34691   1.352   4.672  15.065 -0.3309 -0.0776 -0.2459
18883W        W34692   3.893   2.611  15.460 -0.2076 -0.0567 -0.0138
18884W        W34693  15.614  11.779  14.416  0.0460 -0.0234 -0.1768
18885W        W34694  12.548   6.937   2.647 -0.1225  0.2127 -0.0550
18886W        W34695   2.153  11.180   5.813 -0.2379  0.0584 -0.1000
18887W        W34696  16.398   3.264   4.932 -0.1600 -0.3248  0.0683
18888W        W34697  17.570  11.853   1.777  0.0863  0.0135 -0.0006
18889W        W34698  18.542  11.761   1.604 -0.0487 -0.1107 -0.1217
18890W        W34699   4.494  18.505  15.731 -0.0364 -0.2693 -0.1197
18891W        W34700  11.888   1.683  12.735  0.0634  0.2128 -0.1654
18892W        W34701  14.293   5.174  14.846  0.1001 -0.1244 -0.3040
18893W        W34702   9.358   4.390  12.616  0.0040 -0.3636  0.0206
18894W        W34703   7.852  10.831  13.307  0.2688  0.2974 -0.0028
18895W        W34704  10.087  18.524  10.891 -0.0558 -0.1506 -0.3025
18896W        W34705   0.419  11.805  14.023  0.0868  0.0634  0.0939
18897W        W34706  10.751   7.806   1.574 -0.2185  0.3278 -0.1193
18898W        W34707  13.622  13.260   3.369  0.1349 -0.0069 -0.2535
18899W        W34708  12.024  17.310  12.029  0.1700 -0.1888 -0.0983
18900W        W34709  15.241   4.174  10.266 -0.0081 -0.0560 -0.4260
18901W        W34710  17.202   2.008   1.670 -0.1117  0.0476 -0.2762
18902W        W34711   7.297  16.372  12.238  0.3552  0.0157  0.3043
18903W        W34712  14.601  15.763  14.018 -0.4806 -0.1384 -0.0122
18904W        W34713   2.508  12.310   0.720 -0.0563  0.1015 -0.2056
18905W        W34714  14.559   7.368   2.678 -0.0905  0.0162 -0.1091
18906W        W34715  18.308  16.121  10.762 -0.1235 -0.4684  0.1516
18907W        W34716   2.542  13.071   0.212  0.1151 -0.1004 -0.0347
18908W        W34717  18.088  13.393   2.583 -0.1032 -0.4322  0.0114
18909W        W34718  15.281  17.319   0.018  0.1045  0.1190 -0.0533
18910W        W34719   6.223  15.865  12.907  0.0352  0.1800  0.1888
18911W        W34720   3.858   3.394   3.254  0.1215  0.1844  0.1273
18912W        W34721  13.828   2.575  10.868 -0.0189  0.0495  0.2340
18913W        W34722   9.825  14.338  15.092  0.3847 -0.0769  0.0901
18914W        W34723   5.798  10.158  13.878  0.2090 -0.0700  0.2944
18915W        W34724  16.831   0.872   1.642 -0.1486 -0.1783  0.0959
18916W        W34725  16.419  13.106   1.825 -0.0159  0.1069 -0.4307
18917W        W34726  16.729  11.655   1.838  0.2350  0.2679 -0.0187
18918W        W34727   1.915   3.050   4.913 -0.0604  0.0419  0.4293
18919W        W34728  16.742   2.786  12.310  0.0774 -0.3086 -0.1412
18920W        W34729   7.437  15.002  14.718  0.1509 -0.2439 -0.0692
18921W        W34730  17.812   6.477   5.042 -0.3092  0.0015  0.0597
18922W        W34731   1.432   4.276  12.738 -0.1254 -0.2128  0.1607
18923W        W34732   4.438  10.865  12.611 -0.1896  0.0162 -0.1713
18924W        W34733  10.041   4.944   3.454 -0.0854 -0.0479 -0.1259
18925W        W34734   6.822  10.789   4.020  0.0271  0.3172 -0.1840
18926W        W34735  10.458   7.248  11.336  0.1670 -0.1794 -0.3176
18927W        W34736   1.639  11.297   0.777  0.0775  0.1400  0.0897
18928W        W34737   8.895   2.398   1.515  0.0698  0.0288  0.0345
18929W        W34738   1.971   0.559   1.537  0.2472  0.1589 -0.1531
18930W        W34739  12.612   2.767   3.965  0.2317  0.1649  0.1479
18931W        W34740   9.571  11.646  12.526 -0.3899  0.0665  0.0611
18932W        W34741   0.243  17.295   1.320  0.0623 -0.1941 -0.2857
18933W        W34742  18.059  13.580  12.362  0.0144  0.0110 -0.1503
18934W        W34743   7.518  11.662   5.037  0.0016  0.1238 -0.1204
18935W        W34744   1.989  12.268   1.392  0.1096 -0.1601 -0.1065
18936W        W34745  13.274   0.066  13.194 -0.2240  0.3051 -0.1835
18937W        W34746  13.292   5.858  12.381 -0.0276  0.0572 -0.1042
18938W        W34747  16.170  11.532  15.617 -0.1994 -0.1199  0.2840
18939W        W34748   9.933  11.248   1.918 -0.1586  0.3688  0.0018
18940W        W34749  10.683  17.091  15.437 -0.2783 -0.1041 -0.3827
18941W        W34750  13.780   5.096   2.858 -0.0779  0.1040  0.0438
18942W        W34751  16.047  10.741  11.868 -0.0185  0.1833  0.2360
18943W        W34752  14.276   9.347  12.479 -0.1680 -0.0846  0.2948
18944W        W34753  13.928  13.805  11.185  0.0027  0.3599 -0.3592
18945W        W34754  17.482   5.831  11.636  0.2476  0.0111  0.1291
18946W        W34755  10.463   4.398   2.453  0.0499 -0.1162 -0.1642
18947W        W34756   8.305   4.091  11.995 -0.1886  0.2392 -0.2410
18948W        W34757  11.080   7.091  11.754 -0.0859 -0.0309 -0.0484
18949W        W34758   8.523  17.017   3.189  0.3354  0.1553  0.0715
18950W        W34759  10.527  10.748   2.581  0.3169 -0.1068  0.2498
18951W        W34760   0.375  13.089   4.238  0.1986 -0.0572 -0.0641
18952W        W34761  12.100   2.205   4.427 -0.3639 -0.4974 -0.3721
18953W        W34762   6.339   4.600   3.272  0.2273 -0.1014  0.0154
18954W        W34763  10.229  12.179  11.815 -0.2015  0.0030  0.0728
18955W        W34764   3.535  12.639  15.211  0.2019  0.0008  0.1821
18956W        W34765  10.922   3.869  12.200  0.0001  0.1635  0.1591
18957W        W34766  10.263   2.571   1.265 -0.0037  0.0951  0.1636
18958W        W34767  13.562   5.154   3.282  0.1335  0.3298 -0.1199
18959W        W34768   2.621   6.343  10.414 -0.0570  0.2309 -0.0614
18960W        W34769   5.615   5.612   0.561 -0.0123 -0.2237 -0.0047
18961W        W34770   2.908  15.249   5.290 -0.0748 -0.0799 -0.1065
18962W        W34771  17.170   1.439  11.225  0.2210 -0.0374  0.1700
18963W        W34772   1.423  17.214  11.839  0.2173 -0.0537  0.0576
18964W        W34773  14.071  10.416   2.449 -0.2636 -0.1784  0.0344
18965W        W34774   3.331   7.354   0.809  0.2088  0.0105 -0.0856
18966W        W34775  11.490   9.497  14.965  0.0669  0.1026 -0.0276
18967W        W34776   0.608  18.217   9.974  0.0559 -0.2179 -0.0993
18968W        W34777  15.041   2.598  12.489 -0.1459  0.1742 -0.2023
18969W        W34778   9.799   5.267  12.911  0.0945 -0.1066 -0.0540
18970W        W34779  11.193  13.549   1.871 -0.0445 -0.0831 -0.4339
18971W        W34780   8.370  17.598   1.369  0.0844 -0.2814  0.3174
18972W        W34781  16.164  10.946  12.855 -0.2508  0.0030 -0.0512
18973W        W34782  10.795   4.973   0.765 -0.0571 -0.1364 -0.4212
18974W        W34783   2.377  11.273  12.343 -0.0919  0.0255  0.3687
18975W        W34784  10.579   7.244  11.832  0.0074  0.2692  0.3145
18976W        W34785   8.772  16.587  10.246 -0.0806 -0.1043  0.3275
18977W        W34786  15.116   3.273   2.028 -0.0789 -0.1258 -0.1186
18978W        W34787   5.654  12.931   0.153  0.2470 -0.0294  0.0040
18979W        W34788   7.629  12.463   4.646 -0.0232 -0.1156 -0.1857
18980W        W34789   5.019   2.132  14.020  0.0660 -0.2715 -0.4300
18981W        W34790  10.074   5.216   1.788  0.0765 -0.2159  0.0168
18982W        W34791  13.377   0.957  14.667 -0.0507  0.0540  0.0959
18983W        W34792  17.301   8.093  15.030  0.2570 -0.0334  0.0503
18984W        W34793   8.237  13.498   2.615  0.2493  0.1538  0.3303
18985W        W34794   3.092   0.993   3.383 -0.0659 -0.3289  0.3190
18986W        W34795  15.197  16.857  10.864  0.1988 -0.1922  0.0799
18987W        W34796   2.468  10.706  11.880  0.2343 -0.0704 -0.0044
18988W        W34797  13.207  12.553  10.908  0.0787 -0.1400 -0.1636
18989W        W34798  16.181   9.842   4.571 -0.0037  0.1546 -0.2586
18990W        W34799   5.520  11.462   5.813 -0.1355  0.0620  0.1808
18991W        W34800   7.646  13.542   1.725 -0.0850 -0.2753  0.0260
18992W        W34801   9.534  13.134  11.507  0.0033  0.0245 -0.3579
18993W        W34802  14.730  12.214  12.662 -0.0548  0.2757  0.2338
18994W        W34803   9.249  14.147   1.556  0.1676  0.1801 -0.0750
18995W        W34804   4.155   0.835  12.036  0.1693  0.0167 -0.1074
18996W        W34805   3.440   2.661  13.008  0.2635 -0.0783  0.0350
18997W        W34806  16.686   5.236   1.961  0.1141  0.2344  0.1492
18998W        W34807  17.064   9.884   2.500  0.1207  0.1726 -0.0833
18999W        W34808   9.810   1.019   4.885  0.4939 -0.1899 -0.0601
19000W        W34809   7.684  13.017   1.113 -0.1319 -0.0800  0.1262
19001W        W34810  12.994  15.465  10.731 -0.1233 -0.1760 -0.3012
19002W        W34811   0.811   5.638  12.771  0.1556 -0.2893 -0.0820
19003W        W34812  10.114  10.316  11.353 -0.1634  0.0520 -0.0914
19004W        W34813   5.388   9.431   1.254 -0.0416 -0.0778 -0.0734
19005W        W34814  10.488  14.965   0.107 -0.1055  0.0138  0.1277
19006W        W34815  16.666  14.195  13.647 -0.1131  0.0781  0.1055
19007W        W34816  12.257   5.095  11.490  0.0138  0.0742 -0.0996
19008W        W34817  16.733  16.571  15.345 -0.2210 -0.0235  0.0032
19009W        W34818   7.023  13.698  11.991  0.2301 -0.0537  0.3034
19010W        W34819   2.155   8.576   2.703 -0.2609 -0.1698  0.2269
19011W        W34820  13.179   4.129  14.743  0.1538  0.2248  0.2530
19012W        W34821   7.834  10.170   2.746 -0.0183  0.1242  0.1511
19013W        W34822   4.314  14.381   0.459  0.3227  0.3503  0.2057
19014W        W34823   9.556   7.580  13.577  0.0330  0.3362  0.1466
19015W        W34824   3.428   3.841  10.523 -0.0050 -0.0711  0.0684
19016W        W34825   3.000  11.348  15.586 -0.0726  0.2076 -0.0633
19017W        W34826   5.138  18.399   1.323 -0.0149  0.1100 -0.0897
19018W        W34827   5.326   8.302  12.917  0.2440  0.0852 -0.1174
19019W        W34828   9.168   9.333   5.874 -0.1609  0.2094 -0.0900
19020W        W34829  12.354   5.306  11.984 -0.0125  0.0500 -0.0418
19021W        W34830  17.044   0.766   3.339 -0.3502  0.0592 -0.1139
19022W        W34831   2.800  13.064  11.746  0.0677 -0.2708 -0.0372
19023W        W34832   4.366   8.370  14.343 -0.0968 -0.0105  0.1162
19024W        W34833   4.221   6.886   3.402 -0.1657  0.0350 -0.0884
19025W        W34834  17.805  13.222  13.816 -0.1673  0.0721 -0.0626
19026W        W34835   3.116   1.229  13.416  0.2448 -0.1912 -0.0500
19027W        W34836  16.034  17.516  15.221  0.1042 -0.3865  0.0591
19028W        W34837  18.432   1.928  12.684  0.1828 -0.2751 -0.0362
19029W        W34838   6.603   1.409   5.593 -0.1884  0.1066  0.0020
19030W        W34839   0.464  13.615   4.370 -0.0564  0.2054  0.0956
19031W        W34840  11.305  11.351  13.005 -0.1361 -0.6256  0.1062
19032W        W34841   4.869   1.067  11.955 -0.1093  0.1974  0.2653
19033W        W34842  14.521   3.872   1.618 -0.1315  0.2517 -0.1278
19034W        W34843   4.412   4.573  14.245 -0.1297  0.0596  0.4157
19035W        W34844   4.649   9.452   2.250  0.1525 -0.0904 -0.0190
19036W        W34845  16.850   4.304   2.254  0.0593  0.0635 -0.2097
19037W        W34846   8.553   8.090   3.761 -0.0745 -0.3098  0.2135
19038W        W34847  15.711  10.149  11.402  0.1270  0.2457  0.1224
19039W        W34848  13.320  10.123  12.787 -0.1127  0.0651  0.0531
19040W        W34849   8.146  13.681   3.634  0.1175  0.3247 -0.4936
19041W        W34850  11.945  12.998   4.509  0.1025 -0.2453 -0.4309
19042W        W34851  15.066   3.263  14.186  0.2240 -0.0647 -0.0916
19043W        W34852   4.947  13.925   0.932  0.3643  0.1081  0.3820
19044W        W34853  13.491  17.030   4.154  0.0795 -0.1962 -0.1592
19045W        W34854   6.273   2.636   5.981 -0.0246 -0.2527 -0.2748
19046W        W34855   8.081   9.564  15.305  0.1666  0.0320 -0.2759
19047W        W34856   3.526   1.055   0.595  0.1352 -0.1545 -0.0695
19048W        W34857   6.457  11.757   5.347  0.1895  0.0712 -0.1669
19049W        W34858   4.327  16.031  10.720 -0.3454  0.0952  0.2069
19050W        W34859   1.341  10.272   2.801  0.1055 -0.1402 -0.1424
19051W        W34860   0.574   1.096  15.545  0.1014 -0.4099 -0.3080
19052W        W34861   0.689  16.176  13.294 -0.2694 -0.2837 -0.1592
19053W        W34862   9.314   0.258   0.316 -0.0851  0.0936 -0.0109
19054W        W34863  18.542   8.770   0.645  0.1287 -0.2152 -0.0040
19055W        W34864  17.267  15.490   4.708 -0.2947 -0.0966  0.1105
19056W        W34865  14.902   2.595  14.684 -0.4953  0.0135 -0.2217
19057W        W34866  16.631   7.527  12.060  0.1741  0.0401  0.3188
19058W        W34867   4.885   2.543   3.672  0.1815  0.3400  0.0203
19059W        W34868   9.262   9.671  14.176  0.0091  0.1658  0.1209
19060W        W34869  12.283  14.012   0.677 -0.2052  0.2136  0.0339
19061W        W34870  14.793  15.794   9.818  0.1309  0.2098  0.0754
19062W        W34871  12.513  13.577  13.743  0.0514  0.0708 -0.0095
19063W        W34872   8.984  10.297  11.116 -0.1683 -0.0992  0.2022
19064W        W34873   8.405   8.811  10.187 -0.1918  0.5786 -0.2078
19065W        W34874  16.453  16.976   2.516 -0.0472  0.3790  0.2157
19066W        W34875  10.359  16.351   3.322  0.2050  0.1209  0.2939
19067W        W34876  13.349  12.375  14.611 -0.0142  0.1563  0.0893
19068W        W34877   2.456  17.105   1.992  0.4662 -0.0463 -0.2687
19069W        W34878  11.927   2.530   1.801 -0.0735 -0.3591  0.1545
19070W        W34879   2.264  14.172  15.165  0.0352 -0.0467  0.0519
19071W        W34880   1.598   0.013   2.212 -0.1325  0.2232  0.1792
19072W        W34881  17.213   4.764  14.268  0.1134  0.2010 -0.2993
19073W        W34882  15.893   3.257   3.760 -0.2881  0.1103  0.0711
19074W        W34883  17.425   0.475   0.508  0.0748 -0.1239 -0.2550
19075W        W34884  17.411   8.014   2.702 -0.0235  0.1847  0.1359
19076W        W34885   1.500  18.575  11.761  0.1667 -0.0495  0.1004
19077W        W34886  18.545  18.352  12.626 -0.0923  0.2678 -0.3200
19078W        W34887   4.843  10.196   4.024  0.1440  0.1503 -0.1386
19079W        W34888   4.654   8.040   3.523 -0.0598  0.2326  0.1662
19080W        W34889   6.065  15.703   1.639 -0.2808  0.1987 -0.0197
19081W        W34890  12.097   8.327   5.041  0.0492 -0.0210 -0.0637
19082W        W34891   6.212  12.499  12.356 -0.2551  0.1322  0.2168
19083W        W34892   0.818   9.608   5.248  0.1590  0.3005  0.2758
19084W        W34893   8.061   2.498   3.305 -0.0005 -0.0123 -0.0429
19085W        W34894   0.619  14.607  13.142  0.1526  0.1136 -0.2145
19086W        W34895   6.180   0.429  14.644  0.2515  0.0485 -0.0446
19087W        W34896   4.864   3.028   2.784  0.1098 -0.0375 -0.2473
19088W        W34897   7.050  14.246   2.905  0.2235  0.0829  0.5222
19089W        W34898   1.151   4.248   5.329 -0.1476 -0.3460 -0.3053
19090W        W34899   6.051   4.345  15.173  0.1386 -0.0509 -0.0210
19091W        W34900   6.589  15.134  15.192  0.0274  0.1120  0.2140
19092W        W34901   4.529   9.990  12.645  0.1673 -0.0674 -0.2131
19093W        W34902  14.022   2.484   0.033  0.0398 -0.0760 -0.0403
19094W        W34903  13.919   3.945  13.400 -0.2755 -0.1171  0.0653
19095W        W34904   9.842  10.935  11.989  0.0951 -0.0714  0.2165
19096W        W34905  11.707  13.024   2.841 -0.0706 -0.0181 -0.0401
19097W        W34906   6.785  11.902   1.922 -0.0187 -0.1767  0.2406
19098W        W34907  12.197   6.534  13.406  0.2684  0.0490  0.1080
19099W        W34908  18.337  10.402   0.930  0.4513  0.1667  0.0948
19100W        W34909  17.784  17.874  13.208  0.2389 -0.1923  0.0336
19101W        W34910  13.814   3.051   1.902 -0.2231 -0.1402  0.0856
19102W        W34911   5.808  17.383   4.070  0.1479  0.2084 -0.0188
19103W        W34912   2.294  13.625   3.807 -0.0772  0.2252  0.2103
19104W        W34913   2.388  15.443  14.590 -0.3733 -0.0056 -0.2145
19105W        W34914   7.832  15.521   4.220 -0.1422 -0.2173 -0.2989
19106W        W34915  14.036   4.098   4.043 -0.0847 -0.0166  0.1368
19107W        W34916   0.302  13.190  12.959 -0.0395 -0.2376  0.1205
19108W        W34917  12.319   8.224  12.616 -0.0774 -0.0902  0.1470
19109W        W34918  17.116   3.888   5.227  0.0892  0.0166  0.1973
19110W        W34919  14.377  13.673  14.890 -0.1736 -0.0872 -0.0198
19111W        W34920   3.615  16.370   2.947 -0.0349  0.3536 -0.1659
19112W        W34921   7.538   6.871   4.802 -0.2710  0.0014  0.2272
19113W        W34922   7.103   8.993   1.578  0.1436 -0.0807 -0.0305
19114W        W34923  15.115   6.644   5.320 -0.1178 -0.0270  0.0852
19115W        W34924  18.037   7.815  13.786 -0.0818 -0.1046 -0.0935
19116W        W34925   6.038  11.851  15.412 -0.0477 -0.3145 -0.0430
19117W        W34926   7.844  17.942   5.511  0.0808 -0.0353 -0.0678
19118W        W34927   5.448   7.393   2.679  0.1644  0.1492  0.0042
19119W        W34928  16.547   7.825  15.706 -0.2163  0.0455 -0.2576
19120W        W34929   0.586  11.523  13.448  0.1486  0.2910 -0.2225
19121W        W34930   4.798  15.545  13.500  0.0223  0.2404 -0.2022
19122W        W34931   3.759   1.124   1.623  0.2004  0.1520  0.1893
19123W        W34932  14.474  13.610  11.091 -0.2952 -0.0837 -0.1505
19124W        W34933  11.790   3.855   5.459 -0.1666 -0.1603  0.1128
19125W        W34934   5.746  15.231  14.495 -0.1014  0.1622  0.1437
19126W        W34935   4.088   0.180  13.861  0.2562 -0.0685 -0.2115
19127W        W34936   3.468  12.996   3.239  0.0688 -0.0982  0.1274
19128W        W34937   5.523   6.394  13.700 -0.2025 -0.1122  0.0085
19129W        W34938  15.099  16.482  15.188 -0.3190 -0.0656  0.0156
19130W        W34939  11.685  15.505  13.330 -0.0822  0.2131  0.2554
19131W        W34940   7.503  15.355  12.652  0.2095 -0.1103 -0.2271
19132W        W34941   0.577   2.164   2.154  0.0090  0.2293 -0.2372
19133W        W34942  17.139  17.483   0.293  0.1201 -0.0956  0.1321
19134W        W34943   5.422  14.791  14.696  0.0787 -0.5186  0.0473
19135W        W34944   4.603   1.637  11.770 -0.1754 -0.0593  0.2088
19136W        W34945  15.430  10.483   2.124 -0.1638 -0.0020  0.2599
19137W        W34946  17.019   9.915   4.933 -0.0989  0.2123  0.2995
19138W        W34947  11.145   7.392   1.550  0.1879 -0.4728 -0.2462
19139W        W34948   8.758  16.524  15.659 -0.1368 -0.2706 -0.0289
19140W        W34949  15.970  12.745  13.097 -0.0475  0.0052 -0.0508
19141W        W34950  12.687   7.969  15.722  0.2827  0.2218 -0.1245
19142W        W34951   5.309  17.107  11.186 -0.4240 -0.0751 -0.0130
19143W        W34952  17.390  10.018   1.286 -0.1360 -0.2083 -0.1063
19144W        W34953  15.294  14.570   0.781 -0.0828 -0.0208 -0.0180
19145W        W34954   6.275  17.865  11.340  0.0859  0.0074 -0.0209
19146W        W34955  13.850  16.697   2.290 -0.1485  0.0095  0.3089
19147W        W34956   4.219   9.965   4.918  0.0884  0.0902 -0.2465
19148W        W34957  16.216  14.817   1.342  0.1147  0.2923  0.1103
19149W        W34958  10.480   4.942   3.664 -0.1545 -0.1665 -0.0180
19150W        W34959  15.970  18.628   2.073  0.2418  0.2666 -0.1962
19151W        W34960   4.550  13.868   4.614 -0.2459  0.1373  0.2140
19152W        W34961  14.756  18.070   2.175  0.0765  0.2091 -0.2113
19153W        W34962  11.859  11.568  15.613 -0.0727  0.0022 -0.0839
19154W        W34963  16.441   3.760  15.210  0.0891 -0.1913 -0.0770
19155W        W34964   3.700   3.503   1.695  0.2547  0.1139  0.0098
19156W        W34965   6.911   9.255  11.473  0.1688  0.2307 -0.0872
19157W        W34966   1.027   8.293   0.236 -0.5102  0.1763  0.2373
19158W        W34967  10.231  17.195  13.610 -0.1020  0.0549 -0.0372
19159W        W34968  16.135  11.367   5.146 -0.0564 -0.3953  0.1344
19160W        W34969   9.897   0.511   5.731  0.1291  0.2133  0.2570
19161W        W34970  11.299  14.223  15.481  0.0644 -0.0560  0.2093
19162W        W34971   8.550  12.702  12.326 -0.0536  0.1010 -0.1521
19163W        W34972  15.972  15.069  11.527  0.3302  0.1446  0.1920
19164W        W34973  18.577   4.206   1.706  0.0115  0.0931 -0.1293
19165W        W34974  13.938  17.108  13.523 -0.0123 -0.0116  0.6976
19166W        W34975   5.846   7.373   1.831  0.2265  0.3360  0.0285
19167W        W34976  13.596  17.869  11.326  0.1682  0.0043 -0.3735
19168W        W34977   1.085  13.662   0.091 -0.1458 -0.2333 -0.0469
19169W        W34978   0.711   3.428  13.405  0.1023  0.2500 -0.1028
19170W        W34979  13.742   1.068   3.834  0.0937 -0.1509  0.2102
19171W        W34980  15.320  13.991  12.821 -0.2384  0.0337  0.0863
19172W        W34981   6.742   3.755  12.871  0.0569  0.2710  0.1590
19173W        W34982  14.162  14.540  10.833  0.0820 -0.3065  0.4106
19174W        W34983   8.023   1.141   2.451 -0.1423  0.0233 -0.0603
19175W        W34984  10.649   0.891  11.875  0.0034 -0.0819 -0.1741
19176W        W34985  11.064   6.985   1.220 -0.0142  0.2251 -0.1438
19177W        W34986   8.386  15.324  11.029 -0.1136 -0.4639  0.0966
19178W        W34987   3.096   3.779  12.497  0.1673  0.0070 -0.0932
19179W        W34988   0.681   3.021   3.323 -0.2586 -0.0127  0.2599
19180W        W34989   0.073   4.987  11.396  0.0634  0.0978 -0.1287
19181W        W34990   1.385  13.987  11.716 -0.0475 -0.2362 -0.2325
19182W        W34991   9.794   2.965   4.201 -0.1336  0.1555 -0.1062
19183W        W34992  18.354   6.817   0.191 -0.2444  0.0147 -0.0630
19184W        W34993   3.963   0.471  14.690  0.1767  0.0910 -0.1652
19185W        W34994   9.069   7.865   3.517  0.0493 -0.4271  0.0091
19186W        W34995  14.188  10.021   2.800 -0.1394 -0.0226 -0.1017
19187W        W34996  13.910   9.699   2.342  0.3056 -0.0410  0.1916
19188W        W34997   7.138   9.217   3.793  0.0925  0.3746 -0.2395
19189W        W34998   1.901   0.419   1.018  0.2399  0.1106 -0.1916
19190W        W34999   0.050   6.382   0.748  0.2500  0.1585 -0.0416
19191W        W35000  11.143  13.158   3.768  0.0023 -0.1433  0.2188
19192W        W35001  17.153   5.932  15.562 -0.0930  0.1832  0.1318
19193W        W35002  16.636   4.527   0.519  0.1793  0.1551  0.1089
19194W        W35003  11.380  18.501   2.649  0.2245  0.3877  0.0482
19195W        W35004  17.243   8.643  14.314 -0.0248 -0.0562 -0.0299
19196W        W35005   8.620  17.601   2.156 -0.0925  0.0067 -0.1758
19197W        W35006   7.115  14.020  11.228  0.1307  0.0491 -0.0772
19198W        W35007   3.715   2.234  13.101  0.0946 -0.0215  0.1521
19199W        W35008   1.525   3.240   5.140 -0.2031  0.4254 -0.1114
19200W        W35009  16.421   0.773   4.116  0.0596 -0.0853  0.3496
19201W        W35010   5.456  13.258  13.890  0.0749  0.1516  0.1304
19202W        W35011   9.384  14.442  12.998 -0.1195  0.4395  0.1093
19203W        W35012  14.850  18.097   1.425 -0.2191 -0.0239 -0.0979
19204W        W35013   2.966   4.829   1.420  0.1418  0.0524 -0.2899
19205W        W35014  12.847  12.666  15.413 -0.1110  0.2464  0.3348
19206W        W35015   7.832   4.874  11.869  0.0354 -0.0332 -0.1643
19207W        W35016   8.840   3.623   2.089  0.0511 -0.5547 -0.1083
19208W        W35017  11.970  11.488   0.681 -0.0686  0.0655 -0.2212
19209W        W35018  15.131   6.450  13.996 -0.1240 -0.5541  0.0172
19210W        W35019  12.971   1.060   2.510  0.1148  0.1059 -0.1101
19211W        W35020   1.443   8.182  10.481 -0.0263  0.4123  0.0996
19212W        W35021   0.078  12.037  12.080  0.1885  0.2473  0.0436
19213W        W35022  14.100   1.050   1.852  0.1329  0.0537  0.1056
19214W        W35023   9.615  17.113   2.384 -0.0186 -0.3256  0.1158
19215W        W35024   8.199  11.620  11.227  0.1414  0.2347 -0.0472
19216W        W35025   3.185  15.255  13.529 -0.0956 -0.0419 -0.1406
19217W        W35026   8.663   8.667  14.420  0.1550  0.0080  0.0939
19218W        W35027   9.561   0.521   4.040 -0.0961 -0.1500  0.2704
19219W        W35028   9.725   2.091   1.869 -0.0658  0.2415  0.1555
19220W        W35029   8.617  13.228  14.238 -0.0200 -0.2848  0.3396
19221W        W35030   7.583  15.267   4.653  0.1946  0.0333 -0.1291
19222W        W35031   3.118  16.016  14.317  0.2186 -0.2582 -0.1425
19223W        W35032   1.853   0.235  14.928 -0.0397  0.0173 -0.1487
19224W        W35033   9.962   6.551  12.928 -0.0367 -0.1111  0.2430
19225W        W35034  13.969   7.411  15.592 -0.2761  0.4324 -0.0522
19226W        W35035  11.901   4.156  13.829  0.0317 -0.2482  0.2569
19227W        W35036   9.901   1.850  13.680 -0.0488  0.2185 -0.0268
19228W        W35037   8.261   2.895   1.076 -0.0229 -0.0227  0.1758
19229W        W35038  17.164   5.892  12.548  0.1058 -0.0625  0.1515
19230W        W35039   3.135  11.361  14.521  0.1767  0.0861  0.2121
19231W        W35040  16.739  17.253  12.257 -0.5020  0.2050 -0.0668
19232W        W35041  12.955   4.124   3.329 -0.0276  0.2784 -0.0003
19233W        W35042   8.110   4.028  15.207 -0.2012 -0.0851  0.3576
19234W        W35043   4.938  13.834   5.834  0.1325 -0.3201 -0.0153
19235W        W35044   9.948   9.065   0.756  0.1529  0.3004  0.0839
19236W        W35045   2.862   4.145   4.452  0.4432 -0.1482  0.0961
19237W        W35046  18.074   1.388  11.348  0.0428  0.1246  0.1520
19238W        W35047  13.050   8.117   4.640  0.0456  0.0423 -0.2650
19239W        W35048   1.934   6.202  15.057  0.1795 -0.0640  0.2436
19240W        W35049   6.346   1.124   4.378 -0.2722  0.1178 -0.1117
19241W        W35050  12.271  17.292   2.690 -0.0109  0.0127 -0.0334
19242W        W35051  12.306  12.787   2.990 -0.2828  0.1868  0.0855
19243W        W35052   4.158   5.179   4.117 -0.0182 -0.1433 -0.1006
19244W        W35053   5.442  12.049  11.679 -0.2800 -0.0773  0.1950
19245W        W35054   2.440   2.133   0.502  0.0891  0.1116  0.2359
19246W        W35055   9.653   1.691  12.206  0.2619 -0.1742 -0.0333
19247W        W35056  16.917   9.120  14.945 -0.3274  0.1884  0.1589
19248W        W35057   5.826  10.597   3.998  0.1282  0.1357 -0.1991
19249W        W35058   0.592  13.450   1.982 -0.3269  0.0544  0.0331
19250W        W35059  13.068  11.872   3.252 -0.2324  0.2023  0.0483
19251W        W35060   2.061  15.477  15.453  0.1878 -0.0995  0.2740
19252W        W35061  10.986  14.497   0.303 -0.0675  0.2663 -0.1443
19253W        W35062   8.500  17.636   9.494 -0.1447  0.2349  0.1117
19254W        W35063   8.536   4.815  13.451 -0.1474 -0.1485 -0.1151
19255W        W35064   9.195  12.816   5.345  0.0603 -0.1931  0.1817
19256W        W35065  12.745  12.498  10.638  0.0453  0.3526  0.0590
19257W        W35066   8.302  14.753  11.199  0.2340 -0.1942 -0.2089
19258W        W35067   1.657  12.011  14.784 -0.3865 -0.0961 -0.0499
19259W        W35068  11.324   2.260  11.115  0.2006  0.0126  0.1709
19260W        W35069   9.837   1.845   0.682 -0.0483  0.1896 -0.0056
19261W        W35070   0.724  13.183  12.681  0.2325 -0.1614  0.0243
19262W        W35071  18.095   5.621  12.808 -0.3144 -0.0123  0.0058
19263W        W35072   7.070   1.457   2.575 -0.2247  0.1165  0.0601
19264W        W35073   6.145  18.118   0.055 -0.0288  0.3916 -0.1860
19265W        W35074   8.242   7.768   0.748  0.0261 -0.2668  0.1978
19266W        W35075   9.636  16.641   2.735 -0.0541 -0.3731  0.0442
19267W        W35076  16.873  10.895  13.984  0.1098 -0.0712  0.0323
19268W        W35077  14.262  13.598   4.500  0.0729 -0.1317  0.2589
19269W        W35078  15.787   0.407   4.618  0.1290 -0.1458  0.4137
19270W        W35079  16.420  11.264  10.123  0.2767 -0.0862  0.2380
19271W        W35080  12.308   8.684   0.626 -0.0343  0.0130 -0.1862
19272W        W35081  17.455   8.420   4.193 -0.1039 -0.0380  0.0965
19273W        W35082  10.351   2.025   1.229  0.1568  0.0771 -0.1726
19274W        W35083   5.361  11.465   0.399  0.0510 -0.2690 -0.2211
19275W        W35084  11.700   4.398   1.174 -0.1207  0.1818  0.0849
19276W        W35085   4.915   5.773   0.766  0.0061  0.3278  0.0811
19277W        W35086   8.105   2.160  11.236 -0.1112  0.1384  0.1100
19278W        W35087   8.743  11.539   0.189 -0.2794  0.2213 -0.3452
19279W        W35088  12.231   0.265   2.196  0.1297  0.1048  0.1227
19280W        W35089  10.899   6.629   4.401  0.2676 -0.2800  0.1065
19281W        W35090  12.117   7.369  11.423 -0.0356 -0.0495 -0.3394
19282W        W35091   9.863  10.278   3.636  0.1375 -0.2156 -0.1687
19283W        W35092   1.581   0.292  13.991  0.1540 -0.0419 -0.0128
19284W        W35093   3.478   6.492   0.067  0.2026 -0.0856 -0.0733
19285W        W35094   5.756   1.306   4.431 -0.3315 -0.0898 -0.1008
19286W        W35095  15.501  16.806  15.193 -0.4888 -0.1403 -0.0143
19287W        W35096   9.535  13.236  14.541 -0.2231 -0.0057 -0.1064
19288W        W35097  13.081  14.937  11.388 -0.1707  0.2571 -0.1648
19289W        W35098  11.542   6.766   3.868  0.3445  0.0802 -0.1581
19290W        W35099   4.988  12.302   4.570 -0.0170  0.3987 -0.0259
19291W        W35100   7.594  11.410   0.801 -0.0320 -0.0211  0.2247
19292W        W35101   0.663  16.845   2.041  0.0366  0.1654 -0.1115
19293W        W35102   2.107   6.204   1.619  0.1930  0.2947 -0.0110
19294W        W35103   1.999   3.974  15.353  0.1459  0.0922 -0.0964
19295W        W35104   1.382  12.621  15.324  0.1944 -0.1114  0.0327
19296W        W35105   3.078   7.577   2.302  0.1726 -0.0360  0.0764
19297W        W35106  12.190  11.346  14.442  0.1176 -0.2886 -0.1747
19298W        W35107   4.887  12.004  12.389 -0.1525 -0.0409  0.2934
19299W        W35108  12.957  11.543   3.595 -0.2894  0.1691 -0.2343
19300W        W35109   6.596   5.447   3.514  0.0401 -0.1420 -0.1061
19301W        W35110   3.576  12.938  14.719 -0.0639 -0.3206 -0.0887
19302W        W35111  12.159  18.113  11.546 -0.1297 -0.1932 -0.1085
19303W        W35112   0.270  11.996   1.771  0.1174  0.3346  0.0114
19304W        W35113  10.051  13.967  15.519 -0.0139  0.1537 -0.0542
19305W        W35114  16.639   9.923   5.634 -0.1611  0.3045  0.2274
19306W        W35115   0.369  13.825   4.777 -0.0415  0.2508 -0.0344
19307W        W35116  10.522   4.980   4.271  0.1679  0.1185  0.1630
19308W        W35117  11.909  13.744   3.805 -0.0566 -0.4107 -0.1676
19309W        W35118   0.072   6.653   4.327 -0.2158  0.3339 -0.4172
19310W        W35119  12.398  11.187  12.361 -0.1579  0.2784  0.1660
19311W        W35120   7.737   6.250   0.062 -0.2867 -0.0131 -0.0666
19312W        W35121  15.740  13.924  10.591  0.0320 -0.0833  0.0830
19313W        W35122   7.628  15.933  14.625  0.1964 -0.3681 -0.2429
19314W        W35123   1.358   1.789  11.702  0.0886 -0.0825 -0.0099
19315W        W35124  16.950   9.194  13.045  0.0869 -0.0189 -0.3593
19316W        W35125   1.622  13.604   5.177 -0.1972  0.1205 -0.1457
19317W        W35126   6.703   3.073   1.514  0.1287 -0.2696 -0.3142
19318W        W35127   4.641   6.691   1.534  0.2718 -0.0288  0.1876
19319W        W35128  17.912   1.246  12.624 -0.2721 -0.0482  0.1193
19320W        W35129   0.921   8.784  13.436 -0.2029 -0.0177  0.4211
19321W        W35130   4.488   8.268  10.820  0.1489 -0.0997 -0.1065
19322W        W35131   5.761  18.287   1.938 -0.0753  0.1613  0.1082
19323W        W35132  13.932  10.189   0.091  0.1500  0.1093  0.0800
19324W        W35133   2.175   8.609  10.896 -0.2034  0.1352  0.0955
19325W        W35134   2.430  16.552   2.387 -0.0738  0.4318 -0.1844
19326W        W35135   5.422   5.528   3.857 -0.0066 -0.0266  0.1333
19327W        W35136   2.210  12.826   3.278  0.1263 -0.0200  0.0622
19328W        W35137   7.280  13.369  11.104 -0.2480  0.0462  0.1788
19329W        W35138   0.606   6.932   0.340 -0.5136  0.1557  0.1826
19330W        W35139   5.531   4.024  13.693 -0.1369 -0.1004 -0.2282
19331W        W35140  12.808  10.935   3.046 -0.4050  0.0533 -0.1083
19332W        W35141   4.681  16.915  14.554 -0.2329  0.3375  0.2272
19333W        W35142   9.185   3.639  13.459 -0.1313 -0.1299 -0.0548
19334W        W35143   3.568  12.729   1.306  0.0573  0.1072 -0.1061
19335W        W35144   0.245  16.108  11.201  0.0676  0.2989  0.0062
19336W        W35145  15.516   2.765  12.190 -0.3506 -0.0184 -0.1756
19337W        W35146  15.449   3.726   5.209 -0.2527 -0.3660  0.0965
19338W        W35147  13.402   8.118  13.761 -0.1973  0.2028  0.1925
19339W        W35148  10.591   8.259  10.572 -0.0392  0.1848  0.0088
19340W        W35149  14.231   5.695   1.875  0.5183 -0.1157  0.2616
19341W        W35150  13.015   7.646  15.414 -0.0650 -0.0189 -0.4225
19342W        W35151  12.354  16.697  11.396  0.0151  0.0828 -0.1669
19343W        W35152   3.904   9.575   4.124  0.0224  0.1037  0.3272
19344W        W35153   6.904   1.481   1.631 -0.0391 -0.5916  0.0599
19345W        W35154  18.178   9.124   5.213 -0.0921  0.1101  0.1332
19346W        W35155  17.413  13.719  13.183 -0.1633 -0.2544 -0.4675
19347W        W35156   4.521   4.388  11.832  0.0747  0.0234 -0.2587
19348W        W35157  15.101  17.097  10.407 -0.3196  0.3595  0.1491
19349W        W35158  16.095   8.857   2.170 -0.2805 -0.0453  0.0527
19350W        W35159   4.780   3.908  14.720  0.1059 -0.1002 -0.2511
19351W        W35160   8.740  14.055  11.924  0.3521 -0.0436 -0.1718
19352W        W35161   7.521   5.197  12.210 -0.0800 -0.2519  0.0438
19353W        W35162   5.087  17.172  14.455  0.0962 -0.1515  0.0603
19354W        W35163  12.915  17.386   1.922  0.0968  0.1035  0.0128
19355W        W35164   1.031   4.034  11.399 -0.0055 -0.1966  0.0792
19356W        W35165  13.811   7.095   2.153 -0.0916 -0.1233  0.1859
19357W        W35166  18.463  10.203   1.415  0.1388  0.0290 -0.1939
19358W        W35167   8.762  15.528  10.626 -0.2532 -0.0273 -0.5135
19359W        W35168   4.778   2.215   2.992 -0.1357 -0.1197  0.1293
19360W        W35169  15.638   8.556  14.163  0.2929 -0.0517 -0.2499
19361W        W35170   9.262   4.646   3.999  0.0641  0.2825 -0.0961
19362W        W35171   0.820  15.550  14.661 -0.1240 -0.0448 -0.1852
19363W        W35172  14.179  13.073  11.624  0.2210  0.0248 -0.0458
19364W        W35173  12.735   4.445   4.247 -0.1839  0.0101 -0.0325
19365W        W35174   4.174  18.148  14.122 -0.1593  0.2495  0.2796
19366W        W35175  12.379  18.002   4.128  0.3168  0.2006  0.0409
19367W        W35176   2.178  13.466   4.617  0.0665 -0.3414  0.1731
19368W        W35177   3.067   7.865  14.187 -0.2006  0.1192  0.2345
19369W        W35178  15.626  13.437   4.674 -0.0564  0.3109  0.2634
19370W        W35179   9.458   1.132  15.045  0.0964 -0.0374  0.0846
19371W        W35180   9.087   0.942  13.340 -0.1760 -0.1132 -0.0324
19372W        W35181   8.756   5.064   3.086 -0.2521 -0.2523 -0.0285
19373W        W35182  11.564   9.327   1.459  0.0704  0.0526  0.4663
19374W        W35183  16.649   5.952   5.630 -0.4592 -0.0893  0.2632
19375W        W35184   7.598   2.528  11.222 -0.1695 -0.3396 -0.2423
19376W        W35185  18.055  10.392   4.606  0.2256  0.1613  0.2180
19377W        W35186   8.358   6.707   1.758  0.3238 -0.1411  0.0464
19378W        W35187   5.934   6.139  11.547 -0.0982  0.0078  0.0989
19379W        W35188   2.478   3.360  13.080 -0.0631 -0.1485 -0.0239
19380W        W35189   4.146  17.294   4.045 -0.0153 -0.2357  0.1824
19381W        W35190  17.005   5.258  14.251  0.2137  0.1396 -0.0880
19382W        W35191   7.751   3.447  10.933 -0.0321  0.3526 -0.1440
19383W        W35192   0.789   7.160  11.361  0.3648 -0.2235 -0.3079
19384W        W35193  12.813  11.430   0.992  0.4123  0.0798  0.3261
19385W        W35194   4.355   5.049  15.102  0.3578  0.5981  0.3992
19386W        W35195  13.635  16.304   3.137  0.1273 -0.1589 -0.0886
19387W        W35196   2.432  18.415  15.650  0.2676 -0.1423  0.2262
19388W        W35197   4.854   1.701   1.330 -0.2388 -0.0951 -0.0250
19389W        W35198  14.941  18.494   3.856  0.0494  0.1219  0.1776
19390W        W35199   2.142  15.912   4.013  0.2006 -0.0612 -0.1140
19391W        W35200   8.499  14.841   2.506 -0.0804 -0.1330  0.1127
19392W        W35201  18.064  13.893   4.950 -0.1284 -0.0545  0.0234
19393W        W35202  18.209   2.953   2.480  0.0739  0.1286 -0.2451
19394W        W35203  16.630   3.503  12.448 -0.1195  0.1017  0.0174
19395W        W35204   9.109   8.136  13.225 -0.1355 -0.3133 -0.1402
19396W        W35205   1.748   0.953   2.386  0.0810 -0.0869 -0.2127
19397W        W35206   5.838   5.602   4.661 -0.1105  0.0175 -0.3485
19398W        W35207  17.012   8.313  12.833  0.0303 -0.0110 -0.0999
19399W        W35208   5.757  17.274  12.131 -0.0861  0.1727 -0.0128
19400W        W35209   3.998  17.358  12.563  0.3060  0.0332 -0.1447
19401W        W35210   1.730  12.512   1.788 -0.0087 -0.3774  0.2685
19402W        W35211  13.095  13.642   3.344 -0.1207 -0.0764  0.0193
19403W        W35212   6.276   8.361  15.348 -0.1093 -0.1609  0.1709
19404W        W35213  18.326   2.295  15.347  0.2443  0.1462 -0.2306
19405W        W35214   5.238  13.496  11.672  0.2785 -0.2889 -0.1925
19406W        W35215   6.986   0.129   5.024 -0.0467  0.4425 -0.3464
19407W        W35216   9.344  18.085  14.449 -0.0631 -0.2152  0.0165
19408W        W35217  18.038  10.900  12.503  0.0700  0.2816 -0.2676
19409W        W35218  12.620  17.198   9.874 -0.0089 -0.2550  0.0028
19410W        W35219  12.223   1.273   4.382  0.3543 -0.0682  0.1552
19411W        W35220   7.507   6.142  11.523  0.1963 -0.0970  0.0780
19412W        W35221   1.367   6.466  11.439  0.0342  0.0342 -0.0604
19413W        W35222  10.395   9.801  11.309 -0.1175 -0.2950  0.2089
19414W        W35223  11.424  13.993   3.856  0.2493 -0.2430 -0.3238
19415W        W35224  13.093  10.979   3.528  0.0362  0.0817  0.0989
19416W        W35225  15.359   5.252   0.550  0.4201 -0.4018 -0.1198
19417W        W35226  17.527   0.472  15.255  0.1169  0.0222  0.0280
19418W        W35227   9.112  12.258   5.186  0.0082  0.0669  0.0757
19419W        W35228   5.966   3.651   2.693  0.0751 -0.0368  0.0686
19420W        W35229   9.244   9.248   3.657  0.2921 -0.0333  0.0505
19421W        W35230   3.670   3.796   0.613  0.2104 -0.0776 -0.1641
19422W        W35231   1.527   0.227   4.314 -0.0942 -0.0456 -0.1425
19423W        W35232   2.193   9.687   3.571  0.0440 -0.2506  0.0825
19424W        W35233  15.144  10.048  10.873  0.1971 -0.0571 -0.1937
19425W        W35234  11.480  18.166   0.228  0.2174  0.2762 -0.3928
19426W        W35235   0.353   2.439   2.482  0.0325  0.1787 -0.0852
19427W        W35236   8.247  12.178  14.731 -0.1832  0.1751  0.0375
19428W        W35237   8.364   0.779  14.015 -0.0281  0.0087  0.0815
19429W        W35238   6.886   7.469  12.584  0.0535  0.0806 -0.1861
19430W        W35239   5.338   6.611  12.770  0.2904  0.0140 -0.0440
19431W        W35240  12.420   2.612   0.291 -0.2585 -0.2038 -0.3333
19432W        W35241   8.785  17.276  14.250 -0.1192 -0.1340 -0.1329
19433W        W35242   8.114   0.828  10.833  0.0939  0.0727 -0.2451
19434W        W35243  10.230  16.534   4.629  0.1527 -0.0070  0.1479
19435W        W35244   8.273   5.715  11.943  0.1384  0.1776 -0.0768
19436W        W35245   3.269  12.061   2.084  0.0702 -0.0155 -0.4015
19437W        W35246  15.996   0.428   5.435 -0.0783  0.0004  0.1951
19438W        W35247  16.669   0.783   3.003  0.0090 -0.0925 -0.0630
19439W        W35248   0.667   3.673  11.489  0.1326 -0.4474 -0.0693
19440W        W35249   0.388   0.647  14.812  0.0566 -0.1096  0.0502
19441W        W35250  11.515   1.936   3.055 -0.1480 -0.0696 -0.1117
19442W        W35251   6.565   7.087   1.187 -0.0832  0.0340 -0.0675
19443W        W35252   3.909  14.035   0.369 -0.1369 -0.2816  0.1699
19444W        W35253   0.656  17.185   0.304 -0.0352 -0.1007  0.0671
19445W        W35254   5.542   9.576   2.419  0.0587 -0.0940  0.0647
19446W        W35255   8.878   0.597  11.030  0.1329  0.0099 -0.3629
19447W        W35256   5.691  16.694   4.825  0.0401 -0.3177 -0.1372
19448W        W35257   5.457  17.072  12.989 -0.0745 -0.0879 -0.0011
19449W        W35258   2.940  17.193   2.028  0.0838  0.0560 -0.0663
19450W        W35259   4.609  18.532   4.063 -0.0714  0.1111  0.0855
19451W        W35260  17.819  12.542   2.755 -0.1170 -0.0706  0.0976
19452W        W35261  17.021   0.236   3.637  0.2714  0.2208 -0.1417
19453W        W35262  13.971  12.423   3.662  0.2268  0.3100  0.3138
19454W        W35263  17.051   2.117   3.817  0.0121  0.0611  0.0168
19455W        W35264   2.195  11.843   1.808  0.0390  0.0807  0.0891
19456W        W35265  17.036  14.700   1.209 -0.2857  0.1131  0.1164
19457W        W35266   1.530  17.813  10.598  0.2789 -0.0166  0.2297
19458W        W35267   7.257   5.896  11.074  0.2506 -0.1815 -0.1190
19459W        W35268   8.300   8.820   2.538  0.3203  0.0130  0.0596
19460W        W35269  15.511   0.725   2.965  0.1113  0.0146 -0.1714
19461W        W35270  18.049   3.378   9.638  0.0222  0.1239  0.2663
19462W        W35271  15.835   0.421   2.274  0.4060  0.0903 -0.0209
19463W        W35272   8.859   0.013   0.865  0.0434 -0.1038  0.0240
19464W        W35273   6.710   1.153  10.772  0.2554 -0.0022  0.2488
19465W        W35274   9.771   9.320   4.724  0.2350  0.1851 -0.0470
19466W        W35275   7.749  12.790  11.105 -0.0513 -0.0064  0.2742
19467W        W35276  14.333   0.942  11.267 -0.0331  0.1420  0.1808
19468W        W35277   9.035  18.099  15.742  0.1278  0.2274  0.2230
19469W        W35278  12.644   0.801  14.477  0.2462 -0.1850 -0.0681
19470W        W35279  15.476  12.249   3.985 -0.4101 -0.0368  0.2451
19471W        W35280   2.771   1.740  13.218 -0.0493 -0.0481  0.2379
19472W        W35281  17.485   8.630  13.683 -0.0369 -0.3610  0.0512
19473W        W35282   6.577   4.520  13.538 -0.1213 -0.1233 -0.2752
19474W        W35283  10.295   1.951  15.648  0.0138  0.1296 -0.1507
19475W        W35284  16.656  12.678   4.082  0.1268 -0.0177  0.0213
19476W        W35285   9.734  10.752   2.194  0.1095 -0.0425 -0.0635
19477W        W35286  15.372   6.139   2.914  0.0261  0.1357  0.2809
19478W        W35287  14.329  14.612   1.886 -0.0770  0.2167 -0.1301
19479W        W35288   8.797  11.139  15.682  0.1477 -0.1984  0.0801
19480W        W35289  17.420  15.875   2.995 -0.2835  0.3114  0.1230
19481W        W35290  18.401   1.562   5.061  0.0441  0.0111  0.0069
19482W        W35291   1.193  10.109   3.603 -0.4516  0.2596 -0.2280
19483W        W35292  17.921   8.383  13.162 -0.0007  0.3805 -0.0016
19484W        W35293  12.042  10.131   3.197  0.1266  0.0666 -0.1904
19485W        W35294   5.535   2.531   4.304 -0.5848 -0.5506 -0.3278
19486W        W35295   0.503   1.438   3.428  0.2618  0.0349  0.0293
19487W        W35296  16.511   6.185  13.855 -0.0158  0.1344  0.1846
19488W        W35297   9.947   3.245   2.326  0.2904 -0.0495  0.2251
19489W        W35298   1.233   0.908  14.900 -0.1025 -0.0014  0.0228
19490W        W35299   9.408  10.922   4.868 -0.0351  0.0453 -0.3359
19491W        W35300   2.022  10.088  14.124  0.1569 -0.0167 -0.1781
19492W        W35301  13.509  17.076   0.221  0.0924 -0.1633  0.3089
19493W        W35302  12.008  18.359  11.133  0.1731 -0.1060 -0.1949
19494W        W35303   4.749   2.250   2.064 -0.0483  0.3131  0.1061
19495W        W35304  10.329  16.960   1.592  0.0051  0.1140 -0.0695
19496W        W35305   7.683  17.788   4.723  0.1395 -0.0993 -0.0690
19497W        W35306  13.432   0.144  12.184 -0.0043  0.0569 -0.1695
19498W        W35307   2.562   8.819  12.355  0.3094 -0.0466 -0.2214
19499W        W35308  10.457   0.311   2.398  0.0069  0.0689 -0.1498
19500W        W35309  16.200   1.363  14.190  0.0602 -0.2256  0.1119
19501W        W35310   9.730  15.508   1.234  0.0055 -0.1355 -0.1557
19502W        W35311   4.276   1.092   4.727 -0.1587  0.1089  0.2852
19503W        W35312   1.747  17.635   0.687 -0.1405 -0.3258 -0.0462
19504W        W35313  11.374   5.555   0.530  0.0815  0.1329  0.0086
19505W        W35314   3.568   2.732   3.552 -0.0572  0.0429  0.0104
19506W        W35315   4.102   4.024  11.097  0.2482  0.1614 -0.0850
19507W        W35316   0.992  13.334  14.712  0.1138  0.0478  0.0252
19508W        W35317   7.940   5.999   1.967  0.1613  0.0392 -0.0857
19509W        W35318  15.430   9.784  15.687 -0.0939  0.2051  0.3040
19510W        W35319   7.371  12.231   1.412 -0.0937  0.1073 -0.0926
19511W        W35320   0.031  17.300   4.744 -0.0858  0.1149 -0.2301
19512W        W35321  14.801  15.486   3.048  0.3229 -0.4448 -0.0415
19513W        W35322   7.561  10.862  14.819 -0.2084 -0.1243 -0.0410
19514W        W35323  17.815   6.165   4.209  0.3265 -0.1758 -0.0392
19515W        W35324   7.298   5.008   4.395  0.1594  0.0401 -0.3068
19516W        W35325  12.328   7.587  11.850 -0.1584 -0.0301 -0.0310
19517W        W35326   3.238   1.575   0.003  0.4696  0.3256 -0.1131
19518W        W35327  17.944  15.705   9.748 -0.2108 -0.1348  0.2013
19519W        W35328   5.075   4.955   0.054  0.2481  0.0308  0.0806
19520W        W35329  16.065   6.442   3.809  0.0727 -0.1512  0.2599
19521W        W35330  18.458  11.949  14.524  0.1919  0.0130 -0.0921
19522W        W35331   1.910   6.071  12.757 -0.4037  0.2026 -0.1609
19523W        W35332  12.836   3.617   4.046  0.0144 -0.1407  0.0864
19524W        W35333   0.944   0.559   0.588 -0.4528 -0.1328 -0.0842
19525W        W35334   1.249   8.681  13.003  0.2249 -0.0168 -0.2974
19526W        W35335   0.230  15.248   0.018 -0.1665  0.1916  0.3450
19527W        W35336  11.445  14.699  12.783 -0.1420  0.1298  0.1743
19528W        W35337  12.789   4.292  13.251 -0.1281  0.0445  0.0157
19529W        W35338   8.555   0.674   3.058 -0.0956 -0.0258 -0.0740
19530W        W35339  15.313   6.639  11.179 -0.2376 -0.0518  0.2257
19531W        W35340  17.010  16.944  12.531  0.0645 -0.0085  0.0654
19532W        W35341  15.456  13.710   0.708  0.0027  0.1534  0.1759
19533W        W35342   1.108   4.006   4.245 -0.0402 -0.1157 -0.0868
19534W        W35343   3.680  10.020   0.403 -0.2449  0.0931  0.2137
19535W        W35344  18.542  11.405  14.666  0.2151 -0.4030 -0.1207
19536W        W35345  10.415  10.198  12.925  0.0838 -0.0879 -0.0816
19537W        W35346  18.423  13.730   1.386  0.0853 -0.2033 -0.2132
19538W        W35347   5.647  12.749   5.166 -0.1676  0.1417  0.0792
19539W        W35348   9.982   0.464   3.307 -0.2422  0.0434  0.1488
19540W        W35349   4.916   9.186  14.620  0.2096  0.1313  0.0329
19541W        W35350   8.353   5.491  14.472  0.0396  0.1997  0.1094
19542W        W35351   7.700   9.525   6.124 -0.0564 -0.0761  0.3714
19543W        W35352   4.058  10.697   2.936 -0.0287  0.1813 -0.0875
19544W        W35353   6.216   1.531   2.259  0.0761  0.0841 -0.2935
19545W        W35354  12.856   4.577   5.307 -0.1842 -0.0593 -0.1735
19546W        W35355   4.607  16.833   2.814  0.1225  0.1409 -0.1472
19547W        W35356  11.732  18.004   3.933  0.1206  0.1988 -0.2264
19548W        W35357  15.788  15.764   3.908 -0.1380  0.3797 -0.4038
19549W        W35358   8.891  18.362  14.187 -0.0913  0.2815 -0.1566
19550W        W35359  13.269   3.222   1.170  0.1261 -0.0043 -0.1464
19551W        W35360   1.550   7.851   5.594  0.0321 -0.1584  0.2304
19552W        W35361   6.784  15.909   1.523 -0.1013  0.1041  0.1289
19553W        W35362  12.594   8.667   2.210  0.2713 -0.0670 -0.2368
19554W        W35363   4.323   5.434   2.634 -0.0910  0.0920  0.1066
19555W        W35364  17.278   0.700   1.934 -0.0773  0.4668  0.0304
19556W        W35365  12.863  14.471  10.739  0.4358  0.0822 -0.5053
19557W        W35366  12.781  15.604  12.420  0.3965 -0.0023  0.0793
19558W        W35367   7.637  14.015  14.341 -0.1136 -0.0275  0.2091
19559W        W35368   3.931   8.382   1.792 -0.1564 -0.0162  0.1326
19560W        W35369   3.612  15.992   5.349  0.0162 -0.0585  0.1122
19561W        W35370   6.556   2.813   1.052 -0.0166  0.4722 -0.0841
19562W        W35371   7.339  16.120   2.901 -0.4411  0.1969  0.3010
19563W        W35372   5.329   4.469   3.667 -0.1671 -0.2689 -0.1302
19564W        W35373  15.748  12.569  14.930 -0.0632  0.3316  0.0065
19565W        W35374  14.632  14.124   3.101  0.2500  0.1458 -0.2229
19566W        W35375   6.466  15.410   2.714  0.4161 -0.1384  0.1497
19567W        W35376   3.835   2.560  12.650  0.1875  0.4032 -0.1287
19568W        W35377  18.238   1.938   2.802  0.0288 -0.2029  0.0055
19569W        W35378   8.101  15.979  12.900  0.2063 -0.0882 -0.0509
19570W        W35379  11.133   5.033   5.656 -0.1288  0.0006  0.2328
19571W        W35380   9.351  10.250  14.908 -0.2156  0.1710  0.3851
19572W        W35381  15.942  16.057   0.612  0.1448 -0.0377  0.2793
19573W        W35382   1.921  18.097   5.923 -0.2292  0.2362 -0.2931
19574W        W35383   3.224   1.160  15.401 -0.0413 -0.1097  0.1853
19575W        W35384  13.142   1.970   0.028  0.1366 -0.3712  0.0692
19576W        W35385   2.879  12.281  11.193  0.4178  0.1746  0.0481
19577W        W35386  10.938   6.384   5.499 -0.2290 -0.1371 -0.0045
19578W        W35387  14.008   3.390  15.332  0.3784  0.2267  0.3056
19579W        W35388  18.464  14.378   1.837  0.1068  0.0158  0.0689
19580W        W35389   5.695   6.106   1.285  0.1153  0.0351  0.1253
19581W        W35390  14.283   8.389   0.871  0.1015 -0.1220 -0.1759
19582W        W35391  16.907  13.129   1.917  0.1112 -0.3582  0.0074
19583W        W35392  15.001   1.419  11.723  0.1290 -0.2741 -0.1457
19584W        W35393   4.497  10.076   1.850  0.0123 -0.2090  0.0519
19585W        W35394  12.631   4.027  14.898  0.2644  0.0855 -0.0530
19586W        W35395  17.940  14.750  15.414  0.0033  0.2714  0.0450
19587W        W35396  13.748  11.468   2.575  0.0002 -0.1735  0.1541
19588W        W35397  17.500  15.894   1.820  0.0908 -0.1864  0.0137
19589W        W35398   4.458  16.175  13.562  0.3553  0.2632  0.1783
19590W        W35399  17.098  12.316  14.237 -0.2308  0.1555 -0.1538
19591W        W35400   0.182  16.217  13.470  0.2130 -0.2346 -0.0813
19592W        W35401  10.742  18.580   3.946 -0.1151 -0.0941  0.4148
19593W        W35402  14.043   2.943  15.074 -0.1696 -0.4083  0.0380
19594W        W35403  12.890  13.935  12.680  0.1307  0.1674  0.1881
19595W        W35404  17.000   2.418  15.744 -0.1475 -0.1531  0.0765
19596W        W35405   0.433   9.842   0.649 -0.0947 -0.0990  0.0974
19597W        W35406  12.761   8.885   0.525 -0.0301  0.0627 -0.0457
19598W        W35407  15.919   0.861  14.154  0.2704  0.2085  0.3449
19599W        W35408   3.151   6.474   5.011  0.0901 -0.1359 -0.1010
19600W        W35409  11.279  15.319   3.796 -0.2330  0.2888 -0.0911
19601W        W35410   6.013  13.452  12.932 -0.0782  0.1463  0.2089
19602W        W35411  13.299  17.702   2.284 -0.2057 -0.1437 -0.0947
19603W        W35412   4.621   3.902  11.008 -0.0254  0.0790  0.3745
19604W        W35413  13.835  10.511  15.086 -0.0949  0.0523  0.1148
19605W        W35414   5.532   2.965  14.608  0.0664 -0.1207 -0.4163
19606W        W35415   0.684   0.686  15.224 -0.1135  0.0597 -0.3576
19607W        W35416   9.429  11.627  14.590  0.0331  0.2766 -0.1104
19608W        W35417  10.213  14.898   0.549 -0.1431 -0.1809  0.0490
19609W        W35418   2.139  15.008   3.604  0.1135 -0.1345 -0.0267
19610W        W35419   3.051   7.205   2.670 -0.2144  0.1788  0.3084
19611W        W35420   4.203  11.966  15.700 -0.0853  0.1458 -0.1681
19612W        W35421  18.376  10.248  12.217  0.0705 -0.3384 -0.1054
19613W        W35422  11.810  13.831  13.749 -0.1568  0.1306  0.0460
19614W        W35423   8.199  11.018   5.378  0.0679  0.1279 -0.0160
19615W        W35424  13.123   9.547   0.156 -0.1686  0.0673 -0.0414
19616W        W35425  13.496  16.486   5.107  0.0294 -0.1230 -0.0867
19617W        W35426   1.235  17.417   2.162  0.0613  0.3393  0.1807
19618W        W35427  13.506   5.915   3.555  0.0003  0.1457 -0.0971
19619W        W35428   7.562   4.449  12.347 -0.1638 -0.0880 -0.1010
19620W        W35429   5.248   0.779  11.495 -0.3124  0.0221 -0.0194
19621W        W35430   5.077  15.241  15.248  0.0858 -0.1118 -0.0850
19622W        W35431  12.245   9.155   0.897 -0.0185  0.2334  0.0884
19623W        W35432   2.783   7.828  12.566  0.1698  0.3710 -0.0867
19624W        W35433  14.090   7.181   0.280  0.0195  0.0441  0.1734
19625W        W35434   1.192   0.758   1.003 -0.2013 -0.1473 -0.0233
19626W        W35435  10.484  12.694   4.931  0.6255 -0.2225  0.3649
19627W        W35436   3.815  12.124  15.020  0.0703  0.1560 -0.0471
19628W        W35437   2.821   7.521  13.550 -0.2253 -0.1487  0.1140
19629W        W35438   5.218   7.384   5.041 -0.0368  0.1568 -0.2219
19630W        W35439  13.494  13.773   0.068 -0.1811 -0.1364  0.1192
19631W        W35440  17.848  14.507   3.026  0.0111 -0.0916 -0.0357
19632W        W35441  15.029  12.235   5.817 -0.0577 -0.0154 -0.2453
19633W        W35442   7.186   5.439   1.473 -0.1027  0.1949 -0.1744
19634W        W35443  18.126   2.486   0.042 -0.1319 -0.2022 -0.3850
19635W        W35444  16.475   4.849   2.843 -0.0593  0.2264  0.1171
19636W        W35445   3.612   6.059  14.430 -0.2218  0.2153  0.0565
19637W        W35446   5.671  16.327  11.044 -0.4612  0.0044  0.0731
19638W        W35447   8.169   1.821   1.064 -0.0667 -0.3541 -0.0582
19639W        W35448  10.049   3.760  10.315 -0.0398 -0.3670  0.2387
19640W        W35449  17.861  13.032  13.390  0.0592  0.2017  0.2772
19641W        W35450   7.146   5.514   3.509 -0.2776 -0.0095  0.1836
19642W        W35451   8.116   6.004  13.956  0.0248  0.2054  0.0972
19643W        W35452   7.608  14.702   2.138  0.0838  0.1771 -0.2072
19644W        W35453   3.948  13.234  15.660 -0.0773 -0.1182 -0.0859
19645W        W35454   3.588   0.211   0.961 -0.0562  0.1202  0.3732
19646W        W35455   3.244   2.191   1.591 -0.1881 -0.0876  0.1812
19647W        W35456  12.764  15.793   2.315  0.3363  0.0367  0.3581
19648W        W35457   9.681   4.456   1.764  0.2076  0.0651  0.0333
19649W        W35458  11.822  15.635   0.402  0.1822  0.0524 -0.0906
19650W        W35459  14.146   8.084  11.696  0.2443 -0.3997  0.0649
19651W        W35460   2.701   4.018  11.490 -0.1184 -0.2460  0.0355
19652W        W35461   3.956  13.321   5.163  0.3642 -0.2803 -0.0571
19653W        W35462  13.399  13.580   2.624 -0.0815  0.1615  0.0633
19654W        W35463   5.354   8.617  15.090 -0.1108  0.1636 -0.1121
19655W        W35464   1.742   3.358  13.694  0.0645 -0.1384 -0.0319
19656W        W35465   3.738   0.624   1.236  0.2370  0.2824 -0.1845
19657W        W35466   1.604   5.555  14.263  0.1033  0.2386 -0.0219
19658W        W35467  13.499  10.725  14.777 -0.1190  0.0518 -0.0885
19659W        W35468   7.459   5.342  14.831 -0.2686  0.2688  0.3440
19660W        W35469   1.270  18.115  10.888 -0.0440 -0.1833  0.2057
19661W        W35470   2.377  17.909   3.724  0.2990 -0.0081 -0.4194
19662W        W35471  16.362   6.829   1.916  0.0314  0.0766  0.1176
19663W        W35472   3.721  15.179   5.184 -0.1360  0.2543  0.0588
19664W        W35473   8.554   7.652   0.319 -0.3705  0.3032 -0.2825
19665W        W35474  11.558  13.694   4.255 -0.1914  0.2515  0.2126
19666W        W35475  13.831   2.827  11.317 -0.1409 -0.0342  0.0432
19667W        W35476  12.982   2.878  11.341 -0.3015 -0.0852  0.1212
19668W        W35477  17.580   2.008   1.972 -0.3352 -0.0143  0.0778
19669W        W35478  11.073   1.482   1.452  0.1829 -0.1267 -0.3564
19670W        W35479   5.336   9.401  15.371 -0.0190 -0.0772 -0.1066
19671W        W35480   1.550   7.870   3.031  0.0775 -0.1292  0.1445
19672W        W35481   1.535   9.941  15.423 -0.1854 -0.1651 -0.0775
19673W        W35482  18.173  15.661  10.614 -0.3795  0.2201  0.0360
19674W        W35483   5.829  13.722  10.964  0.0047 -0.1569  0.1163
19675W        W35484  14.510   0.394  11.386  0.1606 -0.2417  0.0285
19676W        W35485  15.581   4.015  12.795  0.1363  0.2417  0.0956
19677W        W35486   5.440   0.530  15.053  0.1553  0.0358 -0.0494
19678W        W35487  17.530   3.982   0.303 -0.3210  0.1035  0.3014
19679W        W35488   9.377   5.226   0.408  0.2055 -0.0914 -0.1183
19680W        W35489   6.879  13.663  14.126 -0.0494 -0.1542  0.1377
19681W        W35490  11.700  18.373   2.066 -0.1007  0.0992 -0.0234
19682W        W35491  18.309  17.660   1.808  0.0765  0.1731 -0.2902
19683W        W35492   8.268   7.666  10.083  0.0380  0.2155  0.1624
19684W        W35493   1.774  16.676   4.536 -0.2238 -0.2337  0.0504
19685W        W35494   8.295   8.140  13.880 -0.0029 -0.0960 -0.1152
19686W        W35495  11.374  14.905   3.424 -0.1442  0.1781  0.2429
19687W        W35496   7.149   3.330   2.856  0.1108 -0.3204  0.0159
19688W        W35497   3.833   7.425   4.217 -0.0787 -0.0656  0.1946
19689W        W35498  16.455   6.191  11.804 -0.2841 -0.0847  0.1545
19690W        W35499  14.352   5.024   3.752  0.1526  0.2037 -0.2341
19691W        W35500  16.086   7.880  13.107  0.2414  0.0753  0.0041
19692W        W35501  14.938   8.078   2.646 -0.0811  0.1230 -0.3185
19693W        W35502   0.966   5.955   5.736  0.0228  0.0676 -0.4011
19694W        W35503   8.135   7.676  13.922  0.3348 -0.3913  0.2140
19695W        W35504  18.538  11.281  15.264  0.1186 -0.1612 -0.0711
19696W        W35505   0.886   5.542  11.744 -0.0661  0.0866 -0.2708
19697W        W35506   3.505  10.869  12.672  0.2623  0.0413  0.0661
19698W        W35507   4.195  15.072   5.626 -0.2150 -0.1217 -0.3604
19699W        W35508   5.607  16.936   3.464 -0.1182  0.2527  0.1472
19700W        W35509   3.410   4.174   3.436 -0.3264 -0.0188 -0.2353
19701W        W35510  14.906   3.023  11.313  0.2890 -0.3026 -0.2515
19702W        W35511   3.942   8.358   1.263 -0.1464 -0.1649  0.0411
19703W        W35512  10.628   3.938   5.132 -0.1552 -0.1508  0.1473
19704W        W35513  11.145  15.144   1.505  0.0776 -0.0297  0.2948
19705W        W35514  12.074   4.763   3.751 -0.1473  0.0780  0.2588
19706W        W35515   6.119  10.375   0.939  0.0013  0.0417 -0.0470
19707W        W35516   9.437  18.493  11.579 -0.0104  0.0154 -0.0096
19708W        W35517   0.889   6.197   0.050  0.0716  0.1681 -0.1183
19709W        W35518   7.408   8.583  11.228  0.1255  0.2297  0.3584
19710W        W35519   0.636  10.871   0.602 -0.3197  0.0164 -0.0542
19711W        W35520   7.471   1.072  14.993 -0.2204  0.0189 -0.0460
19712W        W35521  18.089   0.540  12.968  0.0790  0.0644  0.1613
19713W        W35522  15.995  13.676   0.271 -0.1568 -0.1124  0.0497
19714W        W35523   1.420   3.743  14.442 -0.0690 -0.0672  0.2388
19715W        W35524   8.655   4.862   5.022 -0.3423  0.2034 -0.0811
19716W        W35525   7.830  16.978  15.688 -0.2225 -0.2000 -0.2869
19717W        W35526  15.562   6.475   4.730  0.0229  0.0797 -0.1361
19718W        W35527   5.342   8.170   3.416  0.2137  0.1586  0.0893
19719W        W35528   7.100  11.253   1.565 -0.0990  0.2917 -0.3194
19720W        W35529  14.010   4.771   0.776 -0.0267 -0.1146 -0.0488
19721W        W35530  14.895  11.256  12.768  0.0684  0.2600  0.0871
19722W        W35531   1.826  16.306   2.263  0.0440 -0.3777 -0.1302
19723W        W35532  10.528   2.267   3.260  0.0594  0.0424 -0.4172
19724W        W35533   1.971  11.460  12.270  0.0551 -0.2496  0.1241
19725W        W35534  18.420  18.479   1.772 -0.0680 -0.1026  0.2319
19726W        W35535   5.034   3.393   1.863  0.0232  0.2058 -0.1433
19727W        W35536   1.690  13.768   3.607 -0.1447  0.0245  0.1897
19728W        W35537   7.828  12.139  12.825  0.0486  0.0592 -0.3134
19729W        W35538   3.268  13.491   1.629  0.1069  0.4446 -0.1638
19730W        W35539   8.363   3.614   0.231  0.0304 -0.1489 -0.0776
19731W        W35540  11.621   0.573  13.574  0.0047 -0.0714  0.1125
19732W        W35541  10.288  15.286   3.423 -0.1548  0.0436  0.2990
19733W        W35542  11.560  18.601  15.713  0.0140 -0.0203 -0.2159
19734W        W35543   2.519  13.395   4.325 -0.3902  0.2699  0.1400
19735W        W35544   9.101   0.369   3.881  0.2441  0.2904 -0.3841
19736W        W35545  11.920   1.855  15.222  0.2399 -0.0725 -0.1277
19737W        W35546  11.700   2.502   5.630  0.0509 -0.0360 -0.2178
19738W        W35547  16.058  13.576  13.416  0.0190  0.1864  0.0630
19739W        W35548  12.651   5.949  12.503  0.2067  0.4211  0.3236
19740W        W35549  17.300  14.270   4.683  0.3449  0.2791 -0.0421
19741W        W35550  14.603   4.332  14.291  0.4024 -0.2290 -0.1584
19742W        W35551   2.823   5.705   2.445 -0.2369  0.3533  0.4666
19743W        W35552   0.289   0.285   1.627 -0.1240  0.0835 -0.2029
19744W        W35553   0.551   7.276  15.709 -0.2634 -0.0704  0.2437
19745W        W35554  15.209  11.003  10.847 -0.3001  0.0073 -0.2798
19746W        W35555   8.531   9.218   3.080 -0.7019 -0.3766  0.0774
19747W        W35556  12.061   4.947  15.212 -0.1442  0.0455 -0.1561
19748W        W35557  15.683  14.038  14.821 -0.0401 -0.2545 -0.0023
19749W        W35558  16.811   7.274   3.098 -0.1491  0.0595  0.0553
19750W        W35559  17.949  18.256  10.775  0.0876 -0.2648 -0.2831
19751W        W35560  10.646   9.140  15.691 -0.0386  0.0427 -0.0846
19752W        W35561  16.518   6.717  11.615  0.2477  0.0787  0.1217
19753W        W35562   9.421   4.048   3.370 -0.2304 -0.0872  0.1584
19754W        W35563  16.569  10.925  15.217 -0.2264  0.1942 -0.1396
19755W        W35564  16.377  13.977   4.851 -0.1188 -0.1209 -0.2681
19756W        W35565  13.517  14.795  14.660  0.0451  0.1539  0.3986
19757W        W35566  16.489  11.061   2.909  0.2290  0.1730  0.1517
19758W        W35567  13.531  16.388  11.662  0.2223  0.2623  0.0300
19759W        W35568  12.110   2.795  12.837  0.0793  0.2069  0.3127
19760W        W35569   4.957  17.060  10.109  0.2528  0.0183  0.0462
19761W        W35570  15.117   1.129  11.316 -0.1956 -0.0150 -0.1894
19762W        W35571   9.570   3.625  14.470 -0.2591 -0.0576  0.0847
19763W        W35572   9.488  10.776  14.948 -0.1659 -0.0176  0.1332
19764W        W35573  16.875   1.901  10.634  0.4827 -0.1265 -0.1626
19765W        W35574  13.940   9.804   1.407 -0.1488  0.5603 -0.2071
19766W        W35575   7.581   0.776  11.713  0.0685  0.1758  0.2865
19767W        W35576  16.223   6.981   3.666  0.1945 -0.0109 -0.0533
19768W        W35577  14.142  16.623   0.018 -0.0786 -0.0784 -0.1126
19769W        W35578  15.435   1.610  13.198  0.1773  0.1069 -0.0949
19770W        W35579   8.470   0.748   3.599 -0.2508  0.1699  0.1975
19771W        W35580   0.568  15.019   1.371  0.0603  0.0509  0.1090
19772W        W35581   3.236   0.127   0.602 -0.0275 -0.1010  0.0096
19773W        W35582   2.017   7.407   4.855 -0.6015 -0.0099 -0.0645
19774W        W35583   2.326  17.019  13.899 -0.0738  0.0915 -0.0016
19775W        W35584   0.188   8.652   3.455  0.0071 -0.1829 -0.0599
19776W        W35585   4.185   6.748   1.240 -0.1087 -0.1837  0.1288
19777W        W35586  12.083   9.951  11.177 -0.3399  0.1718  0.0938
19778W        W35587  17.535   5.452   4.992  0.2083 -0.2723 -0.4167
19779W        W35588   5.613  15.181   3.844  0.2535  0.2541 -0.0537
19780W        W35589   5.799   7.164   0.083  0.0940  0.0541 -0.1675
19781W        W35590  18.278  15.990  13.571 -0.3810  0.0241 -0.0243
19782W        W35591  10.427  15.177  10.865  0.2579  0.1996 -0.0009
19783W        W35592  12.699  13.595   5.806  0.3188  0.1356  0.2485
19784W        W35593  12.175  15.064  14.453  0.4561  0.3427 -0.1956
19785W        W35594   8.373  12.997   0.124  0.1410  0.1891 -0.2241
19786W        W35595   4.431   9.044   5.792  0.2265  0.2495 -0.2516
19787W        W35596   6.503  10.671  13.699 -0.1715 -0.1767  0.1983
19788W        W35597   4.274   0.042  12.198 -0.2189  0.0538 -0.0474
19789W        W35598  13.876  14.389   0.967  0.2334 -0.1161  0.1405
19790W        W35599   4.432   4.602   2.229  0.1229  0.0503 -0.0391
19791W        W35600  17.878  13.084  12.528 -0.0617 -0.1076 -0.0357
19792W        W35601   4.485   7.889  14.704 -0.1266  0.2848  0.0173
19793W        W35602  13.013   7.356  14.096  0.1423  0.1847  0.2011
19794W        W35603  10.377  12.818  14.217  0.1721  0.1589 -0.0683
19795W        W35604  13.666   1.867   2.086  0.1121  0.1007  0.1531
19796W        W35605   9.118  11.110   5.815  0.2191  0.0009  0.0294
19797W        W35606  10.375   1.017   1.104  0.1406 -0.1916  0.0116
19798W        W35607   5.676   3.504   4.327  0.0128 -0.2420  0.2938
19799W        W35608   9.932  11.631   2.495 -0.1363  0.1691 -0.0951
19800W        W35609  15.857   8.723   0.006  0.0720  0.0470  0.2113
19801W        W35610   0.659   6.301   2.524 -0.0002 -0.0905 -0.1006
19802W        W35611   8.557  11.752  11.660  0.3160  0.0732  0.3463
19803W        W35612   1.636   8.584   4.011 -0.1539 -0.0194  0.0520
19804W        W35613   9.406  11.121   3.927 -0.0078  0.1002 -0.1371
19805W        W35614  16.656  12.949   0.924  0.1039  0.1936 -0.1126
19806W        W35615   1.922  14.252  11.251  0.0816 -0.3520 -0.2868
19807W        W35616  16.407   9.092   4.359 -0.0694 -0.0548  0.0570
19808W        W35617   8.164   4.798   3.921 -0.0689 -0.0374 -0.3695
19809W        W35618   9.300  13.111   3.926  0.0267  0.0123  0.0429
19810W        W35619  15.157  18.128   3.580  0.1547  0.2082  0.3722
19811W        W35620  13.409   2.379   2.148  0.0608  0.0743  0.1287
19812W        W35621   5.555   0.422   1.918  0.0883 -0.4600 -0.1318
19813W        W35622  17.745  11.137  13.454 -0.0275 -0.3446 -0.0085
19814W        W35623   0.178  11.940   1.264 -0.0574  0.1191 -0.3793
19815W        W35624   5.827  12.756  15.142 -0.0116  0.1315  0.2027
19816W        W35625  11.387   6.823  11.222  0.0885  0.1988 -0.0589
19817W        W35626  17.430   6.377   0.957  0.1405 -0.3959 -0.2218
19818W        W35627   7.177  17.328   2.052 -0.4246 -0.0507 -0.0215
19819W        W35628   6.484  14.713   4.191  0.1169 -0.1063 -0.0026
19820W        W35629  15.679  12.609  12.618 -0.1524  0.0766  0.1843
19821W        W35630   4.144  12.206   5.215  0.0374 -0.1406 -0.0037
19822W        W35631   2.772  16.168   5.539 -0.4170 -0.1252  0.1403
19823W        W35632  11.935  10.245  11.561 -0.1797  0.0686 -0.0078
19824W        W35633  10.383   4.052  12.812  0.1880 -0.0045  0.0467
19825W        W35634  18.049   0.826  15.481 -0.0209  0.0235  0.4474
19826W        W35635   5.042  13.190  10.933 -0.1617 -0.1451  0.1794
19827W        W35636   9.896  14.250   5.179  0.2429  0.2220  0.0785
19828W        W35637  11.317   7.993  14.351 -0.1879 -0.1451 -0.0222
19829W        W35638  12.691   0.880  15.561  0.3805  0.0970 -0.1292
19830W        W35639  14.890  17.269  15.235 -0.1136 -0.0063  0.0054
19831W        W35640   9.033   7.653  12.960 -0.1743 -0.0145  0.1238
19832W        W35641  14.748  13.469   4.355 -0.0196 -0.1833  0.0032
19833W        W35642   6.701   0.784   3.517 -0.0132 -0.1983 -0.2110
19834W        W35643   7.491   5.870  14.843 -0.3214 -0.0961 -0.0502
19835W        W35644   6.342  12.224  14.868  0.3399 -0.1088  0.0008
19836W        W35645  11.761   8.527   4.115  0.0039  0.0877 -0.5174
19837W        W35646  11.017   2.837   5.969  0.1090 -0.1046 -0.0763
19838W        W35647   2.007  12.892   6.094  0.0459 -0.0304  0.0111
19839W        W35648  17.847   9.133  12.594 -0.0530 -0.0578  0.0127
19840W        W35649   7.792   7.511   1.882 -0.2278  0.1244 -0.4076
19841W        W35650  17.358  18.594   1.440 -0.0047 -0.0644  0.1413
19842W        W35651  11.239   8.260   3.730  0.1586  0.0743 -0.2009
19843W        W35652   7.451   2.537   0.822  0.0047 -0.1804  0.2435
19844W        W35653   9.980  17.336   5.379 -0.3156  0.1651 -0.0590
19845W        W35654   5.148   1.521   1.732  0.0008  0.2487  0.0712
19846W        W35655  13.629  15.878  10.413  0.0296  0.1536 -0.2307
19847W        W35656  12.638   2.348   4.408  0.2250  0.2341  0.2724
19848W        W35657  16.755  11.948   1.332 -0.1515 -0.0548 -0.2710
19849W        W35658  15.749   7.598  14.141  0.2049  0.1373  0.0608
19850W        W35659  17.847  14.303   2.541 -0.0829  0.0178  0.3025
19851W        W35660  14.384   7.486  12.306  0.0928  0.0237  0.0117
19852W        W35661   5.355   2.108  13.661 -0.5128  0.0632  0.2026
19853W        W35662   8.728  11.653  13.341 -0.3658  0.0735 -0.1147
19854W        W35663  18.405  10.840  14.988  0.0356 -0.1997 -0.0509
19855W        W35664   4.217   9.544   2.411  0.2930 -0.0558  0.4280
19856W        W35665   9.639  15.805   5.622 -0.1205 -0.4094 -0.2107
19857W        W35666  15.630   3.128  11.657  0.2804 -0.0488 -0.1237
19858W        W35667  18.616   5.397   2.539 -0.1136 -0.2199 -0.1332
19859W        W35668   7.201  18.664   0.328  0.2012 -0.1961 -0.0782
19860W        W35669   3.890   2.321   9.966  0.0463 -0.0737 -0.0210
19861W        W35670   2.731   3.229   4.051  0.1136  0.1170 -0.1347
19862W        W35671  17.625   5.459   3.583 -0.0339 -0.2593 -0.1235
19863W        W35672   5.049  10.626  15.724  0.1459 -0.1236  0.2603
19864W        W35673   5.451   6.655  12.267  0.0758  0.2228  0.1197
19865W        W35674   1.691  10.951  14.217 -0.1561 -0.3114 -0.0037
19866W        W35675  17.180   1.151   2.942  0.0883 -0.1780 -0.1623
19867W        W35676  16.886   8.951   0.587 -0.3616 -0.1508  0.1359
19868W        W35677  12.885   7.838   0.489 -0.2450  0.2353 -0.1207
19869W        W35678   3.027  14.851   2.670 -0.1026  0.0651  0.0324
19870W        W35679  12.220   6.021  13.283  0.0285  0.1469 -0.2898
19871W        W35680  18.036   5.129   2.170  0.2099 -0.2020  0.0427
19872W        W35681  14.808   7.204  13.396 -0.0179 -0.1552 -0.3052
19873W        W35682  12.409   3.998   4.738 -0.0227  0.0265 -0.2807
19874W        W35683   9.461   4.367   0.631 -0.0745 -0.1802  0.0454
19875W        W35684   6.855  10.782   0.543 -0.1435  0.3122  0.2575
19876W        W35685   5.620   8.311   3.923  0.3787 -0.0858 -0.1414
19877W        W35686  10.797   6.371  11.364 -0.0959 -0.0583 -0.1475
19878W        W35687   7.230   5.674  15.325 -0.0748 -0.0207  0.1214
19879W        W35688  13.346  13.699  12.016  0.1656 -0.2134 -0.4059
19880W        W35689   8.033  17.213   3.409  0.0379  0.0636  0.1658
19881W        W35690  16.873  11.262   1.508  0.0416 -0.0977  0.1865
19882W        W35691  13.915  15.135   0.427  0.1006 -0.0005  0.0530
19883W        W35692  10.178   0.469  13.343  0.1294 -0.1119  0.3802
19884W        W35693   1.667   2.067  13.561  0.1026 -0.1318 -0.1438
19885W        W35694   7.404  14.870  15.737  0.0100 -0.2321 -0.0461
19886W        W35695  11.941   6.549  14.295 -0.3320  0.3020 -0.0232
19887W        W35696   6.560  12.589   3.379 -0.2632 -0.3251 -0.2810
19888W        W35697  11.699   2.392   1.386  0.2348 -0.2968 -0.0494
19889W        W35698   5.924   7.980  15.250 -0.0938  0.1418  0.0431
19890W        W35699   1.702  15.501  12.981  0.2543 -0.2403 -0.0956
19891W        W35700   7.667   8.290  14.301  0.0663  0.0713  0.1180
19892W        W35701  15.741   4.360  12.015  0.0054 -0.2942  0.0459
19893W        W35702   5.184   4.552   1.547 -0.0382 -0.0935 -0.1467
19894W        W35703  12.117   2.817  14.783 -0.0701 -0.0704  0.1572
19895W        W35704   5.564  14.097  11.191 -0.1499  0.2547  0.1158
19896W        W35705  15.016   7.229  10.898 -0.6926 -0.1284  0.1745
19897W        W35706  16.279  16.758  15.694 -0.4011  0.0006  0.1496
19898W        W35707   6.125  10.985   1.020  0.0822 -0.0313 -0.7101
19899W        W35708   6.189  17.759   0.911 -0.2863 -0.0138 -0.1174
19900W        W35709   0.925  10.147   4.386  0.0679 -0.0639  0.2366
19901W        W35710   0.287  11.735  14.565  0.1408 -0.2246  0.2443
19902W        W35711   4.825  11.810   4.596 -0.1284 -0.0849  0.1271
19903W        W35712   6.008  14.277  14.823  0.1411  0.3436  0.1376
19904W        W35713  14.701   4.100  13.772 -0.1765 -0.3821 -0.0188
19905W        W35714   3.401   0.227   0.147  0.0679  0.0320  0.0600
19906W        W35715   3.390  13.503  11.721  0.2425  0.0962  0.0050
19907W        W35716  15.490  13.981  11.932 -0.1251  0.1377 -0.0274
19908W        W35717   4.714   9.029  11.888 -0.1655  0.2385  0.1636
19909W        W35718   0.242   0.226   2.380 -0.0213  0.0984  0.2624
19910W        W35719   2.546  16.557   3.840  0.0568  0.1808 -0.1179
19911W        W35720  13.885  16.756   3.276  0.3494 -0.1012  0.0663
19912W        W35721   9.728   9.410   0.451 -0.2402 -0.0029 -0.1880
19913W        W35722  17.703   5.376   3.037  0.2290  0.1504  0.0505
19914W        W35723  10.103   5.832  11.588  0.1292  0.0392  0.0592
19915W        W35724  13.371  15.687   4.029  0.2174 -0.0633 -0.1553
19916W        W35725   1.589   4.982  12.163 -0.1182  0.0501  0.0389
19917W        W35726  14.847   1.743  12.120  0.2388  0.4418 -0.1048
19918W        W35727   4.586   3.108  12.063 -0.3041 -0.0631 -0.0743
19919W        W35728   9.979  13.298  13.434 -0.0627  0.0652 -0.2911
19920W        W35729   8.989   9.066  11.802  0.1571 -0.1553  0.0051
19921W        W35730  15.124  10.241   1.842 -0.3096 -0.0171  0.3309
19922W        W35731   8.019  12.470   6.009 -0.2602 -0.2675 -0.1428
19923W        W35732  11.205  10.752   0.912 -0.2772 -0.2856 -0.2641
19924W        W35733   6.988  17.824  13.102 -0.0351  0.2138  0.1736
19925W        W35734   5.571  11.762  14.220  0.0679 -0.1935 -0.1571
19926W        W35735   4.765   6.237  11.915  0.2412  0.0663 -0.0265
19927W        W35736   0.749  15.337  10.875 -0.2986 -0.1748  0.0083
19928W        W35737  10.433  18.473   2.506  0.2492  0.2152  0.1765
19929W        W35738  14.331  13.118  12.553  0.0767 -0.2101 -0.3187
19930W        W35739   7.271  13.490   2.675 -0.1812  0.1262 -0.0581
19931W        W35740  15.783  14.341  12.208  0.0801 -0.2266 -0.2133
19932W        W35741  17.964   1.100   2.992  0.1161 -0.2230  0.1300
19933W        W35742   0.438   0.421  12.967  0.3436 -0.1646  0.0890
19934W        W35743  18.334   9.576  13.091 -0.0487  0.3185 -0.2702
19935W        W35744   6.294  15.695   0.543  0.1067 -0.1218  0.0454
19936W        W35745  15.630   1.492   4.349  0.1589  0.2270 -0.0715
19937W        W35746  17.587   7.560  13.089 -0.3201 -0.0165  0.1732
19938W        W35747  11.763  15.443  15.518  0.1953  0.2610 -0.0820
19939W        W35748  17.054  18.459  10.643  0.0126 -0.0120  0.0971
19940W        W35749  13.038   6.504   1.004 -0.0527  0.0690  0.1641
19941W        W35750   4.564   9.616  12.949  0.0261  0.2168  0.3383
19942W        W35751   0.508  16.462   0.855 -0.0901 -0.2487  0.3371
19943W        W35752   1.523  14.451   3.168  0.0648  0.1384  0.0557
19944W        W35753   1.875  17.542   0.145 -0.0665  0.1684 -0.3186
19945W        W35754  17.726  12.248  15.014  0.0844  0.2001  0.0867
19946W        W35755   6.192  12.595  10.478 -0.3231  0.0048  0.2121
19947W        W35756   3.994  17.520  13.512  0.2438 -0.0832  0.0533
19948W        W35757  15.980  12.239  14.390 -0.1638 -0.0099  0.1415
19949W        W35758   1.645   4.767   0.276 -0.0730  0.0368 -0.2311
19950W        W35759   2.404   2.839   1.247 -0.0104 -0.2960 -0.1533
19951W        W35760  18.269   6.513   4.294 -0.0595  0.1882 -0.0797
19952W        W35761   3.505   8.924   5.172 -0.0460 -0.0633 -0.3053
19953W        W35762   8.251   4.518  14.362 -0.1509 -0.0812 -0.0745
19954W        W35763  16.126  11.997  10.063  0.2965  0.2610 -0.1570
19955W        W35764  13.421  10.246   3.398 -0.1667 -0.0298  0.2283
19956W        W35765   1.971   2.737   1.725 -0.0482 -0.1894  0.0664
19957W        W35766  13.301   5.673   0.375 -0.0348 -0.1057  0.0645
19958W        W35767   0.607   8.561   0.229  0.1857  0.1055 -0.1737
19959W        W35768  11.186  12.765  15.290  0.0033  0.1844 -0.0519
19960W        W35769   1.874  17.892   9.567 -0.3609 -0.0068 -0.1283
19961W        W35770  16.615   3.296   3.734 -0.0455 -0.1348 -0.0269
19962W        W35771   9.931   2.202  10.920 -0.1015 -0.0273 -0.0298
19963W        W35772   6.504  15.480   5.633 -0.4931  0.1347 -0.1212
19964W        W35773   7.999  16.422  11.090 -0.1133  0.2281 -0.1131
19965W        W35774   2.335   8.818  14.968 -0.1399  0.2952  0.0227
19966W        W35775  12.934  13.913   1.451  0.4116  0.0351  0.1917
19967W        W35776  12.541   1.226   1.036  0.3603  0.2798  0.3024
19968W        W35777  18.505   4.429   3.963  0.0862  0.4476 -0.2125
19969W        W35778   4.919   0.945   3.329 -0.0365 -0.0664  0.2677
19970W        W35779   4.437   1.949   4.278  0.0814  0.0060 -0.0984
19971W        W35780   8.283  18.278   0.395 -0.0619  0.0506  0.1683
19972W        W35781   4.455  12.624   5.151  0.0990 -0.3274  0.0145
19973W        W35782   2.288   0.779  14.301  0.1756 -0.0805 -0.0462
19974W        W35783  13.154   2.281   3.532 -0.7090  0.1372  0.0346
19975W        W35784  15.975  11.480  13.753  0.1283  0.1927 -0.3529
19976W        W35785  16.042  15.850  11.052  0.0924  0.0586 -0.3444
19977W        W35786   0.812  16.283  12.798 -0.1042 -0.0886  0.2745
19978W        W35787  14.670  17.465  13.758  0.2290 -0.2530 -0.0376
19979W        W35788   8.848   2.084  14.556  0.0328  0.0859 -0.2617
19980W        W35789  16.659  16.194   4.067  0.3967 -0.1638 -0.1045
19981W        W35790  15.153  11.201   2.003  0.0016  0.1092 -0.1995
19982W        W35791   6.246   5.346   4.915 -0.0325  0.0337  0.1116
19983W        W35792   9.896   9.949   9.916  0.1839  0.0578  0.1201
19984W        W35793  10.860   4.098  11.219 -0.2612  0.1315  0.2131
19985W        W35794  10.675   3.663   3.490  0.3567  0.0386  0.0214
19986W        W35795  14.560   6.932   5.315 -0.4803 -0.0877 -0.3885
19987W        W35796   5.028   8.014   5.512  0.0130 -0.2431  0.1716
19988W        W35797  14.398  12.762   0.750 -0.2394  0.0473 -0.1889
19989W        W35798  18.509   2.856  12.342  0.1211  0.1215 -0.4970
19990W        W35799   5.592  15.725   1.581 -0.0400 -0.1393  0.0964
19991W        W35800   2.092  16.862   5.188  0.2943  0.0087  0.3186
19992W        W35801   9.060  13.212   4.691  0.1705  0.0863  0.2997
19993W        W35802  12.056   4.725   3.064 -0.0201  0.2533 -0.0157
19994W        W35803   3.817  16.655   0.368 -0.2635  0.0234  0.0440
19995W        W35804  15.061   6.347   4.895 -0.0332 -0.0751 -0.0680
19996W        W35805  12.990  10.447  13.242  0.0080  0.1033  0.1029
19997W        W35806   6.231   5.683  15.524 -0.0876  0.1795  0.1841
19998W        W35807  13.241  18.267  15.404  0.0605 -0.2636  0.1901
19999W        W35808  11.099   4.013   4.865 -0.2807  0.0365  0.0887
20000W        W35809   2.701   6.895  15.326  0.0865 -0.2276 -0.1369
20001W        W35810  10.602   8.781  11.754 -0.1139  0.4328  0.1315
20002W        W35811  10.567  17.948  12.568 -0.2409 -0.1856 -0.0362
20003W        W35812  16.275   0.357   1.971  0.1400 -0.0092 -0.1604
20004W        W35813  17.554  18.133   3.339 -0.2226  0.0938 -0.5177
20005W        W35814   1.380   0.762  12.340  0.0072  0.2296 -0.0438
20006W        W35815  12.121   0.757   2.275 -0.0707 -0.2501  0.2413
20007W        W35816   0.039  17.413  13.694 -0.0361 -0.2928 -0.0413
20008W        W35817   7.803  15.347   1.545 -0.0398  0.2768 -0.0822
20009W        W35818  10.167  18.007   2.484  0.1638 -0.1125  0.3884
20010W        W35819  16.560   8.152   4.285  0.1286  0.0352 -0.0788
20011W        W35820   9.699   0.272   4.471  0.0699  0.1804  0.1013
20012W        W35821  17.465  16.126  11.410 -0.3771  0.3925  0.2517
20013W        W35822  15.834   1.950  12.450 -0.1221 -0.1994  0.3153
20014W        W35823   3.767   7.890   1.993 -0.1724 -0.0993 -0.1953
20015W        W35824  15.917  16.058   3.578  0.0496  0.0194  0.3282
20016W        W35825  12.390   6.756  12.955  0.0867  0.0404 -0.1120
20017W        W35826   3.783  17.828  12.508 -0.7037  0.3769  0.0199
20018W        W35827   4.383   5.835  11.949 -0.1902  0.0920  0.1913
20019W        W35828   6.929  17.864   0.524 -0.1502 -0.1932 -0.1636
20020W        W35829  17.491  12.812   0.581 -0.0068 -0.0463 -0.0461
20021W        W35830   5.274  13.063   4.915 -0.0090  0.1844 -0.0745
20022W        W35831   7.085  11.697   4.669  0.0958  0.0005  0.0383
20023W        W35832  15.774  11.999  14.977  0.1138 -0.0117 -0.2517
20024W        W35833  17.022  10.386   1.795 -0.5742 -0.0636  0.1953
20025W        W35834   8.855   0.105   5.880  0.3099 -0.0083  0.3543
20026W        W35835  17.324   3.345   0.228  0.1793 -0.0198  0.4262
20027W        W35836   2.960   1.877   4.370  0.0157  0.0178 -0.0510
20028W        W35837  12.800  16.324   9.198  0.0722  0.1141  0.1620
20029W        W35838  14.008   5.996   1.531  0.0860  0.3719 -0.1027
20030W        W35839   9.580  17.794   3.997 -0.1531 -0.0013 -0.1083
20031W        W35840  15.338   0.074   3.995  0.2983 -0.0952  0.5449
20032W        W35841  17.327   7.679   3.131 -0.3532 -0.0920  0.1896
20033W        W35842   8.501  16.447   3.747  0.0726 -0.1952 -0.0810
20034W        W35843  10.333  11.968  10.417  0.0963 -0.1311  0.4061
20035W        W35844  10.459   3.225   2.947 -0.1976 -0.3230 -0.0232
20036W        W35845  11.940   4.828   1.191 -0.0230  0.1634  0.0714
20037W        W35846   5.760   2.406  13.789 -0.0430 -0.2378 -0.1888
20038W        W35847  12.309  17.212  15.283  0.0358  0.1026 -0.1659
20039W        W35848  10.379  15.112   1.828 -0.2119  0.1977  0.2124
20040W        W35849   5.655   6.199   4.498  0.0969  0.0738 -0.1044
20041W        W35850   5.483  11.513  15.595  0.1616 -0.0281  0.0350
20042W        W35851  16.713  10.544  13.020 -0.1526  0.3152  0.2627
20043W        W35852   4.399   8.672   0.587  0.1375 -0.0707 -0.3061
20044W        W35853  16.819   2.227   2.210  0.2473 -0.0297 -0.0608
20045W        W35854   6.188   8.916   5.793  0.1634 -0.0376 -0.0959
20046W        W35855  16.090  18.242   4.946 -0.0453 -0.2268  0.0244
20047W        W35856  15.951   3.650   1.983  0.3344 -0.2301  0.0019
20048W        W35857  17.922   3.581  14.124 -0.1526  0.1060 -0.1732
20049W        W35858   3.581   8.315   0.206  0.0987 -0.0689 -0.2794
20050W        W35859  16.384   4.022   4.943  0.0447 -0.3016  0.2084
20051W        W35860  10.424  15.609  11.367  0.0003 -0.2327 -0.4441
20052W        W35861  18.229   7.645   0.080  0.0508 -0.0519 -0.2079
20053W        W35862   9.797   1.055   1.785 -0.0212 -0.0709  0.0652
20054W        W35863   0.441   5.260   2.563  0.4359  0.0281  0.1777
20055W        W35864  16.481   9.860   2.274 -0.1031 -0.2671 -0.0402
20056W        W35865   0.788   5.541   2.989 -0.2336 -0.0407  0.0381
20057W        W35866   9.906  11.149  10.672 -0.2448  0.0641 -0.0684
20058W        W35867  15.562   7.041  10.904  0.1378 -0.2011  0.0060
20059W        W35868   9.629   3.371  11.155 -0.2697  0.0813 -0.0670
20060W        W35869  16.078   4.561  14.494 -0.0339 -0.4081  0.1247
20061W        W35870  17.952   2.548  14.926 -0.1044  0.5385  0.1661
20062W        W35871  13.555  16.546   4.057 -0.0037  0.2377 -0.1177
20063W        W35872   4.733   7.652   2.830 -0.1070 -0.1917  0.1064
20064W        W35873  13.856   1.950   4.142 -0.0699 -0.0556  0.0310
20065W        W35874  15.489   8.871   0.345  0.1000  0.0280 -0.1822
20066W        W35875   1.230   5.244   5.488  0.2284 -0.3158  0.0625
20067W        W35876   7.487  13.389  11.974 -0.2419 -0.0361  0.1180
20068W        W35877  14.153  14.858   5.418  0.1091 -0.2379  0.0433
20069W        W35878  14.130   7.614   2.969  0.1359  0.0583 -0.2927
20070W        W35879   1.569  17.322   1.022 -0.1829  0.1499  0.0444
20071W        W35880   3.031  12.574  15.265  0.0304 -0.0018 -0.0107
20072W        W35881   1.986  10.282  11.409 -0.3147 -0.2471  0.0758
20073W        W35882   7.591   9.076   2.843  0.0631 -0.0582  0.0017
20074W        W35883   7.353   8.403  14.678  0.0160  0.0908  0.0372
20075W        W35884   5.535   0.036  13.787  0.1921  0.0887 -0.1859
20076W        W35885   5.768   9.148  13.958 -0.0333  0.0284 -0.0561
20077W        W35886   6.504   5.653   3.061 -0.1376 -0.0351  0.2205
20078W        W35887   5.927  14.931   0.164 -0.1429 -0.2568 -0.0237
20079W        W35888  12.455  10.885   3.513  0.1364 -0.0632 -0.2727
20080W        W35889   4.321  11.300  14.537  0.0250 -0.1606  0.1554
20081W        W35890   5.834  10.890   0.286  0.3124  0.0662  0.2621
20082W        W35891   3.564   5.952  13.598  0.0496  0.2032  0.2443
20083W        W35892   0.448   8.707   2.059 -0.0011 -0.0018 -0.0492
20084W        W35893   8.385  17.006  14.556  0.1040  0.1807 -0.1704
20085W        W35894  15.992  11.741  10.941 -0.2815  0.1603  0.1356
20086W        W35895  13.443   7.188   9.399 -0.0635  0.1961 -0.1170
20087W        W35896  17.092  13.539   4.617  0.1606 -0.1612 -0.0561
20088W        W35897  11.410  16.670   4.269 -0.0772  0.0626 -0.0849
20089W        W35898  16.117  14.992  13.809  0.0231 -0.1598 -0.2652
20090W        W35899   2.578   6.102   3.812 -0.3257  0.3521  0.1064
20091W        W35900   5.810   5.725   3.412 -0.2095 -0.0386 -0.1479
20092W        W35901  14.106   2.253   4.418 -0.1531 -0.2663 -0.3006
20093W        W35902  14.191   7.683  13.830 -0.0727 -0.0776  0.0001
20094W        W35903   5.545  11.992   0.441  0.1264  0.2134 -0.2112
20095W        W35904   5.176  14.558   0.314 -0.2393 -0.2222 -0.1035
20096W        W35905  15.014   1.212   3.516  0.0659 -0.1181  0.1734
20097W        W35906   4.835  18.236  10.976  0.1751  0.0489  0.1354
20098W        W35907   8.672  16.054  14.821  0.1730 -0.0194  0.0962
20099W        W35908   8.784   9.284  13.227 -0.1208 -0.0831 -0.3357
20100W        W35909   2.709  12.810  15.626 -0.0685  0.2813  0.0942
20101W        W35910   6.332   0.045   2.787 -0.0186 -0.4476  0.3444
20102W        W35911   2.832  17.196   3.634 -0.0642 -0.5688 -0.0574
20103W        W35912  12.664  15.527   0.479  0.1499 -0.0201  0.1401
20104W        W35913   5.082  11.679  14.211 -0.2258 -0.1160  0.1715
20105W        W35914   9.677   6.768   3.058 -0.3350  0.0827  0.0808
20106W        W35915  10.571   9.248   3.070  0.0860  0.1512 -0.0424
20107W        W35916  17.402  11.087   4.884 -0.3108  0.1557 -0.3634
20108W        W35917  16.915   9.730  14.992 -0.1295  0.1215 -0.0771
20109W        W35918  18.142  13.625   0.349  0.1340 -0.3265 -0.1282
20110W        W35919  14.310  17.454   1.662 -0.3113 -0.2048  0.1151
20111W        W35920  16.710   0.685   1.132  0.2374 -0.0389 -0.1817
20112W        W35921  15.492  12.827   4.714 -0.0892  0.0018  0.0242
20113W        W35922   6.270  10.677  12.796  0.2699 -0.0979 -0.0227
20114W        W35923   8.095  18.257   2.845  0.0015  0.2083  0.3033
20115W        W35924  14.042  11.887   0.940 -0.2862  0.1577  0.1621
20116W        W35925  15.617  11.311   5.481 -0.1926 -0.1003  0.1326
20117W        W35926   6.977   6.260   3.770  0.0725  0.0209 -0.0244
20118W        W35927   6.701   3.990  13.311 -0.1322 -0.2192  0.1260
20119W        W35928  18.043  17.154   5.141  0.1676 -0.0876  0.0119
20120W        W35929   9.638   4.324  11.562 -0.1014 -0.1336  0.0989
20121W        W35930   0.618   3.097  15.372 -0.2961  0.1588  0.3011
20122W        W35931   7.475  13.022  11.498  0.1644  0.0174 -0.2493
20123W        W35932  16.838  12.483  11.122  0.0919  0.1873  0.2179
20124W        W35933   1.367  13.981   2.153 -0.3403 -0.1687  0.3221
20125W        W35934   1.711   2.026  14.531 -0.2438  0.0226 -0.1620
20126W        W35935  17.097   4.621  15.147 -0.1146 -0.0069  0.1317
20127W        W35936  15.073   1.782  14.279  0.2546  0.1342  0.2952
20128W        W35937  15.662   4.704   1.898  0.1203 -0.0962  0.1128
20129W        W35938  15.912   5.058  11.728 -0.4298  0.1033 -0.1550
20130W        W35939  18.199   3.118  14.296  0.3273 -0.2195 -0.1347
20131W        W35940  17.605   6.224  13.319  0.2451 -0.0453 -0.2977
20132W        W35941   4.105   3.719  13.280 -0.1925  0.2803 -0.0570
20133W        W35942   5.886   2.209  14.599 -0.0287  0.0731 -0.2469
20134W        W35943   0.851  13.178   2.794  0.2867  0.3408  0.2636
20135W        W35944  13.413  10.304   1.660 -0.1241 -0.3630 -0.0636
20136W        W35945   6.840  13.733  14.877 -0.2094 -0.0745  0.2640
20137W        W35946   3.359  11.369   0.205  0.0294  0.1889 -0.2324
20138W        W35947   7.803  14.469   4.154 -0.3259  0.0131  0.4147
20139W        W35948  14.982  12.116   0.344  0.2660  0.0072 -0.0846
20140W        W35949  15.953  18.005  14.434 -0.0138  0.1024  0.2154
20141W        W35950   3.427  16.442  12.613 -0.0824  0.1496  0.2598
20142W        W35951   6.004  11.871  12.862  0.1804  0.3075  0.1806
20143W        W35952   6.363   0.783   4.020  0.0354  0.2940  0.0110
20144W        W35953  16.616  18.179   4.399 -0.0547  0.0290  0.0438
20145W        W35954   4.555   4.216   4.586  0.0157 -0.2899 -0.1458
20146W        W35955  18.642  17.246   5.271  0.1794 -0.0321 -0.1424
20147W        W35956   6.030  16.396   5.721 -0.2291  0.1265 -0.1125
20148W        W35957  10.017  11.961  14.775  0.0062 -0.1385  0.1043
20149W        W35958   8.942  16.489   4.018 -0.3325  0.0508  0.1312
20150W        W35959   6.156   7.934  14.323 -0.1199  0.0572 -0.0039
20151W        W35960   1.441  15.674   2.284  0.0053 -0.5170 -0.0572
20152W        W35961   1.966   1.401  12.076  0.1975 -0.1313  0.0926
20153W        W35962  16.034  13.635  14.294 -0.0574  0.1490  0.2691
20154W        W35963   6.070   0.071  13.225  0.3269 -0.1551  0.4079
20155W        W35964  12.618   1.965   9.815 -0.0527 -0.1758  0.1472
20156W        W35965  12.098   7.916   1.174 -0.0473 -0.1954 -0.0179
20157W        W35966  18.030   8.820   3.493  0.3307  0.0489  0.2580
20158W        W35967  14.595   2.470   2.981  0.2976  0.2128 -0.1335
20159W        W35968  11.997  17.827  13.460  0.0814  0.1385 -0.2394
20160W        W35969   4.277  13.374  15.363 -0.2838 -0.0904  0.1269
20161W        W35970   5.749   9.900   3.192  0.2908 -0.2156  0.0700
20162W        W35971   0.739  15.394   1.655  0.2133 -0.3252 -0.2999
20163W        W35972   5.247  17.040  12.131  0.1439 -0.1532  0.0358
20164W        W35973  13.683   5.617   1.165 -0.1396  0.1350  0.0950
20165W        W35974  13.746  11.113   4.734  0.1067  0.0036  0.2765
20166W        W35975   9.604  15.307   4.820 -0.0504  0.1425  0.0595
20167W        W35976   7.271   9.211   4.271 -0.0185  0.0474 -0.2031
20168W        W35977  15.191  13.981  12.328 -0.2695  0.2826  0.0873
20169W        W35978  16.401   2.107   4.397 -0.1000 -0.3339 -0.2991
20170W        W35979   9.379   0.040  14.498 -0.0566 -0.1266 -0.2149
20171W        W35980  16.021  12.868   9.685  0.0986  0.3669  0.1670
20172W        W35981   5.681   3.685   2.248  0.0073 -0.1394  0.2167
20173W        W35982   8.185  12.330   1.305 -0.3636  0.0178  0.0542
20174W        W35983   1.074   1.920  15.165  0.0604  0.2842  0.1728
20175W        W35984   8.459   1.470   4.686  0.2588 -0.2021  0.2544
20176W        W35985   4.063  15.366  13.177  0.2168 -0.1306  0.1728
20177W        W35986   0.335   1.904   1.752 -0.0406 -0.4452 -0.1727
20178W        W35987   6.378  15.004  11.684  0.2824 -0.3227  0.0866
20179W        W35988   1.633  16.175   2.710  0.1582  0.1684 -0.0237
20180W        W35989  16.722   4.133   5.336 -0.1420 -0.4407 -0.0465
20181W        W35990   5.825   7.885   2.045 -0.4094  0.1448 -0.5106
20182W        W35991   7.868  10.468  15.074 -0.2810  0.0082  0.1661
20183W        W35992  16.415   0.723   0.605 -0.3794 -0.1550  0.1599
20184W        W35993  16.727  16.876  14.584  0.0454 -0.1450 -0.0889
20185W        W35994   5.095  14.694  12.333  0.0386  0.0814 -0.0370
20186W        W35995  15.943  13.231  15.333 -0.2983 -0.2170 -0.2371
20187W        W35996  17.879  17.687  12.061 -0.0573 -0.0565 -0.4172
20188W        W35997   1.783   6.034  14.171  0.0619  0.1418 -0.1294
20189W        W35998  17.540  10.956  11.307 -0.0480 -0.3312 -0.4773
20190W        W35999   4.897  15.700  12.438 -0.3222  0.3626 -0.2309
20191W        W36000  11.399   7.875   4.105  0.1798 -0.0584 -0.2794
20192W        W36001   5.286   7.368   0.739 -0.0133  0.2757  0.1369
20193W        W36002   0.792   3.317   2.047  0.1549  0.1683  0.0688
20194W        W36003   0.105   9.514   4.664 -0.0240  0.0295 -0.0474
20195W        W36004   1.475   3.217  11.161  0.1608 -0.0097  0.2186
20196W        W36005   6.746  12.296  12.445  0.2049  0.0098 -0.1132
20197W        W36006   3.186   1.248   1.489  0.0276 -0.1453  0.0410
20198W        W36007  11.701   5.911   4.384  0.1509 -0.0863 -0.0446
20199W        W36008   6.708   9.233   2.516  0.0038 -0.1112  0.5078
20200W        W36009   5.962   8.152   1.609  0.3198 -0.0308 -0.2830
20201W        W36010  13.462   5.092   1.915 -0.1328  0.0931 -0.0681
20202W        W36011   3.972  16.819  13.748 -0.1204  0.2114  0.0719
20203W        W36012   2.866  15.026   3.161 -0.0208 -0.0426  0.0705
20204W        W36013   8.050   9.484  13.904  0.4119  0.1593  0.1568
20205W        W36014  10.865  18.271  12.056 -0.0899 -0.0937 -0.3392
20206W        W36015  18.179   3.485  14.678  0.0684  0.2111 -0.0219
20207W        W36016   4.983   8.332   1.798  0.2359 -0.2194 -0.0614
20208W        W36017   8.927  11.066  14.314  0.0381  0.2490  0.2278
20209W        W36018  14.188  11.486  14.803  0.1179 -0.0832  0.3323
20210W        W36019   6.648  10.024   3.302 -0.2834 -0.1672 -0.1293
20211W        W36020   3.439   8.665   3.129 -0.0705 -0.3227 -0.2783
20212W        W36021  14.719  11.643   5.192 -0.1381  0.0622 -0.1886
20213W        W36022   9.140   7.948  14.388  0.0430 -0.2195 -0.0239
20214W        W36023  17.492  17.473   3.521  0.1926  0.0545 -0.3370
20215W        W36024  12.600   7.575   1.874  0.1707 -0.0104  0.0006
20216W        W36025   4.281  16.124  12.004  0.1392  0.1589 -0.1148
20217W        W36026  13.338   1.002  10.867 -0.3218  0.2169  0.0079
20218W        W36027  10.014   8.007  11.238 -0.2552 -0.1456  0.2402
20219W        W36028  14.824   1.538   3.065  0.1276  0.1016 -0.1890
20220W        W36029  13.240  16.584   2.346  0.1201 -0.1522  0.3105
20221W        W36030   4.845  14.584   1.430 -0.3121 -0.0433  0.4941
20222W        W36031   8.481  17.872  15.317  0.1691  0.2517 -0.0230
20223W        W36032  14.208   4.576   3.682 -0.0847  0.1496 -0.0090
20224W        W36033   5.419  15.296   1.968  0.1339  0.1405  0.1115
20225W        W36034  14.403  15.156  14.145 -0.0494 -0.1351 -0.1452
20226W        W36035   3.699   6.053   0.840 -0.0222 -0.2228 -0.0113
20227W        W36036   1.910   7.171  10.428  0.0168 -0.2390 -0.0655
20228W        W36037  18.374   9.160  11.066 -0.1361  0.1343 -0.0835
20229W        W36038  12.174  12.013  11.743  0.2255  0.0890  0.1561
20230W        W36039  11.269  11.172   0.105  0.0789 -0.0554  0.1346
20231W        W36040   6.643  16.702   3.206 -0.4849  0.1074  0.0622
20232W        W36041  17.987   6.786   4.041 -0.1074  0.0919  0.0284
20233W        W36042  14.869  11.319  11.585 -0.0089 -0.1987  0.3762
20234W        W36043   7.278  16.237  11.569  0.0306  0.4923 -0.2466
20235W        W36044   4.539   6.536  14.294  0.0893 -0.0954 -0.4272
20236W        W36045  17.065   6.301   2.775 -0.0233  0.0171 -0.0474
20237W        W36046   9.728   5.748  11.243  0.1642 -0.1130 -0.1284
20238W        W36047  12.765   1.390   4.551  0.1643 -0.1930 -0.1379
20239W        W36048  15.191   2.149  13.851 -0.1887  0.2985 -0.1149
20240W        W36049  11.389   8.037   2.604  0.1147  0.1762 -0.0413
20241W        W36050  14.119   8.245   2.501  0.0917  0.0554  0.1557
20242W        W36051   4.838   0.237  10.891 -0.1838 -0.1844 -0.3584
20243W        W36052   1.691  11.827   4.842  0.2175 -0.3699  0.0882
20244W        W36053   0.307  10.041  13.516 -0.0459  0.1239 -0.2632
20245W        W36054  16.139   3.915   2.869  0.2825 -0.0856  0.0439
20246W        W36055   9.418  16.687   4.102  0.0804  0.2081  0.1147
20247W        W36056  12.347   4.549  15.058 -0.0486  0.1194  0.0894
20248W        W36057  12.677  10.464  15.511 -0.0928 -0.2463  0.1308
20249W        W36058  12.720   0.751   0.861  0.2936  0.0763  0.1329
20250W        W36059   8.712  14.502  12.190  0.2870  0.2795 -0.2419
20251W        W36060  13.945  13.603   2.743 -0.2899 -0.0338 -0.0082
20252W        W36061   7.550   0.281   0.042 -0.2759  0.0434  0.3469
20253W        W36062   7.738   5.031   0.790  0.0077  0.1992 -0.3840
20254W        W36063  11.940  15.457  11.668 -0.1194 -0.3562  0.0357
20255W        W36064   9.585   5.064   1.639 -0.1144 -0.0440 -0.1909
20256W        W36065  12.579   7.423  15.268 -0.0380  0.0596 -0.3328
20257W        W36066  10.253   7.718  12.997 -0.0916 -0.1484 -0.1465
20258W        W36067   9.446  18.233   1.400  0.2400 -0.1838  0.1756
20259W        W36068   8.267   5.758  11.242  0.0776 -0.0030 -0.1949
20260W        W36069  14.936   0.983  13.678 -0.0109 -0.1777  0.1129
20261W        W36070  11.317   5.211  10.835 -0.0301  0.0633 -0.1953
20262W        W36071   1.026   4.230  12.994  0.1670  0.2816  0.2035
20263W        W36072  15.246  14.310  11.132  0.2146 -0.0517 -0.1170
20264W        W36073   1.001  17.537  12.574  0.2136  0.2036 -0.1466
20265W        W36074   0.659  15.418  12.465 -0.2027 -0.0825  0.4668
20266W        W36075   9.190  10.456  13.857 -0.1976  0.2279  0.0313
20267W        W36076   8.423  12.463  12.919 -0.0671 -0.0576 -0.1687
20268W        W36077  10.506   2.304  12.830  0.1920 -0.0643  0.2235
20269W        W36078   5.330  15.949  12.444  0.0237  0.3735 -0.1568
20270W        W36079   4.252   8.486   3.621  0.0462 -0.1891  0.1831
20271W        W36080  18.258   9.997   1.831 -0.0477  0.2327 -0.0299
20272W        W36081  13.185  16.363   3.379  0.0699  0.1012  0.0142
20273W        W36082  12.435  18.026  14.853 -0.5112 -0.0107 -0.1193
20274W        W36083  14.860  16.669  10.194  0.1974  0.2019 -0.1071
20275W        W36084  17.351   3.723  14.921 -0.0073 -0.3176  0.1777
20276W        W36085   0.158   9.003  12.184 -0.1965 -0.2814 -0.0223
20277W        W36086  16.052   2.829  11.320 -0.0689  0.1111 -0.1664
20278W        W36087  15.426   4.032  12.254  0.0869  0.4023 -0.1306
20279W        W36088   8.254   2.158  14.698  0.1420  0.2019 -0.1207
20280W        W36089  15.861  16.282  11.252 -0.0014 -0.2228  0.0057
20281W        W36090   7.175  15.220  13.642 -0.1788 -0.0029 -0.3949
20282W        W36091  13.317   6.018   4.298  0.1245 -0.1649 -0.4066
20283W        W36092  11.119  11.482  12.485 -0.0564 -0.3923  0.1041
20284W        W36093  18.635  18.306   0.789 -0.4227  0.0924 -0.0594
20285W        W36094   6.151   6.132   3.423 -0.0435 -0.0939  0.2399
20286W        W36095  12.340  14.538   2.158  0.2271  0.1272 -0.0848
20287W        W36096   6.346  18.446  10.605  0.0122  0.1254 -0.3192
20288W        W36097   2.993  11.414  10.766 -0.1257 -0.0605 -0.1158
20289W        W36098   7.258   5.035   0.650 -0.0208  0.3271  0.1748
20290W        W36099   6.931  10.276  10.738  0.0285 -0.0644  0.1230
20291W        W36100   7.706   8.762  14.521 -0.1729  0.4559  0.1098
20292W        W36101  16.406   0.072  13.713 -0.0794 -0.1139 -0.2782
20293W        W36102  11.449   9.810   1.200 -0.0771 -0.5684  0.1489
20294W        W36103   8.498   2.335  14.222  0.2070  0.2163 -0.0413
20295W        W36104  13.075   7.691  11.212  0.2570  0.1183 -0.2950
20296W        W36105  17.518   8.003  12.419  0.3670  0.0723 -0.1469
20297W        W36106  17.884   4.678  10.913 -0.1191 -0.1296 -0.0823
20298W        W36107  13.724   0.119  14.065  0.0866 -0.0999 -0.1305
20299W        W36108  12.899  11.847  12.581  0.2639  0.4757 -0.1291
20300W        W36109  13.762  13.176  15.040 -0.4054  0.2180 -0.2250
20301W        W36110  13.746   9.390  12.520 -0.0938  0.2448 -0.0104
20302W        W36111   8.736  11.817  11.152 -0.2474 -0.0292  0.0969
20303W        W36112  12.512  11.876  11.231 -0.1579  0.0144  0.1483
20304W        W36113  16.330   6.542   5.745  0.2302 -0.1166 -0.0235
20305W        W36114  13.236   0.604   5.192  0.0996 -0.0121 -0.1381
20306W        W36115   2.806  12.541   4.989 -0.1663  0.4154 -0.1478
20307W        W36116  16.205   1.822  12.763  0.2701  0.3461 -0.1273
20308W        W36117  12.880   0.388  15.741  0.1774 -0.2954  0.0408
20309W        W36118   0.732   0.112  13.947  0.1675 -0.1493  0.2059
20310W        W36119   9.109   7.137  11.017  0.1873 -0.2350  0.0827
20311W        W36120   8.407  15.251  15.466  0.0506  0.0407 -0.1576
20312W        W36121  14.877   5.748  10.900 -0.2850  0.0601  0.1457
20313W        W36122  11.653  15.780  10.458 -0.0566 -0.0468  0.1096
20314W        W36123   9.116   6.944   2.826 -0.1128 -0.1537 -0.0357
20315W        W36124  17.255  11.861   4.918 -0.1116 -0.1668 -0.1814
20316W        W36125   2.303   2.278  15.217  0.0569  0.1754 -0.3733
20317W        W36126   7.701   4.349  15.124  0.1417  0.1954 -0.2648
20318W        W36127   1.514   6.830   1.317 -0.3475 -0.0098 -0.1438
20319W        W36128   8.607  13.112  11.450  0.0530 -0.1104  0.0203
20320W        W36129  15.085  15.212   4.167  0.0594  0.3537 -0.0545
20321W        W36130   2.383  13.022   4.894  0.0025 -0.1343 -0.0258
20322W        W36131  11.772   5.206  13.829 -0.0635 -0.1514  0.0326
20323W        W36132  12.582   2.592  15.586 -0.3104  0.2874  0.2149
20324W        W36133  11.173  17.668   0.335 -0.0010  0.1054  0.1374
20325W        W36134   5.810   9.544  14.261 -0.1332  0.1561 -0.0480
20326W        W36135   8.183   0.261  14.217 -0.1444 -0.0507 -0.2383
20327W        W36136  18.026   5.018  15.076 -0.1560 -0.1629  0.0423
20328W        W36137  16.249   6.021   1.175  0.4120 -0.1822 -0.0905
20329W        W36138  18.007  12.076  10.655 -0.1048 -0.0718  0.5142
20330W        W36139  13.540  11.737  10.609  0.2377 -0.0124 -0.4002
20331W        W36140  10.816   5.304  14.791  0.1397 -0.2950  0.1358
20332W        W36141   8.035  14.749   5.255  0.0244  0.3793 -0.3480
20333W        W36142  10.035  11.612  11.256 -0.0660 -0.1206 -0.0652
20334W        W36143   2.592   5.566   5.290 -0.1372  0.0129  0.1828
20335W        W36144  17.544   4.180   1.578 -0.1746 -0.3255  0.2973
20336W        W36145   2.173  15.402   2.748 -0.0994 -0.0374  0.4963
20337W        W36146   2.647   8.630  11.011 -0.1328 -0.2704  0.0584
20338W        W36147  11.998   5.163   2.872  0.2470  0.4325  0.3702
20339W        W36148   7.475  11.234   2.894  0.0921  0.0589 -0.0817
20340W        W36149   9.918  11.838   0.108 -0.0155 -0.3322  0.1043
20341W        W36150   0.822   4.540   1.243 -0.0053 -0.3193 -0.1796
20342W        W36151  16.630  13.223  13.547 -0.2538 -0.3724 -0.3418
20343W        W36152  18.634  11.532   4.773 -0.0208 -0.0799 -0.0019
20344W        W36153   3.525  18.539   3.546  0.1468  0.0896 -0.0020
20345W        W36154   9.763  12.870  11.055 -0.0259  0.0757 -0.0368
20346W        W36155   6.365   2.499   0.722  0.0043 -0.0738 -0.4070
20347W        W36156   9.631   7.890   1.110 -0.0916  0.1081  0.1652
20348W        W36157   4.620   2.136   1.505 -0.0368 -0.3637 -0.2014
20349W        W36158   2.651   7.381   2.247  0.1710 -0.0343 -0.3184
20350W        W36159   0.771  12.822   2.482 -0.2691  0.0918  0.1801
20351W        W36160   2.377   9.042   2.796  0.1857  0.0379  0.0036
20352W        W36161  11.519   3.193  14.567 -0.0219  0.1622  0.1932
20353W        W36162  16.855  15.812  10.970 -0.1874  0.0077 -0.1734
20354W        W36163  13.011   8.306   1.155 -0.0728 -0.2024  0.0434
20355W        W36164  16.103  13.571   2.586 -0.2618  0.1812 -0.1701
20356W        W36165   6.643   6.041   3.442  0.1698  0.0159  0.1821
20357W        W36166   8.851   1.886  12.474 -0.0188 -0.2160  0.0441
20358W        W36167  12.806  10.419   0.271  0.1150 -0.1229  0.1634
20359W        W36168   8.143   3.246   0.529 -0.1839 -0.1920  0.2068
20360W        W36169   7.130   0.984   4.940  0.0351 -0.1761  0.0458
20361W        W36170  14.289  12.917   0.242  0.3347  0.0142  0.1259
20362W        W36171   9.226  12.811  14.570 -0.0281 -0.1531  0.0518
20363W        W36172  17.357  16.486  11.062 -0.1113  0.1288 -0.2307
20364W        W36173   7.177   9.595  13.876 -0.0034 -0.2130  0.1076
20365W        W36174   7.693  16.287   9.791  0.0943  0.1275 -0.3548
20366W        W36175   9.526  13.355  11.995  0.2557 -0.2886 -0.0502
20367W        W36176   0.888  14.893  10.853 -0.1170  0.0658 -0.0886
20368W        W36177   5.291   8.647   3.627 -0.1245  0.1785  0.0653
20369W        W36178  14.522   5.144  13.904 -0.1732  0.1048 -0.0459
20370W        W36179   1.226   7.131   1.843  0.1776 -0.1570 -0.0797
20371W        W36180   3.557   6.529   1.572  0.0835 -0.1084  0.0191
20372W        W36181  13.433  12.938  12.286 -0.0701 -0.2235  0.1776
20373W        W36182  14.147  11.578   0.000 -0.0767  0.0257  0.1296
20374W        W36183  13.236  14.635  13.691  0.0182 -0.0768 -0.1866
20375W        W36184  10.433  17.201   5.195 -0.1647 -0.1296  0.1930
20376W        W36185   8.529   8.348  12.717  0.2942  0.2457  0.2070
20377W        W36186   5.854   8.287  14.554  0.1839  0.2138  0.1747
20378W        W36187  14.484  15.294   1.105 -0.1269 -0.1506  0.0047
20379W        W36188  18.253  14.408  15.003 -0.0976 -0.2169 -0.3988
20380W        W36189   0.514   0.042   3.782 -0.0446  0.1485  0.1521
20381W        W36190  11.005  15.005  14.063 -0.1906 -0.1778  0.3236
20382W        W36191  18.518  16.016  15.594 -0.3869  0.1450 -0.0260
20383W        W36192   9.540  13.507   0.141  0.2301  0.1019 -0.0739
20384W        W36193   5.615   1.972  10.942  0.0870 -0.3781 -0.0272
20385W        W36194  17.280  17.659  14.929  0.1806  0.2402  0.1482
20386W        W36195   5.556   5.963   3.913 -0.0064 -0.0352  0.2312
20387W        W36196  13.389   4.775   3.537  0.0651  0.0177  0.0092
20388W        W36197  12.680  17.788   1.486  0.1777 -0.2950  0.2393
20389W        W36198   4.773   5.690   1.304  0.0693 -0.2923 -0.0671
20390W        W36199  12.434  14.011   1.606 -0.0331 -0.0752 -0.2260
20391W        W36200  16.683   1.234  13.934  0.3220 -0.3981  0.0714
20392W        W36201  10.746  15.398   1.182  0.0720 -0.0871  0.1244
20393W        W36202   8.719  14.327   2.653 -0.1362 -0.2042 -0.0762
20394W        W36203   3.703  11.838   5.290 -0.4687 -0.1620 -0.0665
20395W        W36204   4.013  11.741   2.648  0.0819 -0.0216  0.1357
20396W        W36205   7.983   6.948  15.068 -0.0805 -0.1868 -0.1859
20397W        W36206  11.099   8.277   5.923  0.1448 -0.0631  0.0932
20398W        W36207  17.866   2.255   0.395 -0.0218  0.3026  0.1000
20399W        W36208   9.512   3.025  10.738 -0.3771 -0.0066 -0.2286
20400W        W36209   9.772   1.536   2.013 -0.0690  0.2274 -0.3126
20401W        W36210   0.016   4.296  15.424  0.0888 -0.1619  0.1193
20402W        W36211  10.762  15.150  10.466  0.0300  0.0215 -0.0229
20403W        W36212   7.761  16.856  12.854  0.2043 -0.2657  0.0474
20404W        W36213   5.229  14.277  15.010 -0.0721  0.0739  0.2750
20405W        W36214   9.342  17.237  15.576 -0.1651  0.0987  0.1798
20406W        W36215  13.283  11.360  13.582 -0.1227 -0.1553  0.1673
20407W        W36216   8.674   8.822   3.814  0.0676 -0.2772  0.0443
20408W        W36217   1.405  12.008  11.088  0.0979  0.1043 -0.0559
20409W        W36218  16.309   2.100   0.357  0.2711 -0.0789 -0.1352
20410W        W36219   0.436  17.046  11.490  0.0609  0.0416 -0.0988
20411W        W36220  12.326  18.663  14.949 -0.0672 -0.2694  0.1779
20412W        W36221  10.232  16.373  11.982 -0.1932 -0.0715 -0.0005
20413W        W36222  14.197  13.785  13.287  0.1052  0.1045 -0.0361
20414W        W36223   5.656  16.392  10.452 -0.3140  0.0325 -0.3931
20415W        W36224   7.345   7.970   4.652  0.1183 -0.0809  0.0361
20416W        W36225   5.606  12.107  13.029 -0.1122 -0.0444  0.1068
20417W        W36226  18.260  17.296   0.122 -0.0418  0.4143 -0.2384
20418W        W36227   7.123  17.513  12.227 -0.0750 -0.1885 -0.3950
20419W        W36228   9.621   3.258  15.682 -0.3203 -0.0952  0.3769
20420W        W36229   7.791  13.461  13.997  0.0846  0.0243  0.0430
20421W        W36230   8.870   6.723  14.990 -0.2540  0.2694 -0.3361
20422W        W36231   8.773  10.719   4.334 -0.0105 -0.0535  0.5024
20423W        W36232  15.916   7.109   2.965  0.0606 -0.1078 -0.0811
20424W        W36233  16.056  13.715   3.511  0.1945  0.2637 -0.4242
20425W        W36234  15.095   2.834  10.846 -0.1530  0.2367  0.0858
20426W        W36235   8.565   0.906   5.020  0.0900 -0.2587  0.0571
20427W        W36236   2.067  13.695  12.324 -0.2915 -0.0139 -0.2321
20428W        W36237   2.262   5.086   1.718  0.0515  0.0420  0.0613
20429W        W36238   1.598   3.249   0.448 -0.0487 -0.0579  0.0724
20430W        W36239   4.306  12.199   2.415  0.1367  0.1247  0.0622
20431W        W36240  15.365  15.372  15.176  0.1643  0.0148 -0.0424
20432W        W36241  17.922   6.093   0.894 -0.1158 -0.1386 -0.0115
20433W        W36242  14.233   8.420  14.499  0.1918  0.0054 -0.1147
20434W        W36243   7.429   2.052   0.098 -0.1985  0.2243 -0.1014
20435W        W36244  10.996  10.386   2.327 -0.1663  0.1233 -0.4547
20436W        W36245  11.395  16.210   4.011  0.0911 -0.2497  0.0844
20437W        W36246   9.081   8.722   0.128 -0.3073  0.0797  0.3961
20438W        W36247   9.705   4.575  14.379  0.0172  0.0454 -0.2511
20439W        W36248   5.249   2.702   3.363 -0.0129  0.0719 -0.0975
20440W        W36249   4.201  12.143   5.952 -0.0523  0.2143  0.1465
20441W        W36250  12.335   9.016  12.164  0.1422  0.3783 -0.1144
20442W        W36251  18.380  13.565   2.154 -0.1661  0.0385  0.1703
20443W        W36252  13.135  14.223   3.327 -0.4286  0.1483 -0.3881
20444W        W36253  16.613   2.839   2.878  0.1376  0.1150  0.3801
20445W        W36254   6.317  12.254   0.093 -0.2985  0.3924 -0.3060
20446W        W36255   6.890   6.571  15.339 -0.0064  0.2105 -0.0911
20447W        W36256   3.980   7.513   1.375  0.0567  0.0150  0.1904
20448W        W36257  17.773   3.772  14.596 -0.2598  0.3356 -0.0477
20449W        W36258   0.944   5.201  14.165 -0.0727 -0.0605 -0.3241
20450W        W36259   2.535   5.392  11.312 -0.1595  0.0144 -0.1726
20451W        W36260   0.270   8.502  12.272  0.0044  0.1420  0.2295
20452W        W36261  12.090   1.336   0.387  0.0957  0.0691 -0.0816
20453W        W36262   7.084   3.176  12.513  0.1028 -0.1594 -0.2401
20454W        W36263  11.914   9.674   5.382  0.0017  0.1246 -0.0937
20455W        W36264   1.502   6.778  13.785  0.0232  0.1562 -0.1177
20456W        W36265  13.589   2.102   3.466  0.0879  0.3006 -0.0864
20457W        W36266   8.718   5.581   2.462  0.0419 -0.0755 -0.2630
20458W        W36267  15.889  13.076   5.969  0.0865  0.2010  0.1084
20459W        W36268   7.395   1.560   4.549 -0.0787 -0.3537  0.2801
20460W        W36269   4.814  11.977   3.637  0.2652  0.2359 -0.1103
20461W        W36270  18.167  11.813  14.961  0.2160  0.1716 -0.0072
20462W        W36271   0.303   2.845   0.501 -0.5074  0.0859 -0.2075
20463W        W36272  17.218   5.371   2.274 -0.0654 -0.2787 -0.0308
20464W        W36273  16.202  10.343  11.540 -0.0194 -0.0723 -0.3574
20465W        W36274   5.344  12.836  10.838  0.2795  0.0305 -0.1506
20466W        W36275  11.240  13.681   3.505  0.1370 -0.0012 -0.1794
20467W        W36276  15.083   5.107  11.590 -0.0850 -0.1504  0.3430
20468W        W36277   1.146   5.610  15.069  0.0651  0.0849 -0.2000
20469W        W36278   8.106  11.583  11.729  0.4454  0.1527  0.4708
20470W        W36279  13.034   9.673   1.761  0.2560  0.2439 -0.4156
20471W        W36280  16.976   2.452   5.123 -0.1713  0.3754 -0.0362
20472W        W36281   4.377   8.226   1.409 -0.2221  0.0505 -0.1611
20473W        W36282   8.566   7.755  15.508 -0.4938  0.1034  0.0143
20474W        W36283  16.223   9.180   5.153 -0.0247 -0.2310 -0.5069
20475W        W36284  16.876  13.115   4.477 -0.1140  0.0229  0.1422
20476W        W36285   7.172   3.229  13.508 -0.0156  0.1652 -0.1817
20477W        W36286  14.660   5.450  11.843 -0.0049 -0.1086 -0.4487
20478W        W36287   3.558   3.188  12.913 -0.0216 -0.1297  0.1746
20479W        W36288  16.767   0.538   0.184 -0.2075 -0.4282  0.1710
20480W        W36289  16.407   0.790  14.094  0.2899 -0.2052  0.3712
20481W        W36290  14.277   7.438  14.787  0.0277 -0.1747 -0.2568
20482W        W36291   9.027   3.045  13.300 -0.1932  0.2022 -0.1175
20483W        W36292  18.161  13.168  14.438 -0.0856  0.2977 -0.3257
20484W        W36293   6.147  10.216  11.398 -0.4304  0.1593  0.1084
20485W        W36294   2.547   0.957  13.214 -0.4000  0.3144  0.0631
20486W        W36295  18.465  13.132   0.836  0.2099 -0.3361 -0.1326
20487W        W36296   6.531   2.687  11.238 -0.1746  0.1197 -0.1072
20488W        W36297   4.991  12.256   1.070  0.1935  0.0502  0.1175
20489W        W36298  17.107  10.541  15.423 -0.0886  0.2094 -0.2490
20490W        W36299  11.497  14.648   0.973 -0.1489 -0.0343  0.1877
20491W        W36300  13.339  13.303   0.028  0.2297  0.0591  0.0457
20492W        W36301  12.761  16.061  13.197  0.0013  0.1039 -0.0643
20493W        W36302  14.439  10.387  12.650  0.1839  0.1462 -0.2204
20494W        W36303  11.310  12.358   3.410 -0.2526  0.0587  0.0533
20495W        W36304   8.025   6.733   0.072 -0.0991  0.2056 -0.0687
20496W        W36305  12.987   6.400   3.243  0.0757  0.2321 -0.0079
20497W        W36306   0.488   5.132   3.096 -0.1806  0.2046 -0.4279
20498W        W36307   6.342   5.739   4.605  0.0680  0.1219  0.2691
20499W        W36308   1.955   2.445  13.601 -0.1786  0.0300 -0.0954
20500W        W36309  12.065   1.845   2.469  0.2291 -0.0607  0.1298
20501W        W36310   1.788  17.749  11.845 -0.1510 -0.0236  0.0660
20502W        W36311   4.853   1.738  10.451  0.0299 -0.0087  0.2251
20503W        W36312  10.772   8.794   5.375 -0.1929  0.0898 -0.0224
20504W        W36313   6.159   2.170   1.016  0.2053  0.3541 -0.1071
20505W        W36314   8.889   5.235  14.263 -0.0480 -0.0787  0.1926
20506W        W36315  14.351   7.062  14.491 -0.2035 -0.0484  0.0462
20507W        W36316   9.435  16.612  14.842 -0.1861 -0.0487  0.3757
20508W        W36317  14.858  14.188   2.671  0.0450  0.0770 -0.1971
20509W        W36318   2.423   6.779  14.222 -0.2211  0.0249 -0.2201
20510W        W36319   7.198  11.927   2.354  0.1596 -0.3014 -0.1175
20511W        W36320   0.447   9.528   5.540  0.1588  0.1471 -0.1053
20512W        W36321  10.456   3.104  11.777  0.4932 -0.3479 -0.1447
20513W        W36322   1.636  16.301  11.277  0.0436 -0.0184 -0.1303
20514W        W36323  17.344   1.009   0.247  0.2680  0.0755  0.1278
20515W        W36324   7.442  11.408   4.456 -0.1851  0.3009  0.0524
20516W        W36325  14.875  17.306   4.197  0.1258 -0.0733  0.0869
20517W        W36326  14.360  11.693   1.277  0.0706  0.1072  0.1147
20518W        W36327   6.690   8.284  15.629  0.1076 -0.1352  0.1193
20519W        W36328   2.516   6.790  12.387 -0.1515  0.1076  0.0632
20520W        W36329  14.554   5.764   2.750 -0.0115  0.1872 -0.1767
20521W        W36330  17.032  13.349   2.396  0.0710  0.0756  0.1496
20522W        W36331   2.870   2.607   1.120  0.0805  0.1706 -0.3171
20523W        W36332  16.551  12.262  10.789  0.1066  0.0795 -0.1143
20524W        W36333   2.248   4.676   4.886 -0.0329  0.0722 -0.2826
20525W        W36334   3.888   3.525   2.784  0.0960 -0.3085  0.0949
20526W        W36335  10.530  12.081   4.612 -0.1709 -0.0873  0.0287
20527W        W36336   2.921   7.464  12.129 -0.3387 -0.0775  0.2248
20528W        W36337   5.170   9.088  12.670 -0.0745 -0.0319 -0.1555
20529W        W36338  10.478  11.640   4.342 -0.1229  0.0455 -0.2089
20530W        W36339   3.347   9.848   4.672 -0.2114  0.2968  0.0504
20531W        W36340  15.476  14.971   2.737  0.0096  0.0795 -0.0488
20532W        W36341   5.049   1.604  12.692  0.0706 -0.0794  0.0391
20533W        W36342  11.330   1.170  13.940  0.1472 -0.0929 -0.1717
20534W        W36343   2.804  12.212  15.585 -0.2661 -0.1015  0.3073
20535W        W36344  15.758   3.487  12.535  0.1020  0.2190  0.2585
20536W        W36345   9.751  11.532   3.137 -0.0329 -0.0985 -0.4219
20537W        W36346  11.488   9.229   0.279  0.1676 -0.2790  0.1440
20538W        W36347  15.767   4.081  14.646 -0.2661  0.1817  0.0297
20539W        W36348  12.975   2.936   5.343 -0.1839  0.1365 -0.1156
20540W        W36349   5.764   7.725   1.514  0.3272  0.0229  0.1383
20541W        W36350   9.216  12.396  11.882 -0.2162 -0.0252 -0.1959
20542W        W36351  18.043   6.100  14.126 -0.0467  0.1464  0.0088
20543W        W36352   6.383  10.075  10.316 -0.0053 -0.0560  0.1232
20544W        W36353   9.465   0.682  12.809  0.1587 -0.3914  0.0918
20545W        W36354   8.868   6.499   1.121  0.2702  0.3282 -0.0700
20546W        W36355   9.228   7.881  12.006  0.2830 -0.3855 -0.3497
20547W        W36356   2.763   6.489   4.033  0.2507 -0.0726 -0.0208
20548W        W36357  10.573   1.849  12.424 -0.1083 -0.0626 -0.2914
20549W        W36358   0.273  12.320  12.538  0.1808 -0.0045  0.4169
20550W        W36359  13.825   4.818   2.293 -0.0492 -0.0934  0.2249
20551W        W36360  16.485  17.079   0.357 -0.2792  0.1292 -0.2480
20552W        W36361   6.823  16.388  10.362  0.2263 -0.3159 -0.2813
20553W        W36362   4.174   1.078   3.308  0.0585 -0.3587  0.5302
20554W        W36363   3.826   0.110  15.560 -0.0248  0.1380  0.2540
20555W        W36364   3.817   0.280  11.574 -0.2704 -0.0186  0.1556
20556W        W36365  12.067  12.794   4.063 -0.2486  0.1017 -0.0275
20557W        W36366   9.936   4.397   0.684  0.2158  0.1713  0.2045
20558W        W36367  14.736  13.631   1.592 -0.0837  0.1885  0.0871
20559W        W36368  15.784   6.259   1.156 -0.0884 -0.0949  0.0387
20560W        W36369   1.825   4.662  15.252  0.0454  0.1817  0.0016
20561W        W36370   0.514   1.474   4.486 -0.0630  0.1357  0.1663
20562W        W36371   0.410   9.462  12.215  0.3780  0.1453 -0.1769
20563W        W36372  10.849  13.503   2.295 -0.0379 -0.0142 -0.2954
20564W        W36373  13.140  14.747   3.424 -0.0502 -0.5248  0.0999
20565W        W36374  18.309  12.846  13.598  0.1292  0.1880  0.0246
20566W        W36375   5.170   4.069   3.454 -0.1264 -0.2533 -0.0283
20567W        W36376  14.616  18.163  13.255 -0.0460  0.0577 -0.1878
20568W        W36377   0.685   6.495  14.860 -0.0713  0.1354  0.2850
20569W        W36378  12.444   8.662   4.922 -0.1276  0.1269  0.1525
20570W        W36379   4.843   4.401  14.406  0.0640 -0.0674  0.1143
20571W        W36380  11.021  17.081   0.942  0.3022  0.0929  0.1760
20572W        W36381   9.119   4.864  11.273 -0.0520  0.1687 -0.1409
20573W        W36382  17.329   1.214   3.965  0.0308 -0.0121  0.0151
20574W        W36383   5.090   8.976   1.104 -0.0824  0.2362  0.2369
20575W        W36384   1.785  15.886   2.061 -0.1562  0.0605 -0.0414
20576W        W36385  17.576  17.955  11.046 -0.1113  0.2148  0.1623
20577W        W36386   0.986   0.590   2.987  0.0448 -0.2856 -0.2076
20578W        W36387  11.336   4.593   5.925 -0.2532  0.2071 -0.0308
20579W        W36388  12.139  18.636   0.041 -0.2174  0.0497  0.1269
20580W        W36389  13.733  13.268  11.877  0.0050  0.3454  0.1889
20581W        W36390   7.555  14.293  15.168 -0.5191  0.0049  0.2249
20582W        W36391  16.120   3.251   9.937 -0.0042  0.0464 -0.0915
20583W        W36392   5.007   9.729   0.514  0.2416 -0.1091  0.0274
20584W        W36393   2.569  12.153   4.787 -0.0995  0.2395 -0.1467
20585W        W36394   3.136   8.428   1.191  0.0942 -0.1413 -0.3290
20586W        W36395   8.844   4.496   2.803  0.1725  0.1497 -0.0477
20587W        W36396  16.515   2.062   9.384  0.0940 -0.2228  0.1669
20588W        W36397   5.857  10.423   4.923  0.1845  0.0046 -0.1035
20589W        W36398   1.389   6.496   5.250  0.0900  0.2377  0.0319
20590W        W36399  17.450   4.548   1.074 -0.0980 -0.1613  0.0114
20591W        W36400  15.335  17.890  12.670 -0.1047  0.0632 -0.0183
20592W        W36401  11.390   1.465  11.939  0.1420  0.0842  0.0825
20593W        W36402  14.491   8.581  13.114  0.2940  0.0693  0.1453
20594W        W36403  10.494  10.915  14.590 -0.0559  0.0696 -0.3951
20595W        W36404   6.053   3.047   2.164 -0.0676  0.1010  0.0158
20596W        W36405   0.142   6.851  13.640  0.2609  0.2050  0.1849
20597W        W36406   2.456   1.816   5.122 -0.1854 -0.0119  0.1145
20598W        W36407  10.652   3.522  11.040 -0.0446 -0.3070 -0.1699
20599W        W36408   6.201   7.878  13.070 -0.0387 -0.0725  0.0533
20600W        W36409   9.262  13.015   2.501 -0.2115  0.2653  0.2416
20601W        W36410   0.973  16.208  13.712 -0.5827 -0.1223 -0.4280
20602W        W36411   5.679  17.511   2.025 -0.0658 -0.0767 -0.3097
20603W        W36412   0.386   4.161  15.743  0.1821 -0.2048 -0.0977
20604W        W36413   0.679   2.649  14.770 -0.3540  0.0413 -0.1110
20605W        W36414  16.074  13.185   3.079  0.2057  0.1611 -0.2916
20606W        W36415   6.195   8.710   2.496 -0.1312  0.0180 -0.0700
20607W        W36416   7.913  10.132  11.212  0.1204 -0.5345  0.0858
20608W        W36417   3.033  15.023   0.259  0.0626 -0.0931 -0.1318
20609W        W36418  15.799   0.760   5.090 -0.0999 -0.1463 -0.0501
20610W        W36419   7.363  18.247   0.631  0.1182  0.0052  0.1389
20611W        W36420  16.755   6.306  10.775 -0.1478 -0.0411  0.1869
20612W        W36421  10.723  13.203   1.896  0.0333  0.0144  0.4018
20613W        W36422  16.811   9.665   1.434 -0.1388 -0.2756 -0.0112
20614W        W36423   9.018  11.194  10.476  0.0924  0.1310  0.1085
20615W        W36424   0.633   6.550  14.379 -0.0881 -0.1379 -0.0866
20616W        W36425  17.424   2.262   4.272  0.0965  0.0552  0.0138
20617W        W36426   2.598  10.619  14.077  0.2518  0.4084 -0.2895
20618W        W36427  13.569   7.348  13.019  0.0201  0.0796  0.0946
20619W        W36428  13.414   3.107   0.745  0.2764 -0.3649 -0.3034
20620W        W36429  11.181  11.302   1.668  0.1459  0.1197  0.0340
20621W        W36430   1.430   7.063  15.651  0.0956  0.3653 -0.3304
20622W        W36431   1.544  18.194  12.606  0.1037 -0.1059  0.1916
20623W        W36432   9.786  15.663  11.376 -0.0729  0.2594  0.2100
20624W        W36433  15.183   8.325   4.423 -0.2828  0.0635  0.0486
20625W        W36434   7.598   0.391  12.607  0.4134 -0.1091  0.2338
20626W        W36435  11.796   8.851  13.275 -0.0456 -0.0427  0.2051
20627W        W36436   0.417  12.778   1.096 -0.2793 -0.0348  0.1667
20628W        W36437  14.363  12.730   1.294 -0.0259  0.1711 -0.2266
20629W        W36438  14.157  11.379   4.043 -0.0557 -0.0842  0.0148
20630W        W36439   7.063  18.590  11.491  0.0234  0.1430  0.0205
20631W        W36440  11.916   7.079  14.221  0.1179  0.2266 -0.0066
20632W        W36441  10.523   6.161  14.493  0.1078  0.2928 -0.0956
20633W        W36442  10.502   1.857  13.017  0.1195 -0.1652  0.0292
20634W        W36443   6.285   3.352  14.947 -0.3035 -0.1674 -0.2321
20635W        W36444   3.024  10.857   0.017  0.2640  0.2139  0.1885
20636W        W36445  16.951   6.126   4.056 -0.1673  0.1269  0.0992
20637W        W36446   3.082  10.504  13.882 -0.0840 -0.1340  0.0206
20638W        W36447  11.260   1.924  11.563  0.2710  0.2326  0.1280
20639W        W36448   2.966   7.893   3.132 -0.0312  0.2163  0.1224
20640W        W36449  14.190   3.675   0.957 -0.0099  0.0050  0.0024
20641W        W36450  11.526  13.504  14.019 -0.0803 -0.2087 -0.0577
20642W        W36451  11.477   9.760   6.353 -0.1977 -0.2274 -0.1478
20643W        W36452   6.578  14.371   0.695  0.0259 -0.1499 -0.0144
20644W        W36453   9.366   5.442  14.288 -0.3536 -0.1604 -0.2645
20645W        W36454  10.649  17.195  14.406  0.0147 -0.2376  0.0366
20646W        W36455  14.821   7.998   4.071 -0.1389  0.1731  0.0024
20647W        W36456   2.321  15.612  11.974 -0.0683 -0.0988 -0.2546
20648W        W36457  12.442   4.222  12.267  0.0054 -0.0723  0.1851
20649W        W36458  11.426  16.275  14.415 -0.2502 -0.0590 -0.2614
20650W        W36459  16.248  11.841   5.296 -0.3071  0.1331 -0.1535
20651W        W36460  15.710   7.252   5.062  0.0937  0.0568 -0.0629
20652W        W36461   4.298   0.273  13.388 -0.2416 -0.0866  0.2084
20653W        W36462   7.981  13.159  12.790 -0.1420 -0.0950  0.0592
20654W        W36463  12.042   9.042   2.064  0.1300  0.1276 -0.3194
20655W        W36464  14.803  13.037   2.489 -0.2934  0.0643 -0.1405
20656W        W36465   2.863   6.062   2.112 -0.1254 -0.2508  0.0382
20657W        W36466   6.047   8.751  13.182 -0.0530  0.1567  0.3597
20658W        W36467   2.756   4.535  11.531  0.1055  0.0026  0.0202
20659W        W36468  17.820  14.293   4.767 -0.4650 -0.1585 -0.5051
20660W        W36469   7.555  14.039  13.004 -0.1938 -0.1013  0.0442
20661W        W36470  13.357   2.902  11.635  0.4819  0.1247 -0.2104
20662W        W36471  11.889  18.515   2.552  0.1263  0.1591  0.0805
20663W        W36472   8.543   1.780  12.875  0.3686  0.1703 -0.0757
20664W        W36473   7.133  12.591  12.358  0.0114  0.1444 -0.3571
20665W        W36474  16.438   2.773  14.538  0.0945 -0.2092 -0.2342
20666W        W36475  12.773  12.697  11.933  0.1173  0.1599  0.2528
20667W        W36476   8.630   7.702   1.717 -0.0792  0.1988  0.1843
20668W        W36477   7.366  18.196  12.958  0.2113 -0.1582 -0.1186
20669W        W36478   5.939  14.513   2.298  0.1659  0.0007  0.3416
20670W        W36479   7.417  15.795  12.356  0.0253  0.1804 -0.1557
20671W        W36480   4.872  10.149  15.138  0.0531  0.0800 -0.4428
20672W        W36481  15.262  11.695   1.925  0.0519  0.2552 -0.1032
20673W        W36482  18.013  10.823   4.323 -0.1653  0.1516  0.0131
20674W        W36483  12.989  16.215  14.175  0.0916  0.1854  0.0816
20675W        W36484  16.809   8.798  15.514 -0.2887 -0.1178 -0.0065
20676W        W36485   0.392   0.215  15.224 -0.3663  0.0696  0.0358
20677W        W36486   7.788   7.209  12.524  0.0937 -0.1735  0.2990
20678W        W36487  16.461   9.605   0.991 -0.3870 -0.0008  0.1909
20679W        W36488  10.618   9.947   1.778  0.1957 -0.2786  0.0702
20680W        W36489   1.459   2.606  14.171  0.3275  0.1284  0.0048
20681W        W36490  12.191  10.108  14.613  0.0375 -0.2202  0.1076
20682W        W36491   3.923   7.994   2.753 -0.1455  0.0471  0.6187
20683W        W36492  11.761   8.735  11.197  0.0108 -0.1355  0.0351
20684W        W36493  12.806  13.699   1.892 -0.2051  0.0394 -0.4272
20685W        W36494   5.513  17.206   5.446  0.1428  0.1531 -0.0525
20686W        W36495   9.256   6.733  11.282 -0.2075 -0.0558 -0.2967
20687W        W36496  11.669   8.967  13.943 -0.3349  0.1353 -0.2426
20688W        W36497   7.803  16.229   4.881  0.1611 -0.2723  0.1984
20689W        W36498  13.322   3.133   1.719  0.0055 -0.0139 -0.0977
20690W        W36499  12.001  14.634  11.340  0.1529 -0.0554  0.3504
20691W        W36500   8.769  14.058  12.459  0.1252  0.3458  0.3093
20692W        W36501   1.507   0.175   0.422 -0.0114 -0.0167 -0.1193
20693W        W36502   1.204   8.718  13.945 -0.2996  0.0890 -0.3794
20694W        W36503  15.903  15.918  11.557 -0.0658  0.2650  0.1697
20695W        W36504   0.143   1.623  12.520 -0.1146  0.1770 -0.0692
20696W        W36505   4.740  18.566  13.434  0.0119  0.0594  0.0800
20697W        W36506  14.674  14.458  15.306  0.3235  0.1315 -0.0448
20698W        W36507  11.003   7.537  12.567 -0.4060  0.2431 -0.2042
20699W        W36508   6.321  14.200  12.197  0.0247 -0.1584  0.0486
20700W        W36509   9.269  13.700   4.825  0.1581 -0.0905 -0.0745
20701W        W36510   6.459  12.993   2.474  0.2473  0.2857 -0.2542
20702W        W36511   9.558   4.015   1.538 -0.5287  0.3460 -0.0036
20703W        W36512  12.170  12.596  11.763 -0.0211 -0.1091 -0.0367
20704W        W36513   0.105   1.064  11.884 -0.0584  0.0745  0.0743
20705W        W36514  18.200   1.119   3.569 -0.2754  0.0786  0.1116
20706W        W36515  15.878   0.178   2.991 -0.0831 -0.0676 -0.1140
20707W        W36516   1.757   5.518   4.066 -0.3030  0.4151 -0.2097
20708W        W36517  15.008  10.963   4.074  0.2875  0.2057 -0.1691
20709W        W36518  16.124  16.646  13.884 -0.1373 -0.3000  0.0309
20710W        W36519  11.444   5.467   5.687 -0.0770  0.1005  0.2377
20711W        W36520  10.119   1.798   5.103 -0.0788 -0.1967  0.0514
20712W        W36521  14.811  17.200  14.157 -0.0983 -0.2242 -0.0945
20713W        W36522  15.000   3.492   1.405  0.1806 -0.3147 -0.1013
20714W        W36523   2.509   2.361  15.701  0.3250 -0.1456 -0.0263
20715W        W36524   1.699   1.684  14.946  0.3972 -0.0155 -0.0939
20716W        W36525  12.512  14.305   2.547  0.0832 -0.0376  0.0690
20717W        W36526  16.015   9.146  13.487 -0.2305  0.2616  0.2960
20718W        W36527  15.703   7.355  12.366  0.3082  0.0519  0.1793
20719W        W36528   0.573   6.214   4.948  0.2156  0.3697  0.1207
20720W        W36529  17.501   3.719  10.910  0.0397  0.0345 -0.0371
20721W        W36530   2.961   9.624   5.329  0.0751  0.0381 -0.1425
20722W        W36531  17.853   1.625  13.677 -0.2128  0.1150  0.2178
20723W        W36532   3.487  17.419  11.623  0.0147  0.1160  0.2001
20724W        W36533   4.325  14.085  12.360  0.0630  0.0082 -0.1346
20725W        W36534  10.346   0.326  15.634 -0.0933 -0.1123  0.0160
20726W        W36535   6.076  18.246  10.949 -0.0239  0.0674 -0.1341
20727W        W36536  14.037  15.181   1.376 -0.1347 -0.1174  0.1320
20728W        W36537  15.953  13.833  11.433  0.0187  0.1739  0.0985
20729W        W36538  13.128   0.512   0.993 -0.1099 -0.1586 -0.0076
20730W        W36539  16.560  17.474   5.192  0.1796 -0.3205  0.0129
20731W        W36540  12.416  16.980  11.794  0.4958 -0.1261 -0.0744
20732W        W36541  14.958   4.944   0.777  0.2280  0.1612  0.1467
20733W        W36542   5.930   5.527  14.638  0.1935 -0.0725  0.0472
20734W        W36543   2.203   9.354   3.156  0.1635  0.2813  0.1866
20735W        W36544   0.890  18.256   1.857  0.0295 -0.2627  0.1951
20736W        W36545  15.406   9.816   3.203  0.3433 -0.0454 -0.0200
20737W        W36546   0.382   1.920  11.754 -0.1121  0.0685  0.1673
20738W        W36547  11.803  16.776   5.253  0.0564  0.1400 -0.1145
20739W        W36548  11.716   3.930   2.053  0.0154  0.1508 -0.1104
20740W        W36549  14.437  11.258   1.495 -0.0935  0.0541  0.0865
20741W        W36550   1.282   7.555  13.324  0.0478 -0.1514 -0.0914
20742W        W36551   7.849  17.109   2.497  0.1170 -0.0961 -0.5179
20743W        W36552   4.400  17.817   1.309 -0.0421  0.1191 -0.2171
20744W        W36553  12.355   6.358   1.223  0.2857  0.2016  0.1474
20745W        W36554   7.224   7.959   0.352 -0.0344  0.3284 -0.0462
20746W        W36555   7.839   4.002  12.180 -0.0561 -0.1732 -0.2379
20747W        W36556   4.655  17.003   3.368 -0.1640  0.0529  0.1334
20748W        W36557   8.885  13.202   4.188 -0.1668 -0.3671  0.1762
20749W        W36558   5.517   1.160   0.639 -0.0321  0.0147 -0.1722
20750W        W36559   6.656  17.505   2.021  0.1574 -0.1220  0.1693
20751W        W36560  10.589  18.570   1.575 -0.0406  0.2114 -0.0659
20752W        W36561   9.264  11.783   5.318 -0.0797 -0.3165  0.0032
20753W        W36562   3.869   1.737  13.792 -0.1322  0.0569  0.0828
20754W        W36563   4.514   1.314   4.334 -0.0617 -0.0956  0.0954
20755W        W36564  14.092   1.591   2.053  0.0593  0.1367  0.1168
20756W        W36565  15.292   8.131  12.671 -0.1307  0.0324 -0.0314
20757W        W36566   7.278   5.741   2.068  0.2825  0.3624  0.2953
20758W        W36567   6.936   9.462  12.596  0.1027  0.0501  0.1894
20759W        W36568  16.288  18.118  12.519  0.0555 -0.1630  0.0120
20760W        W36569  14.053  15.903   1.891 -0.1320 -0.1979 -0.0778
20761W        W36570  16.317   7.715   4.388 -0.1491  0.1311 -0.0055
20762W        W36571   0.618   0.290   0.011 -0.1616  0.3629 -0.0488
20763W        W36572  18.281   8.859   4.379  0.1289  0.0305  0.4046
20764W        W36573   6.216  17.868   1.862  0.0524 -0.3290 -0.0910
20765W        W36574   7.591   1.965   4.219  0.2192 -0.0718 -0.0062
20766W        W36575   8.517   9.722  13.969 -0.3894 -0.2912 -0.0024
20767W        W36576  17.598  10.986   3.444  0.0140  0.1416 -0.0869
20768W        W36577   9.339  12.569   4.017 -0.0441  0.0149  0.2272
20769W        W36578  18.420  12.482  14.465  0.0919 -0.0296 -0.3343
20770W        W36579  15.378  17.835   2.108  0.4121 -0.0846 -0.2330
20771W        W36580  18.014  10.625   1.314 -0.3853 -0.0064 -0.1820
20772W        W36581   6.153  11.270   0.399  0.0255  0.3102  0.0545
20773W        W36582  10.411  17.722  12.107 -0.1276  0.0883  0.0298
20774W        W36583  17.621   5.434   0.437  0.2646 -0.2164 -0.1888
20775W        W36584  17.409  15.613   0.491  0.0527 -0.3752  0.1442
20776W        W36585  16.813  18.540  14.674  0.0914 -0.0994 -0.0459
20777W        W36586   3.085   1.523  14.266 -0.3117 -0.0801  0.0164
20778W        W36587   1.273  18.291   3.728 -0.1192  0.1000  0.0671
20779W        W36588   9.887  15.586  13.203  0.0782 -0.1695  0.1724
20780W        W36589  12.781   8.354  14.982 -0.2844 -0.3859 -0.1657
20781W        W36590   8.400   8.318   4.348 -0.1241  0.1597 -0.0527
20782W        W36591   9.936  14.267   0.416  0.2543 -0.2139 -0.0761
20783W        W36592  16.608   1.674   0.412  0.3543  0.0581 -0.0861
20784W        W36593   0.143  15.675   1.501  0.2928 -0.0943 -0.0975
20785W        W36594   7.930  12.373   9.920 -0.1638  0.1135 -0.4928
20786W        W36595   5.976  16.199   4.679 -0.2817 -0.2729 -0.0410
20787W        W36596   6.319   7.475   5.527 -0.1625  0.0422  0.2516
20788W        W36597   7.714  15.981  15.243  0.4446  0.1100  0.3106
20789W        W36598  16.689   4.551  15.466 -0.1239 -0.0009 -0.1594
20790W        W36599   6.309  11.012   2.721 -0.2518  0.2765  0.1519
20791W        W36600   9.311  10.814   4.299 -0.1501 -0.1051 -0.1124
20792W        W36601   0.066   8.393   1.841  0.2209 -0.2848 -0.0870
20793W        W36602  17.353  14.786  10.458 -0.0562 -0.3738 -0.4017
20794W        W36603  17.250   7.438  11.532 -0.1584  0.2120  0.5574
20795W        W36604   6.074   5.512   5.966 -0.0731  0.0573  0.0173
20796W        W36605  10.990   1.587   4.621  0.0692  0.1402 -0.1169
20797W        W36606  13.653  15.266   2.239 -0.2879  0.2371 -0.0980
20798W        W36607  13.785  15.927  12.452  0.2474 -0.2439  0.1611
20799W        W36608  15.676   5.016   2.317 -0.2388  0.1044  0.1394
20800W        W36609  15.738  14.957   1.182  0.2398 -0.1831 -0.0628
20801W        W36610  15.044  12.697   6.040 -0.0678  0.1000 -0.0505
20802W        W36611  14.807  12.651  15.010  0.2168  0.0875 -0.0160
20803W        W36612   3.653  12.482  14.584  0.2682 -0.1540  0.0844
20804W        W36613   4.872   3.379  13.345  0.1521  0.0167  0.0023
20805W        W36614   3.788   2.158  14.497 -0.0847  0.0326  0.1104
20806W        W36615  13.378  16.354  13.946 -0.1653 -0.4202  0.1554
20807W        W36616   4.266  10.042  14.867  0.0014 -0.1475 -0.0225
20808W        W36617   9.046  14.480  12.594 -0.0875 -0.0135  0.1604
20809W        W36618   1.338   4.227   0.272  0.1536 -0.0738 -0.0498
20810W        W36619  17.650  12.819   4.676  0.1109  0.4913 -0.0680
20811W        W36620   7.121  12.627  10.398 -0.1100 -0.2842 -0.0378
20812W        W36621   7.644   7.159   3.267 -0.1781 -0.1681  0.2228
20813W        W36622   1.833  15.135  13.259 -0.4080  0.1197 -0.3459
20814W        W36623  10.100  11.946   4.309 -0.3362 -0.3588 -0.2632
20815W        W36624  10.988   2.778  14.672  0.3464 -0.3985  0.0896
20816W        W36625  10.582   9.688   0.715 -0.2140  0.0422 -0.1149
20817W        W36626   0.627  13.262  11.637  0.0115  0.1191 -0.1028
20818W        W36627   4.014   3.823  13.994 -0.1019  0.0253  0.1741
20819W        W36628  12.464  17.511   4.851 -0.0268  0.2028 -0.2736
20820W        W36629   3.785  15.669   0.363 -0.1994 -0.1367 -0.1806
20821W        W36630   6.410   4.151   3.017 -0.1023 -0.3331 -0.1219
20822W        W36631  16.804  17.519   1.352  0.1358 -0.0272 -0.1201
20823W        W36632   8.609   2.310   5.816 -0.1686  0.0231  0.1474
20824W        W36633   0.898  11.915   3.438  0.1538  0.1140 -0.1188
20825W        W36634   0.339  10.191   4.797  0.3891  0.1732 -0.0978
20826W        W36635  14.570   8.337  11.751  0.2249 -0.5031 -0.1734
20827W        W36636  11.728   0.777   3.782  0.2869  0.2644 -0.1950
20828W        W36637  13.642   5.626  13.970 -0.1211  0.1406  0.2473
20829W        W36638   2.620  17.539  11.808  0.3636  0.2212 -0.2367
20830W        W36639   9.687   7.114   0.010  0.0976 -0.0008 -0.1511
20831W        W36640   0.244   4.487   5.063 -0.1002  0.2904 -0.3084
20832W        W36641  15.383   4.535   4.048 -0.1794  0.0141  0.1068
20833W        W36642  15.270   5.683  12.862 -0.0200  0.0847 -0.1130
20834W        W36643  16.279   1.075   2.984 -0.1054  0.0203  0.2244
20835W        W36644   0.323  10.639   4.243 -0.0249  0.1765  0.0275
20836W        W36645   2.711  17.341   0.448  0.0291  0.0084  0.0799
20837W        W36646   8.888   9.949  15.330 -0.3259  0.2366 -0.0139
20838W        W36647  15.311   5.319  13.353 -0.0322  0.0676 -0.0516
20839W        W36648  14.616   5.678  14.236  0.0076  0.3489  0.2824
20840W        W36649  11.094   6.318   4.941  0.1015  0.1433  0.1548
20841W        W36650   6.785  14.926  13.763  0.2159 -0.0380 -0.0703
20842W        W36651  18.519  17.922  14.698  0.0293  0.0306 -0.0187
20843W        W36652   5.157  10.139  11.254 -0.1043  0.1736 -0.1317
20844W        W36653  14.213  16.010  15.208  0.1431  0.0736  0.0781
20845W        W36654   4.375   5.141   4.592 -0.0027 -0.0396 -0.0121
20846W        W36655   0.427  17.668   1.630 -0.1893  0.1253 -0.1232
20847W        W36656   6.253   0.929   3.160  0.0324  0.0782  0.0771
20848W        W36657   5.095   1.887   2.814 -0.0537  0.1600 -0.2008
20849W        W36658   7.318   8.101   5.548  0.2020 -0.0630  0.1038
20850W        W36659   7.356   9.139  12.462 -0.0946 -0.1697 -0.0266
20851W        W36660  17.458   8.662   3.235  0.3099  0.1960 -0.1719
20852W        W36661   0.339  11.808   0.202 -0.0087  0.1667  0.1137
20853W        W36662   3.714  13.270  14.351  0.0178  0.2019  0.0305
20854W        W36663   2.321  17.983  11.817  0.1485  0.0694  0.0795
20855W        W36664   8.800   1.734   0.421 -0.1125  0.0723  0.2083
20856W        W36665   7.480   0.997  13.210 -0.2903  0.0697 -0.1786
20857W        W36666   1.720   7.790  15.419  0.0407 -0.2767 -0.1685
20858W        W36667  13.983  14.023  13.666  0.3053 -0.0344  0.1954
20859W        W36668  13.727   1.016  10.588 -0.1092  0.0347  0.3241
20860W        W36669  12.478   1.943  13.382 -0.0804 -0.0045  0.1587
20861W        W36670   8.149   5.860   1.521 -0.2193 -0.0123  0.2711
20862W        W36671  18.022  16.703   4.897  0.3841  0.2402 -0.2509
20863W        W36672   4.442  18.300  14.544  0.1343 -0.2764 -0.0782
20864W        W36673   6.230  16.765   0.301 -0.0760  0.0364  0.0565
20865W        W36674  10.190  14.022   4.374  0.1559 -0.0202  0.0298
20866W        W36675   6.175  13.722   2.642 -0.0681 -0.0757 -0.2773
20867W        W36676   0.694  15.143   2.512 -0.0986  0.3525  0.3816
20868W        W36677  16.938  16.380  12.587 -0.0325  0.3454  0.2893
20869W        W36678  14.628  14.796  11.939 -0.2915  0.1729  0.1751
20870W        W36679  12.196  16.903  15.725  0.3719 -0.1640 -0.0135
20871W        W36680   4.145   2.961  11.451 -0.1143  0.0051  0.4174
20872W        W36681   5.756  12.706   0.622  0.1344 -0.1290  0.0694
20873W        W36682   8.008  13.068   4.229 -0.1258  0.2141  0.0044
20874W        W36683  12.491  16.876  14.957 -0.0174  0.1529 -0.1154
20875W        W36684  11.413   8.932  13.044  0.3960 -0.1192 -0.3287
20876W        W36685   8.544  13.385  15.586  0.2394 -0.2683  0.0403
20877W        W36686   7.095  17.736   1.780  0.1213  0.3966 -0.0113
20878W        W36687   3.736   2.733  11.114  0.0833 -0.1765  0.1294
20879W        W36688  15.139  14.886   0.438 -0.1979  0.0270 -0.2102
20880W        W36689   1.284   8.276  14.181 -0.0506  0.1000 -0.0213
20881W        W36690  11.719   1.048  13.498 -0.1897  0.0440 -0.1161
20882W        W36691  16.434   3.794  14.623  0.0849  0.0957  0.1427
20883W        W36692   3.860   9.480   2.074  0.4372 -0.2853 -0.3603
20884W        W36693  16.288   2.958   3.966 -0.0856 -0.1818  0.0429
20885W        W36694   8.864  15.972  13.931 -0.0871  0.1424 -0.2331
20886W        W36695   2.864  18.467  15.407 -0.0682  0.2164  0.1651
20887W        W36696  15.295   5.978  14.072  0.1566  0.1125 -0.2302
20888W        W36697  18.342   7.763  12.521  0.2041  0.0753 -0.2774
20889W        W36698  10.635  15.224   0.550  0.0544 -0.3357 -0.1338
20890W        W36699  17.791   3.980   3.324 -0.2911 -0.0302 -0.0218
20891W        W36700  16.560  17.130  11.054 -0.4404  0.2219  0.1208
20892W        W36701   9.845   9.905  12.912 -0.0633 -0.0274 -0.0852
20893W        W36702  14.689   6.712   2.598 -0.1628 -0.1084  0.0733
20894W        W36703  17.315   3.394   2.062  0.0138 -0.1439  0.0586
20895W        W36704  13.753  11.573  11.210 -0.0604  0.1887 -0.1891
20896W        W36705   6.339  16.471   1.724  0.1732  0.1616 -0.0217
20897W        W36706   0.740  13.017   5.332 -0.2587  0.1021 -0.1412
20898W        W36707  12.010  11.146   1.287 -0.2950  0.0399  0.1300
20899W        W36708   0.608  16.169   2.594  0.0948  0.1768 -0.1271
20900W        W36709   1.241   3.573   4.024  0.0456  0.1497 -0.2651
20901W        W36710   2.993  11.565   1.347  0.5974  0.0347 -0.1429
20902W        W36711   2.724  14.755   2.224 -0.1184  0.0761 -0.1992
20903W        W36712  17.364  12.973   2.577  0.2234  0.2778 -0.2285
20904W        W36713  11.738   7.211   2.223  0.0241  0.2269 -0.4288
20905W        W36714  15.268  13.800  10.879 -0.3415  0.1740 -0.1775
20906W        W36715   3.191   1.717   3.862 -0.1765 -0.0201  0.1740
20907W        W36716   7.241   1.209   3.595  0.0080 -0.0686 -0.2919
20908W        W36717   4.549  15.357  12.666 -0.4272 -0.0066 -0.1848
20909W        W36718   8.278  18.112  12.851 -0.4086  0.2316  0.1565
20910W        W36719  10.276   2.659  11.609 -0.1362  0.1389 -0.0321
20911W        W36720  17.840   8.609   4.472 -0.0273  0.3098  0.0079
20912W        W36721  11.171   5.646   1.375 -0.3582 -0.0098 -0.1372
20913W        W36722   1.776  11.763  13.980  0.0792 -0.0811 -0.1901
20914W        W36723   5.642  16.762  11.948 -0.1811  0.1352  0.0005
20915W        W36724   8.222  11.116   0.059  0.0481 -0.1136 -0.1362
20916W        W36725  17.418  12.637  15.699 -0.1675 -0.2127 -0.1341
20917W        W36726  12.725   3.188  12.976  0.0503 -0.1279 -0.0611
20918W        W36727  16.297  10.333   3.791  0.0474 -0.1202  0.1197
20919W        W36728   4.625   6.703   0.128  0.2620 -0.2053 -0.1845
20920W        W36729  11.586  13.711  11.339  0.2577  0.1016 -0.3449
20921W        W36730   0.209  10.709  12.774  0.0476 -0.2144  0.1295
20922W        W36731   4.387  12.711   3.251  0.0899  0.0157 -0.3209
20923W        W36732   2.134  15.693   1.245 -0.0822 -0.0103  0.0805
20924W        W36733  14.467  12.616  13.857  0.1421  0.0886  0.0626
20925W        W36734  13.416   2.228  13.451  0.0952 -0.0065 -0.0217
20926W        W36735  14.523  15.783  15.567 -0.0151  0.1358  0.0701
20927W        W36736   5.874  16.184   2.892  0.1424 -0.2139 -0.4523
20928W        W36737   1.207  15.639  15.580 -0.0335 -0.0336 -0.0157
20929W        W36738   7.289  12.123   3.739 -0.2305  0.4030 -0.1427
20930W        W36739   7.312  12.111   4.930  0.1119 -0.0135  0.0341
20931W        W36740   1.107   9.723  15.400 -0.0168  0.0479  0.0110
20932W        W36741   0.404  13.156   0.719  0.1196  0.0593 -0.0665
20933W        W36742   4.918  17.493   3.475 -0.1109  0.2578 -0.2145
20934W        W36743  17.679  15.176  15.330  0.3221  0.1869 -0.2197
20935W        W36744  16.852  13.952  14.485 -0.2711 -0.0315 -0.2083
20936W        W36745   4.856   7.501   4.758  0.1997 -0.1151 -0.0008
20937W        W36746   5.440   4.160   0.116  0.1748 -0.0475  0.2200
20938W        W36747   1.615  16.280  15.299  0.0213 -0.0025  0.0563
20939W        W36748   3.891  12.453   3.143 -0.2935 -0.4676  0.2052
20940W        W36749  10.115  16.867  12.638  0.3909  0.0489  0.2899
20941W        W36750  10.009  17.057   3.953  0.0176  0.0571  0.1271
20942W        W36751  16.966   7.952  13.682  0.2229  0.0721 -0.0079
20943W        W36752   0.372   3.291   3.023 -0.3818  0.2472 -0.1935
20944W        W36753  15.528   9.208  11.267  0.1551  0.0525  0.1834
20945W        W36754  16.230   3.164   0.043 -0.1602  0.0319 -0.3970
20946W        W36755   7.220  16.015  13.216 -0.2433  0.1806  0.1851
20947W        W36756  10.501  13.397   5.782  0.0853  0.3694  0.2624
20948W        W36757   0.080   1.181   0.328  0.0115 -0.0269  0.2400
20949W        W36758  17.762  13.804  11.953  0.2628  0.0052 -0.1842
20950W        W36759   0.262   5.772   5.003  0.0356 -0.1310 -0.4052
20951W        W36760   5.216  17.908   1.127  0.1279 -0.0249  0.0338
20952W        W36761   9.696  17.007  13.401 -0.0673 -0.1420 -0.1200
20953W        W36762   6.029  12.370  13.222 -0.2490 -0.0076  0.1238
20954W        W36763  10.737  12.612   0.515 -0.0942 -0.2622  0.0900
20955W        W36764   9.319   3.259   6.066  0.3061  0.0167 -0.1669
20956W        W36765   4.239  16.588  12.209 -0.0485 -0.0210  0.0784
20957W        W36766   2.199  12.341   1.901  0.1134 -0.1269 -0.1048
20958W        W36767  18.189   7.869  11.587 -0.0533 -0.0265  0.0369
20959W        W36768  17.399   8.015   1.863 -0.0506  0.0242  0.0608
20960W        W36769   4.925  15.848   3.044 -0.5591  0.2810 -0.3848
20961W        W36770   1.246  10.352   4.039  0.5862 -0.0773  0.1537
20962W        W36771  17.060   9.125   0.036  0.3488 -0.2583  0.2391
20963W        W36772   7.180   8.479  12.477 -0.1097  0.0610  0.0906
20964W        W36773   2.398   8.227  11.707 -0.1627 -0.2140 -0.1193
20965W        W36774  13.861  17.154  10.428  0.0416 -0.1971 -0.2634
20966W        W36775   6.977   2.600  13.842  0.3002  0.1100  0.1127
20967W        W36776  10.236  13.974   0.975 -0.2485 -0.1870  0.1785
20968W        W36777   3.203  10.725  11.792  0.1894  0.2629 -0.0048
20969W        W36778  18.076   6.699   3.498  0.1456  0.2208 -0.0890
20970W        W36779   6.220   6.236   1.191  0.1679  0.0676 -0.0952
20971W        W36780   1.112   0.423   2.543  0.1691 -0.5121 -0.0027
20972W        W36781  13.951  16.123   0.904  0.0114  0.2170 -0.1818
20973W        W36782  14.492   0.699  13.727 -0.1447 -0.3560 -0.1840
20974W        W36783  13.323  10.042   2.224  0.2451 -0.1146 -0.0061
20975W        W36784  14.504  11.384  12.416 -0.2050  0.0106  0.1672
20976W        W36785  13.292  14.804   4.408 -0.1563  0.0204 -0.2222
20977W        W36786   6.216  13.925   1.589 -0.1579 -0.0922 -0.3362
20978W        W36787  16.429  10.155   1.785  0.1298 -0.0100 -0.1715
20979W        W36788  12.358  12.819  11.268 -0.0725  0.1606  0.3226
20980W        W36789  13.364   0.671   3.589  0.1094 -0.1138  0.0337
20981W        W36790   9.437   5.881   2.848 -0.1818 -0.1308  0.2391
20982W        W36791  15.640   4.308   3.667 -0.1205  0.0939  0.0141
20983W        W36792  17.300   9.621  12.351  0.0845  0.0939  0.0178
20984W        W36793  10.894  13.155   1.216  0.1440 -0.3296  0.0702
20985W        W36794   5.667   1.015  11.338 -0.0963 -0.1980  0.0125
20986W        W36795   8.571   8.751   1.555  0.2887  0.0929  0.0873
20987W        W36796   9.822   3.893   2.007 -0.2009  0.2116  0.1893
20988W        W36797   4.957   5.223   2.000 -0.2712 -0.1386 -0.0263
20989W        W36798  18.480  16.582   0.096  0.3269  0.4740 -0.0151
20990W        W36799  17.305  13.157   3.167 -0.2138  0.0823  0.2733
20991W        W36800  15.830   9.387  13.882 -0.1759  0.0211 -0.2855
20992W        W36801  10.167  12.346  13.108  0.1422 -0.1084 -0.0254
20993W        W36802   3.328   8.851  11.377  0.3415 -0.2156  0.0174
20994W        W36803   3.858  15.758  12.286  0.1479  0.0210  0.1771
20995W        W36804  13.781   6.045   4.960 -0.0341  0.2389  0.0055
20996W        W36805   5.667  10.128  12.735  0.0809 -0.1264 -0.2326
20997W        W36806   2.045   5.215  14.522 -0.0157 -0.2500  0.0018
20998W        W36807   6.789   0.440   1.718 -0.1071  0.0307  0.1565
20999W        W36808   9.245  10.289  14.407  0.2213 -0.1556  0.1598
21000W        W36809   1.368   0.943  14.351 -0.1207 -0.0059 -0.1690
21001W        W36810   6.092   8.236  11.329 -0.1711 -0.0071  0.2425
21002W        W36811   2.273  17.352  14.980  0.2666  0.0715 -0.0369
21003W        W36812  13.681  18.066   0.401 -0.0771 -0.0562 -0.2310
21004W        W36813  13.557  11.561   2.085 -0.3118  0.2290  0.0299
21005W        W36814  18.304  12.144   1.232  0.1248  0.4009  0.0441
21006W        W36815   7.469   6.241   1.860 -0.0602 -0.0691 -0.1846
21007W        W36816   8.513  16.967   5.037 -0.4658 -0.0922 -0.0023
21008W        W36817   6.992   1.571  15.299 -0.3837 -0.2770  0.0937
21009W        W36818  16.991   8.485  13.645 -0.2211  0.1291  0.0092
21010W        W36819  14.314   2.993   1.723 -0.1921  0.0324  0.0639
21011W        W36820  12.603  15.752  14.267 -0.0142 -0.1255  0.1965
21012W        W36821   1.800  13.972   1.878  0.1282 -0.0617  0.0038
21013W        W36822  13.331   4.090   0.340  0.1909 -0.3820  0.0335
21014W        W36823   8.718   4.316  11.528 -0.2874  0.0372  0.1771
21015W        W36824  13.168  16.697  14.254  0.1090  0.0406 -0.0022
21016W        W36825   3.078   9.342  12.631  0.2412 -0.2082 -0.0491
21017W        W36826   3.539  15.000  15.180 -0.0111 -0.0070 -0.0221
21018W        W36827  17.448  11.407  13.717 -0.1069 -0.2371  0.3871
21019W        W36828   4.927  12.798   5.361  0.0134 -0.2486  0.1436
21020W        W36829  14.818   7.471  14.916  0.0883  0.1685  0.3438
21021W        W36830  12.225   3.455  14.094 -0.0984  0.1230  0.1014
21022W        W36831  13.386   6.363   4.800  0.0797  0.1252 -0.0275
21023W        W36832   3.855   0.708   3.174  0.0317 -0.1936 -0.0157
21024W        W36833   3.002   5.160   0.925  0.2698  0.0356  0.0450
21025W        W36834  10.816  16.772  15.075  0.2102  0.2800  0.2194
21026W        W36835   8.811   0.599  11.573 -0.4501  0.1296  0.2967
21027W        W36836   5.072  17.952   4.087  0.0810 -0.1096  0.1215
21028W        W36837  17.384   2.421   2.897  0.1984  0.0032  0.0837
21029W        W36838  10.051   1.781  11.302  0.2102 -0.0174 -0.3994
21030W        W36839  15.142   4.176   0.569 -0.4311  0.1358 -0.1039
21031W        W36840   4.148   9.160   1.166  0.0386  0.1301 -0.2320
21032W        W36841  18.260   8.730   2.563 -0.0803 -0.0441  0.0098
21033W        W36842   0.599   8.123  15.676  0.1586 -0.1044  0.0871
21034W        W36843   3.944  16.238  11.581  0.0705  0.0587  0.0190
21035W        W36844   1.987  18.027   4.111 -0.3404  0.3770 -0.1776
21036W        W36845   4.151  11.473   5.174 -0.1196  0.0015 -0.0184
21037W        W36846   3.250  16.264  13.042  0.1124 -0.3342 -0.1415
21038W        W36847   4.322   5.503   1.162  0.0970 -0.0621  0.1521
21039W        W36848  16.385   3.673   5.367  0.0232  0.2803 -0.0736
21040W        W36849   7.878   0.296  15.123 -0.3080 -0.2387  0.0722
21041W        W36850  13.655  12.411   0.057 -0.3268  0.0824 -0.2403
21042W        W36851   7.977  13.241   0.392 -0.2740  0.0100 -0.1398
21043W        W36852  10.042   7.629  14.844 -0.0375 -0.2772 -0.3012
21044W        W36853   4.285  14.617   3.374  0.0530 -0.2137  0.0419
21045W        W36854  14.398   3.431  12.261 -0.4062 -0.0850 -0.0674
21046W        W36855   4.479   9.994   3.613  0.3015  0.1246  0.1292
21047W        W36856   0.140   9.296   1.189 -0.0648 -0.1443 -0.0403
21048W        W36857   2.318  18.377   4.558 -0.0150  0.1989  0.1586
21049W        W36858   4.178  11.306  15.068 -0.0599  0.1861  0.0499
21050W        W36859   4.481  10.085   4.445 -0.0427  0.1644  0.1566
21051W        W36860  11.982   7.779  12.290 -0.1707 -0.0738  0.1188
21052W        W36861  12.380   9.315   2.976 -0.1524 -0.1750  0.0300
21053W        W36862   6.307   5.349   1.710  0.4654 -0.1102  0.1229
21054W        W36863  12.526  16.624   4.479  0.3737 -0.2652  0.1064
21055W        W36864   6.344   4.753  13.124 -0.0369 -0.1658 -0.1191
21056W        W36865   8.662   0.396  13.800 -0.1139  0.1545  0.1698
21057W        W36866  15.653  11.956  13.512  0.1954 -0.2427  0.0223
21058W        W36867   3.528  13.912   1.953 -0.0722  0.1095 -0.0757
21059W        W36868  14.350   9.237  10.600  0.1552  0.1241 -0.1417
21060W        W36869  16.256   2.371  14.854 -0.2016  0.2166  0.0558
21061W        W36870   1.537   1.490   0.161 -0.1760  0.2962 -0.1632
21062W        W36871  10.580   6.005  15.373 -0.0491 -0.1086 -0.0139
21063W        W36872   1.164  17.908   5.273  0.0817  0.0504 -0.1597
21064W        W36873   6.300  16.846  14.547  0.0962 -0.3213 -0.0580
21065W        W36874   7.416   3.296   3.245 -0.3568 -0.1417 -0.1746
21066W        W36875   1.644   8.870   2.657 -0.2228  0.4602  0.1577
21067W        W36876  17.145   6.736  10.044  0.0451 -0.4158  0.2199
21068W        W36877   6.306  10.502  11.819  0.1320 -0.3557  0.0709
21069W        W36878  14.337  14.698  14.019  0.2174  0.0526 -0.2040
21070W        W36879   7.384   9.230  14.258  0.0379 -0.1984  0.1415
21071W        W36880   1.088   9.451  13.436 -0.1489 -0.2082 -0.3552
21072W        W36881   1.799  14.717   0.571  0.0641 -0.0792 -0.3488
21073W        W36882  17.665  15.621  12.245  0.2355  0.0152 -0.0388
21074W        W36883   7.104   7.891   5.086  0.3930 -0.3893 -0.0149
21075W        W36884   9.612   4.608  10.138  0.1836  0.1983  0.1230
21076W        W36885  11.734   2.136   4.802 -0.2525  0.1383  0.1932
21077W        W36886  11.324   5.623   2.937 -0.0601  0.5169  0.2922
21078W        W36887   0.416   7.649  14.125 -0.0149  0.2993  0.2884
21079W        W36888  10.400  17.516  14.788 -0.1998  0.1217 -0.1052
21080W        W36889  16.671  11.507  15.328  0.1209  0.2585 -0.0321
21081W        W36890   3.933  13.430   4.424 -0.0245 -0.2385 -0.2526
21082W        W36891   8.927  10.984  15.188  0.2467  0.1315  0.0252
21083W        W36892  14.982  14.236  13.111 -0.0276 -0.2417 -0.4107
21084W        W36893   2.183  12.790  13.795 -0.1850 -0.0193 -0.1451
21085W        W36894  11.546  16.279  11.867  0.0575  0.0785  0.2424
21086W        W36895  12.790  18.089  15.501  0.4249  0.0051  0.0258
21087W        W36896  14.263  13.345   0.627  0.1811 -0.1261  0.1104
21088W        W36897   5.236  17.576  12.134  0.1228  0.1741 -0.1444
21089W        W36898   5.515  17.513  11.323 -0.0492  0.0248 -0.1969
21090W        W36899  13.993  13.395   2.264  0.2186  0.1074  0.1366
21091W        W36900  12.941  11.208   0.117 -0.1578 -0.2162  0.1109
21092W        W36901   3.200   2.257   3.023  0.0520  0.1886  0.1139
21093W        W36902  13.293   2.888   0.244 -0.0926 -0.0692  0.1441
21094W        W36903  15.804   8.006   2.051 -0.0693  0.3080  0.2950
21095W        W36904   8.329  14.667  13.195 -0.0318 -0.1008 -0.1520
21096W        W36905   6.532  18.005   2.519 -0.4047 -0.2438  0.1955
21097W        W36906   7.736  18.265   0.321  0.1339 -0.0252 -0.0867
21098W        W36907  12.167  11.684   1.585  0.3041 -0.2805  0.1446
21099W        W36908   2.629  10.688  12.405 -0.2655 -0.0726  0.2103
21100W        W36909   0.869   5.992  14.929 -0.1060  0.3052 -0.1764
21101W        W36910  14.818  14.917   0.881  0.1745  0.1998  0.1368
21102W        W36911   8.525  16.187  12.483  0.0468  0.4550 -0.2864
21103W        W36912  18.039   7.164   4.399  0.2378  0.0834  0.0587
21104W        W36913   6.601  17.207  14.335  0.2075  0.2302 -0.2191
21105W        W36914   1.956  16.012  10.618 -0.2507 -0.2499  0.0579
21106W        W36915  16.972   7.609  14.602 -0.2040 -0.0603  0.2556
21107W        W36916   5.905  12.956  11.459 -0.0738 -0.1111 -0.0399
21108W        W36917   3.990   1.534   2.110 -0.2182 -0.1114 -0.0119
21109W        W36918   0.091   8.558  13.494  0.3133 -0.2704  0.0684
21110W        W36919   6.628   0.505   0.233  0.3422 -0.3044 -0.4650
21111W        W36920   5.468  18.318  12.495  0.4609  0.0852  0.1548
21112W        W36921   9.353  16.534  12.633  0.4871  0.0749 -0.1294
21113W        W36922  17.687   6.165  13.787  0.1265 -0.0669 -0.2431
21114W        W36923  15.946   7.087   2.445  0.2606 -0.0953 -0.2163
21115W        W36924   6.866   0.916  11.213  0.0126  0.2801  0.2282
21116W        W36925   4.697  16.848  10.554 -0.0761  0.1093  0.1123
21117W        W36926   8.681  16.139  13.481  0.4784  0.2865 -0.0108
21118W        W36927  10.849   4.974   2.392  0.4267  0.0826  0.0177
21119W        W36928  14.590  12.249   4.488 -0.2322 -0.2869  0.1350
21120W        W36929   3.654   7.294   5.568  0.0159  0.2353  0.1603
21121W        W36930  17.869  15.379   1.303 -0.2395  0.3524 -0.0702
21122W        W36931   0.191  15.441  12.040 -0.0747  0.1321  0.1235
21123W        W36932  16.662   2.294   3.516 -0.0664 -0.1427 -0.4409
21124W        W36933   1.570   4.742  12.609  0.0374  0.3270 -0.1150
21125W        W36934   7.262  15.567   3.011 -0.1290 -0.1185 -0.0767
21126W        W36935   7.402  12.652   2.667  0.1743  0.0244  0.3134
21127W        W36936   9.742   8.306  13.232 -0.2928 -0.0101  0.2105
21128W        W36937   1.248   3.561  13.634 -0.1334 -0.0307  0.0275
21129W        W36938  13.565  15.153  12.624  0.0007 -0.2247  0.1434
21130W        W36939   5.520  18.303  15.078 -0.0732 -0.0540  0.1842
21131W        W36940   5.046   5.491   3.004  0.0417  0.0445  0.0958
21132W        W36941  10.811  13.045  14.552  0.2387 -0.0557 -0.3186
21133W        W36942  17.496   1.485  15.245  0.0706 -0.1113  0.1641
21134W        W36943   1.669  13.469  13.909 -0.0598  0.0414 -0.1068
21135W        W36944  15.349   6.881   4.961 -0.1989  0.0307 -0.1659
21136W        W36945   6.524  11.819  14.635  0.3195  0.2907  0.0750
21137W        W36946  14.451   7.109   4.534  0.0637 -0.1169  0.1346
21138W        W36947  11.253  15.430  12.184  0.0630 -0.1385 -0.1588
21139W        W36948   2.853   9.368   1.353 -0.1269 -0.1699 -0.0483
21140W        W36949  10.320  14.347  14.897  0.1855  0.0467  0.2234
21141W        W36950   3.276  17.448  13.446  0.1363  0.0081  0.0991
21142W        W36951  12.625   3.946   3.727  0.0950 -0.1977 -0.0149
21143W        W36952  16.427   1.431   2.202  0.1571  0.1105 -0.1466
21144W        W36953  15.717  10.971  12.216  0.0624 -0.1679  0.0962
21145W        W36954  11.303   8.917  14.437 -0.1881 -0.0664  0.0494
21146W        W36955   0.211   9.918  12.207  0.1428 -0.3033  0.0031
21147W        W36956  16.253  14.072   4.328  0.0255 -0.0572  0.0137
21148W        W36957   0.385   4.732   4.082  0.0840 -0.2167 -0.1075
21149W        W36958   5.245   4.493   2.719 -0.0032 -0.1084 -0.0096
21150W        W36959  10.226   3.129   1.888  0.4023 -0.0146 -0.3255
21151W        W36960  15.553   8.425  14.701 -0.3445 -0.1279 -0.1182
21152W        W36961  16.487   1.891  13.178 -0.0620 -0.0794 -0.0784
21153W        W36962   8.862   8.552  13.107  0.0036  0.2015  0.1303
21154W        W36963  16.000   2.946   1.636  0.2294  0.1150 -0.1341
21155W        W36964   8.154   9.857   2.523 -0.0630  0.3531 -0.1639
21156W        W36965  11.235   3.006   3.478 -0.1216  0.0190  0.0759
21157W        W36966   4.948   3.971  13.072  0.2922  0.0980  0.5421
21158W        W36967  10.769  18.113  13.986 -0.1246  0.0167  0.4150
21159W        W36968   3.898   0.839  12.757 -0.1033 -0.3731  0.0407
21160W        W36969   5.904  16.224  14.507 -0.1956 -0.0660 -0.2546
21161W        W36970  13.874  17.411   4.076  0.0224 -0.0135 -0.0344
21162W        W36971  16.730   7.699   0.429 -0.3980 -0.0207 -0.2557
21163W        W36972  10.002   1.886  13.156  0.4065 -0.0467 -0.3645
21164W        W36973   2.240  13.228   2.887 -0.1107 -0.1505  0.0625
21165W        W36974  13.153   5.948  11.919  0.2752 -0.2167  0.1387
21166W        W36975   6.077   2.132   4.912  0.3147 -0.3400 -0.0753
21167W        W36976   8.539   6.033   2.332 -0.3630 -0.1985  0.0366
21168W        W36977   8.532  13.868   2.326  0.0117 -0.0311  0.3170
21169W        W36978   4.051   0.237   2.253  0.2361 -0.0733 -0.1317
21170W        W36979   2.739  14.155  11.920  0.1376 -0.0994 -0.5038
21171W        W36980   8.943   2.695  15.212  0.0528  0.1003  0.1220
21172W        W36981   8.778   1.692   2.149  0.0827 -0.0012 -0.0841
21173W        W36982  16.312   0.097  11.673  0.1093 -0.4019 -0.0564
21174W        W36983  11.134   8.950  15.646 -0.0372 -0.0221 -0.1002
21175W        W36984  12.772   0.652   1.797 -0.3018  0.6109  0.3146
21176W        W36985  13.806   2.982  11.830  0.2367  0.0719 -0.3151
21177W        W36986   8.214  11.369  12.629 -0.2810  0.2913  0.1612
21178W        W36987   4.662  11.789   2.334  0.2698  0.0458  0.0565
21179W        W36988  10.670  16.468  11.722 -0.1306  0.0334 -0.1646
21180W        W36989   9.060  16.938   1.644  0.2071  0.2106  0.0785
21181W        W36990  11.461  16.751  13.295 -0.2602  0.1180  0.0439
21182W        W36991   9.827   0.379  12.461  0.2982 -0.2302 -0.1323
21183W        W36992   4.321   9.043   2.671  0.1393 -0.1432  0.0244
21184W        W36993  16.564   4.247  10.807 -0.0502  0.4644  0.0279
21185W        W36994   8.745  15.737  12.279  0.2627 -0.2708  0.0015
21186W        W36995  12.581  12.051   2.642  0.3653  0.0918 -0.3399
21187W        W36996   9.842  13.064  12.884 -0.0056  0.0449  0.2027
21188W        W36997   3.745   6.205  11.121 -0.1449  0.1297 -0.1230
21189W        W36998   4.642   5.321   1.642  0.2786  0.0629  0.3770
21190W        W36999  12.257   1.587   0.784  0.0075 -0.2405  0.2431
21191W        W37000   8.703   3.078  14.358 -0.2123 -0.4276  0.0207
21192W        W37001   4.108  10.360  12.999  0.1074 -0.2326 -0.1211
21193W        W37002   9.967   1.041  15.292  0.0406 -0.0382  0.0972
21194W        W37003   4.193   5.395  12.740 -0.1193 -0.0622 -0.1587
21195W        W37004   7.257  12.517   5.280  0.0202 -0.0146  0.0047
21196W        W37005  14.255   2.844   0.411 -0.0527 -0.0747  0.0276
21197W        W37006  16.544  14.354  12.622 -0.3894  0.5073  0.0294
21198W        W37007   9.556   5.982  10.794  0.3047 -0.1673 -0.4737
21199W        W37008  11.702   5.647  14.181 -0.1821  0.1251  0.1384
21200W        W37009   2.262   7.766   2.507  0.1781 -0.0494  0.0613
21201W        W37010   1.566   1.991   2.427  0.2262 -0.3853  0.0140
21202W        W37011   8.974  10.663   5.656  0.3309  0.0006 -0.2527
21203W        W37012  17.279  13.767   3.184 -0.1668  0.3472  0.1958
21204W        W37013   2.847  12.220  14.324  0.0310  0.0772  0.0857
21205W        W37014   8.485   6.137  15.561 -0.2377  0.1344  0.1104
21206W        W37015  14.293  14.100  15.174 -0.0027 -0.1137  0.0594
21207W        W37016  16.360  14.954  13.001 -0.2452  0.0810 -0.1016
21208W        W37017  10.445  16.116  10.361 -0.2124 -0.0130 -0.1733
21209W        W37018   9.718   1.722   1.129  0.0914  0.3067  0.0306
21210W        W37019  17.826  15.496   3.260  0.2130 -0.0591 -0.1156
21211W        W37020   9.764  12.346  15.348 -0.2380 -0.2115 -0.0578
21212W        W37021   7.389  17.098  14.151  0.0364  0.1410  0.0308
21213W        W37022  13.385  12.779   5.186 -0.0941 -0.1593  0.1984
21214W        W37023  13.594  17.424   4.482 -0.2330 -0.0171  0.2552
21215W        W37024  16.827  17.802  14.524  0.0840  0.2025 -0.1892
21216W        W37025  17.791   7.424   3.114  0.2563 -0.1280  0.2029
21217W        W37026  16.013  10.180  13.102  0.1915  0.1450 -0.1228
21218W        W37027   4.679  15.016  12.315 -0.0484  0.1733 -0.3311
21219W        W37028  10.306   4.577   2.942 -0.0507 -0.0665 -0.0751
21220W        W37029  16.416   1.728  10.586 -0.0940 -0.0120 -0.1697
21221W        W37030  11.751   8.850   5.947 -0.2269 -0.3407  0.2462
21222W        W37031   2.344  17.142   1.311 -0.1551 -0.2035 -0.4058
21223W        W37032   9.365  12.557   0.986 -0.6000  0.3443 -0.0230
21224W        W37033  13.082  12.150   2.124  0.0945 -0.2176  0.1528
21225W        W37034  17.471  17.039   1.646 -0.2455 -0.1600  0.0059
21226W        W37035  16.752   1.286   2.742  0.0277  0.0303  0.0122
21227W        W37036   7.369   5.389   0.344  0.1079 -0.0667 -0.0722
21228W        W37037  16.594   9.720  13.462  0.2455 -0.1775 -0.0955
21229W        W37038  15.034  14.531  11.700 -0.2142  0.0413  0.2072
21230W        W37039   3.137   7.446  13.972 -0.1901  0.0797 -0.0458
21231W        W37040   6.968   0.352  13.369 -0.2951  0.0651 -0.1222
21232W        W37041  10.194   5.560   0.038 -0.2000 -0.0739 -0.2265
21233W        W37042   1.980   9.334  14.733  0.1861 -0.0198 -0.0035
21234W        W37043   2.566   6.312  14.432 -0.0044 -0.1207 -0.1564
21235W        W37044   9.411   7.343  12.908 -0.0313 -0.1568 -0.0504
21236W        W37045   2.267  14.121   1.760 -0.1313 -0.2446 -0.0602
21237W        W37046  17.348   6.340  14.687 -0.1201 -0.4502  0.1451
21238W        W37047  16.063  18.277  12.024 -0.2278  0.2123  0.1904
21239W        W37048   4.007  15.914   4.634 -0.0520  0.1051  0.1856
21240W        W37049  14.974   0.102  11.568  0.1682  0.1640  0.0559
21241W        W37050   4.921   6.729  13.216 -0.0689  0.3334 -0.0959
21242W        W37051   5.160   5.999   1.227  0.4155 -0.2640 -0.2329
21243W        W37052   7.401  16.887   4.662 -0.1800 -0.1005 -0.0409
21244W        W37053  10.619   7.490   4.266 -0.0925  0.3125 -0.2439
21245W        W37054   8.960   7.340   3.259 -0.2693 -0.1398 -0.1094
21246W        W37055   1.174   1.895   0.063  0.1102 -0.1305  0.4094
21247W        W37056  14.795  13.146  11.930 -0.0685 -0.2010 -0.0228
21248W        W37057  18.557   9.701   1.382 -0.3350 -0.1633 -0.0880
21249W        W37058  13.565   9.694  15.101  0.1002 -0.0566  0.0996
21250W        W37059  13.252   9.201  15.583 -0.2696 -0.2875 -0.0368
21251W        W37060  12.973   2.428  13.559  0.0957  0.1585 -0.0471
21252W        W37061   8.944   9.151   4.148  0.1914 -0.3959  0.1969
21253W        W37062   1.340  17.020   2.791  0.0025 -0.2834  0.1814
21254W        W37063  11.448  10.521   3.816 -0.0874 -0.0717  0.0457
21255W        W37064   4.311   3.108   1.158 -0.0744 -0.2640 -0.0212
21256W        W37065  15.139   7.836   1.562  0.0695 -0.3724 -0.3076
21257W        W37066   2.543  11.578   5.728 -0.0629 -0.1434 -0.1445
21258W        W37067   5.479  12.280   4.707  0.0336 -0.3498  0.1220
21259W        W37068   0.587   6.018  14.563  0.1051 -0.0860  0.2227
21260W        W37069   5.852   0.071   1.294  0.0348 -0.2371 -0.2128
21261W        W37070   9.701   2.333   2.777  0.0493 -0.0027 -0.2441
21262W        W37071   9.534  10.873  13.779 -0.1353 -0.0131 -0.0075
21263W        W37072  16.734  15.463  13.011 -0.3150  0.1693  0.0385
21264W        W37073  14.478   6.215  15.265 -0.1395 -0.1291  0.3585
21265W        W37074   2.234  15.697  10.984  0.1421  0.0509  0.1362
21266W        W37075   7.567  14.469  11.793 -0.0405 -0.2902  0.0172
21267W        W37076  18.428  16.586  11.018 -0.0261 -0.0709  0.3926
21268W        W37077  18.045  18.368  12.718 -0.3493  0.3080  0.2605
21269W        W37078   9.823   5.402   2.597  0.0534 -0.3633  0.3030
21270W        W37079   1.748   8.504   3.019  0.1380 -0.4785 -0.0699
21271W        W37080  16.684  11.097   2.457  0.2795  0.3258  0.1477
21272W        W37081   3.256   2.122  10.614 -0.0149 -0.1469 -0.1390
21273W        W37082   4.749   6.486   3.347 -0.1038  0.0378 -0.1286
21274W        W37083   0.186   2.062   5.565 -0.1743 -0.1726 -0.2793
21275W        W37084  11.533   5.216   3.081 -0.3025  0.0475  0.1782
21276W        W37085  10.156  14.507   1.123 -0.2797  0.1533 -0.1918
21277W        W37086  16.293  11.868  15.219  0.0249 -0.0321 -0.0726
21278W        W37087  16.151  12.706   0.086  0.0112  0.1887  0.0480
21279W        W37088  16.382   3.397   5.936  0.0177  0.0052  0.5831
21280W        W37089  17.161  17.451  11.781 -0.1313  0.1340  0.2640
21281W        W37090  11.656   1.740  10.814  0.1548  0.0579  0.0701
21282W        W37091   6.880  13.684  12.458  0.3396  0.2653 -0.2071
21283W        W37092   8.544  15.710  10.194 -0.1250 -0.1160  0.4984
21284W        W37093  10.483  11.875  13.149  0.1471  0.0738 -0.0838
21285W        W37094   0.324   5.762   4.491  0.2465 -0.0560 -0.0917
21286W        W37095   2.622  13.577   2.895 -0.0697 -0.0858 -0.0124
21287W        W37096   9.030   0.988  10.789  0.0004  0.0648 -0.2767
21288W        W37097  11.430  10.700   3.307 -0.0714  0.0869 -0.4304
21289W        W37098   1.749   6.043   2.623 -0.0487 -0.0070  0.0452
21290W        W37099   5.012   9.458   0.118  0.1731 -0.2587 -0.0672
21291W        W37100   2.469   2.444   3.629  0.2515 -0.2104 -0.0241
21292W        W37101  17.993  10.679   0.638 -0.1532  0.0975  0.0719
21293W        W37102  15.850   5.009   5.103 -0.2290  0.1546  0.2357
21294W        W37103   5.440   1.614  13.862 -0.1108  0.0721 -0.0595
21295W        W37104   4.213   8.368  13.774 -0.2266 -0.2471  0.0098
21296W        W37105  18.069  13.447   0.830 -0.2906 -0.0296  0.1589
21297W        W37106  16.719   2.417  11.902 -0.4480  0.1096  0.0539
21298W        W37107   6.180   0.635  11.937 -0.4455  0.3295 -0.1465
21299W        W37108   0.547  15.894   5.907  0.0973  0.0241  0.2239
21300W        W37109   8.977   4.987  13.324  0.1173  0.2434  0.2840
21301W        W37110   5.601   3.992   4.438  0.0543 -0.0054  0.2199
21302W        W37111   9.643  12.671  13.031 -0.0986 -0.2647  0.1843
21303W        W37112   6.947   6.128  12.563 -0.0335 -0.1743  0.0113
21304W        W37113  15.389  15.626   4.610 -0.2700  0.0696  0.1460
21305W        W37114  15.125   3.327  11.714 -0.0275  0.0771  0.3995
21306W        W37115   5.762   1.171   3.164 -0.0068 -0.1932  0.0498
21307W        W37116   7.320  14.689   2.955 -0.4069 -0.2259  0.0177
21308W        W37117   2.586  16.075   4.046  0.1795 -0.0445 -0.0338
21309W        W37118  16.076  16.433  10.402 -0.3784 -0.1207  0.1214
21310W        W37119   1.671  10.091  14.749 -0.2183  0.0647  0.4374
21311W        W37120  10.367   4.841   2.029 -0.0121 -0.0068  0.0002
21312W        W37121  11.712   8.698  14.912 -0.1488  0.0557 -0.1016
21313W        W37122   0.167  10.414   1.130 -0.0929 -0.1828  0.0893
21314W        W37123  17.248  11.987   3.646  0.0339 -0.2032  0.2454
21315W        W37124   7.503  11.773   2.944 -0.0463 -0.1056  0.3549
21316W        W37125   9.371  10.321  11.633  0.0686  0.0126  0.2446
21317W        W37126  18.515  11.062   0.402 -0.0820  0.0830  0.0057
21318W        W37127   4.258   7.859   4.483  0.0425 -0.0771  0.0908
21319W        W37128   7.905   1.865  14.908  0.0233 -0.1564  0.4660
21320W        W37129   1.582  12.891   0.174  0.2358  0.1112  0.4502
21321W        W37130   4.483  14.286   3.728 -0.2762  0.0358  0.1518
21322W        W37131   0.639   4.631   1.723 -0.2098  0.1282 -0.1662
21323W        W37132  17.644   6.916  10.855  0.0845 -0.0622  0.0221
21324W        W37133  14.285   7.557   0.559 -0.1577  0.0925  0.0154
21325W        W37134   9.648   9.071  12.898 -0.1442 -0.1899  0.1199
21326W        W37135  13.122   9.063   9.584 -0.2305  0.0617 -0.0722
21327W        W37136   1.438  18.350   0.089  0.1059  0.3909 -0.1253
21328W        W37137   3.485   3.133   2.894 -0.0264 -0.3905 -0.3441
21329W        W37138  15.356   2.220   1.300  0.1346 -0.1125 -0.0252
21330W        W37139  18.400   8.565  13.005 -0.3305  0.0813 -0.2356
21331W        W37140  17.116   0.685  14.174  0.2047 -0.0982  0.2922
21332W        W37141   4.366  17.882  14.794  0.1981  0.1495 -0.3833
21333W        W37142   3.120  15.667   1.139  0.0552 -0.2226 -0.2146
21334W        W37143   3.064  17.052   0.182  0.0649 -0.2532  0.0204
21335W        W37144  10.654   6.610   3.734 -0.0564  0.0124 -0.0408
21336W        W37145  17.896   0.294  15.551  0.1599 -0.0641  0.1956
21337W        W37146  15.814   6.308   1.896  0.2889  0.0413 -0.0859
21338W        W37147  14.779   3.809  10.930 -0.2234 -0.1868  0.2380
21339W        W37148   9.688  12.837   3.896 -0.1606 -0.0231 -0.1912
21340W        W37149   9.709  15.972   3.288 -0.2552  0.1872 -0.1061
21341W        W37150  17.412  10.523   3.522  0.2052  0.2792 -0.1484
21342W        W37151   6.139   0.756   0.704 -0.0713 -0.2541  0.1834
21343W        W37152   6.997  10.462   4.410 -0.0445 -0.2109  0.1073
21344W        W37153   1.825   3.828  13.477 -0.1363 -0.0159  0.4245
21345W        W37154  13.416   9.424  14.624  0.2332 -0.0706  0.1243
21346W        W37155  11.398  15.388  11.678 -0.2932 -0.1816  0.0129
21347W        W37156  11.782  14.902  15.583 -0.1154  0.1971  0.0194
21348W        W37157  14.531   6.543  12.241  0.2432  0.2222  0.0148
21349W        W37158   3.818  10.078   1.351  0.0264  0.0358  0.0548
21350W        W37159   4.137   2.462   3.098  0.1524  0.1822  0.2685
21351W        W37160   8.541  11.812  14.045 -0.0478  0.0562 -0.2174
21352W        W37161   1.913  12.674  13.322 -0.1175  0.0075  0.0912
21353W        W37162  13.390   4.371   3.257  0.4147  0.1071 -0.0515
21354W        W37163  14.868   9.466  13.574  0.0686 -0.0120 -0.1844
21355W        W37164   1.900   9.276  13.095 -0.2562  0.1156  0.1925
21356W        W37165   9.231   5.866  14.071  0.1676 -0.3269 -0.0919
21357W        W37166   1.289  17.998   4.782  0.0414  0.0163 -0.0533
21358W        W37167  16.316  16.210   3.265  0.0074  0.2607  0.0224
21359W        W37168   5.404   7.729   4.679 -0.4489 -0.0226 -0.2826
21360W        W37169   0.645  13.556  13.113 -0.2326  0.0961  0.1891
21361W        W37170  10.495  18.306  14.569 -0.2309  0.2118 -0.3828
21362W        W37171   6.163  12.838   4.382  0.1638  0.0956 -0.3797
21363W        W37172   3.222  14.235  12.788  0.3758  0.0805  0.1885
21364W        W37173  16.331   5.055   1.702 -0.0969  0.1891  0.1063
21365W        W37174  14.308   2.635   3.690 -0.1609  0.0266 -0.1885
21366W        W37175  12.056  18.513   1.715 -0.0386  0.1815 -0.4430
21367W        W37176   3.329  10.795   4.680 -0.0428 -0.4111  0.0464
21368W        W37177   9.893  15.226   2.549  0.0605 -0.2706 -0.1372
21369W        W37178   2.438   5.670   3.487  0.0818  0.0637  0.2865
21370W        W37179  17.002   7.779  15.447  0.1102 -0.0975  0.2529
21371W        W37180  10.220   4.447  11.976 -0.0817  0.1581 -0.0916
21372W        W37181   1.116  15.968  11.837  0.1047  0.0383 -0.0739
21373W        W37182  16.103   5.112   1.146 -0.2516 -0.0366 -0.1715
21374W        W37183   8.391   3.714   4.943 -0.1584 -0.1072  0.0291
21375W        W37184  10.537   4.936  11.246 -0.3184 -0.0757  0.0202
21376W        W37185   7.396   6.105  12.380  0.0394  0.0409  0.3112
21377W        W37186   6.028  16.956   3.975  0.1127  0.1754 -0.0950
21378W        W37187   6.240   0.387   2.406 -0.0885  0.4421  0.0105
21379W        W37188  15.512   3.581   1.226  0.2150  0.0189 -0.1217
21380W        W37189   5.944   3.357  12.513  0.0380  0.0714 -0.0214
21381W        W37190   6.070   1.418   3.998 -0.2782  0.0187 -0.2186
21382W        W37191   5.215   7.066  12.894 -0.2815 -0.0149 -0.2034
21383W        W37192   9.088  11.810  12.719  0.1657 -0.2385  0.2831
21384W        W37193  16.745   6.915   4.907  0.0622  0.0098  0.1950
21385W        W37194   7.941  14.294  14.600  0.1688  0.1230  0.0891
21386W        W37195   5.931   8.002  12.274 -0.2056 -0.0095  0.0853
21387W        W37196   3.635   2.823  15.053  0.0357  0.0413 -0.1977
21388W        W37197  12.514   0.269  11.466  0.1686  0.3676 -0.1638
21389W        W37198   8.512  14.318  12.835  0.0072  0.2373 -0.2887
21390W        W37199   6.837   9.347   4.485 -0.2870 -0.4250  0.3983
21391W        W37200   5.394  11.697  13.121 -0.4129  0.3338 -0.1298
21392W        W37201  17.821   4.924   4.104  0.0728 -0.2194 -0.3474
21393W        W37202   5.341  18.074  15.494 -0.2615  0.0200 -0.2034
21394W        W37203  16.129  13.565  12.852  0.2890 -0.3474 -0.0362
21395W        W37204  15.516  13.843   4.390 -0.3467 -0.0889 -0.2381
21396W        W37205   4.751  16.497   0.991 -0.1943 -0.2336 -0.0873
21397W        W37206  10.144   3.797   5.333  0.0585  0.1356 -0.1652
21398W        W37207   9.444  10.155   4.493  0.0690  0.2087 -0.1853
21399W        W37208  16.954   4.683   1.157 -0.0809 -0.0482  0.1471
21400W        W37209   2.209   5.652   3.902  0.1363  0.1249 -0.2914
21401W        W37210  15.519  15.214   3.890  0.2772 -0.0611  0.2638
21402W        W37211   0.590   4.292  13.186 -0.2634 -0.2056  0.0167
21403W        W37212   7.204   8.653  11.764  0.0475 -0.1302 -0.1320
21404W        W37213  14.752   5.424   1.344  0.0091 -0.2499 -0.1628
21405W        W37214   8.529   4.293  15.203 -0.1495  0.0744  0.3520
21406W        W37215   7.540  11.957  10.929  0.0983 -0.1136 -0.0049
21407W        W37216   2.438  13.869  12.695 -0.1053 -0.2790 -0.0354
21408W        W37217   0.302  11.914   3.610  0.2630  0.2831  0.0774
21409W        W37218  14.296   7.756  11.326 -0.0779 -0.1946  0.0151
21410W        W37219   4.357   5.883  12.970  0.1181  0.0644  0.2145
21411W        W37220   6.748   2.404   3.198  0.1520 -0.0789  0.4102
21412W        W37221   9.912   8.349   4.183 -0.1038 -0.1987  0.0201
21413W        W37222  14.435   8.026   5.772  0.1804 -0.0757  0.4281
21414W        W37223  16.221   2.566  10.470 -0.0782 -0.1239  0.2351
21415W        W37224  17.963  15.841  14.882  0.1464  0.0015 -0.0110
21416W        W37225   7.764   4.076   1.513  0.2722  0.0213 -0.1402
21417W        W37226  14.084  15.884   1.354  0.0837 -0.0064 -0.1126
21418W        W37227  17.772   0.002  15.112 -0.1642 -0.1179 -0.0008
21419W        W37228  12.279   8.744  11.484  0.3028  0.2144 -0.1529
21420W        W37229   7.029   4.540   1.762 -0.4382 -0.2586 -0.1905
21421W        W37230  17.447   9.175  12.200  0.1542  0.0725 -0.0849
21422W        W37231   2.795  14.702   5.590 -0.0944 -0.2682  0.2448
21423W        W37232  12.276  17.780   2.565 -0.1161 -0.1224  0.1900
21424W        W37233   6.202  10.609  10.922  0.1927 -0.0516 -0.0517
21425W        W37234  18.032   9.934  12.104  0.0798  0.0077 -0.0988
21426W        W37235   8.158   0.327   1.353  0.1772  0.3426  0.3636
21427W        W37236  13.375   3.128   5.134  0.0143  0.0231  0.3286
21428W        W37237  14.597  13.875  11.620  0.1105 -0.0018 -0.0384
21429W        W37238  18.613   1.820   2.467 -0.1999  0.2176 -0.3484
21430W        W37239   0.944   0.783   2.167  0.2034 -0.0039  0.0780
21431W        W37240  11.032   1.155   3.621  0.1309  0.1962 -0.1385
21432W        W37241   2.519  13.527  13.685 -0.2900 -0.0021  0.0969
21433W        W37242  17.739   3.671   1.919  0.0483  0.3007 -0.2145
21434W        W37243   8.664   7.206  14.537  0.1717 -0.0868  0.1990
21435W        W37244  17.287   1.604  11.815 -0.0389  0.0977  0.1602
21436W        W37245   4.042  12.113   4.011 -0.3155  0.0089 -0.0318
21437W        W37246   6.848  14.957   2.490  0.0629 -0.0138 -0.2685
21438W        W37247  17.202   5.451   3.230 -0.2690  0.1125 -0.1202
21439W        W37248  13.619   0.309   4.907 -0.0024  0.2262  0.2759
21440W        W37249   8.741   0.264   3.539 -0.0175 -0.0473  0.1725
21441W        W37250  11.232   6.309  13.815 -0.0620 -0.3361 -0.0684
21442W        W37251  12.983  13.251  11.563 -0.0147 -0.0360  0.3118
21443W        W37252   0.705   1.697   0.346 -0.2785  0.2796 -0.0835
21444W        W37253   0.487  13.638   0.842  0.0770  0.3518 -0.1442
21445W        W37254  17.011  17.783  11.398  0.0643 -0.4756 -0.0317
21446W        W37255  17.155   9.620   1.027  0.1037 -0.1506  0.1605
21447W        W37256   5.061  16.376  13.667 -0.0125 -0.0017  0.0165
21448W        W37257   9.826   2.658  11.878  0.0563  0.0112  0.0201
21449W        W37258  17.061   1.075  15.523  0.4437 -0.4809  0.0082
21450W        W37259   8.382   3.109  13.930 -0.3980  0.2367 -0.1988
21451W        W37260   1.375  13.615  10.719 -0.3064  0.3879 -0.1862
21452W        W37261  10.498  13.703  14.188 -0.1433  0.0198  0.0415
21453W        W37262   7.116   7.018  15.628 -0.0751 -0.3062 -0.0639
21454W        W37263  14.042   8.834  15.353  0.2127  0.0449  0.0517
21455W        W37264  16.968   0.563  15.272  0.1969  0.3780  0.1495
21456W        W37265   2.206  16.771   2.929 -0.1343 -0.2287 -0.0857
21457W        W37266   8.719  14.425   3.524  0.1418 -0.0019  0.2673
21458W        W37267  10.348  15.363   2.687  0.0275 -0.1339  0.0397
21459W        W37268   8.880  12.687   1.715  0.2781  0.0371 -0.1381
21460W        W37269  12.838   1.390   3.566  0.2148 -0.2417 -0.2161
21461W        W37270  15.465  18.299  15.319  0.0046 -0.3386  0.1622
21462W        W37271  15.034  13.123   5.460 -0.2216 -0.2388  0.0958
21463W        W37272   5.951  14.881   4.463  0.0826 -0.0344  0.1235
21464W        W37273   1.129   2.537   3.091 -0.1038  0.0989  0.2613
21465W        W37274  14.339   1.299  10.895  0.0456  0.1875 -0.1928
21466W        W37275   3.577  14.532  15.291 -0.2218 -0.0407 -0.2436
21467W        W37276   5.227  12.775   0.305  0.2166  0.0871 -0.1494
21468W        W37277  14.164  12.422   0.400  0.2990  0.3537  0.0411
21469W        W37278  13.135  14.381   1.169  0.4043  0.1894 -0.0428
21470W        W37279   1.920   5.723   4.552 -0.2902  0.0302  0.2690
21471W        W37280   6.838   9.895  12.158 -0.0875  0.1971  0.1000
21472W        W37281   9.053   8.763  13.965 -0.5631  0.2350 -0.1256
21473W        W37282   2.986   0.794  13.621 -0.0296 -0.1545  0.0187
21474W        W37283  10.614   1.915   1.597 -0.2178 -0.0291  0.0635
21475W        W37284  12.915  11.691  15.693  0.0954  0.0500  0.0831
21476W        W37285   0.675   1.495   1.936 -0.1964  0.0286  0.0434
21477W        W37286   6.268  13.488   3.567  0.0776  0.0034 -0.0068
21478W        W37287   6.341  10.498   2.496  0.0367 -0.3299  0.1721
21479W        W37288   9.947  18.554  12.466  0.0431  0.0355  0.4530
21480W        W37289  15.934   3.203  14.795  0.2053 -0.0433 -0.0443
21481W        W37290   3.087   5.805   0.279 -0.1809  0.0964  0.1447
21482W        W37291   1.510  14.805  15.473  0.0319  0.0128 -0.0031
21483W        W37292   2.033   3.795   2.799 -0.4724 -0.0037  0.0086
21484W        W37293   3.645   0.716  14.386  0.1420  0.0968 -0.3193
21485W        W37294   6.519   9.144   0.713 -0.1047  0.0257 -0.4591
21486W        W37295   0.942   5.570  10.659 -0.1316  0.0208  0.1423
21487W        W37296  14.030  11.395  13.682  0.0210  0.2301 -0.1047
21488W        W37297   1.296  16.392  14.994  0.0415 -0.3215  0.2132
21489W        W37298   7.404  13.958   1.011  0.2753 -0.2971  0.1346
21490W        W37299  14.575   1.374   0.826 -0.2615  0.1611  0.2639
21491W        W37300   1.549  16.542  14.355  0.1227 -0.2176 -0.0913
21492W        W37301  13.194  12.183  15.705 -0.2495  0.0281  0.1578
21493W        W37302   8.492   2.747   4.321 -0.1006 -0.0161 -0.1268
21494W        W37303   6.321   8.708   5.387  0.0547 -0.2001 -0.3852
21495W        W37304  16.297   3.100  12.282  0.0323 -0.1875  0.4736
21496W        W37305  15.171   3.654  15.500  0.3441  0.0410  0.0066
21497W        W37306   0.822  13.192  15.736  0.1075  0.1594  0.0207
21498W        W37307  12.055   7.788  15.087 -0.0816 -0.2710 -0.1238
21499W        W37308   1.764  15.384   1.384  0.0373  0.1603 -0.0248
21500W        W37309   3.598   9.375  12.576 -0.2918 -0.0877  0.0503
21501W        W37310  15.528   1.539  14.445 -0.3039  0.4594  0.0926
21502W        W37311  11.180   9.794   2.473 -0.0103  0.1359  0.2490
21503W        W37312  12.499  15.179  13.476 -0.0199  0.0618  0.1906
21504W        W37313   7.595  15.323   3.884 -0.2708  0.0968  0.3382
21505W        W37314  17.893  17.323  14.234  0.0698 -0.0958  0.3877
21506W        W37315   7.241  13.043   2.390  0.1155 -0.3202 -0.1560
21507W        W37316   0.732   9.113   1.292 -0.0418 -0.0925  0.0723
21508W        W37317   4.201   4.154  13.660 -0.0200 -0.0135 -0.0343
21509W        W37318  14.495   6.192  10.915  0.0647 -0.0087  0.1811
21510W        W37319   2.822   2.627  13.906 -0.3089  0.1410 -0.0702
21511W        W37320  16.148   0.759  12.265  0.0208 -0.0992 -0.1638
21512W        W37321   6.106   3.261   4.033 -0.1392  0.1292  0.0973
21513W        W37322  18.093   9.110  14.793 -0.3494 -0.1262 -0.2895
21514W        W37323  18.193   9.127   0.481  0.0054  0.0151 -0.1723
21515W        W37324   4.027  11.013   0.270  0.0328  0.1061 -0.1340
21516W        W37325  12.928   0.601   4.757 -0.1815 -0.0871 -0.0856
21517W        W37326  17.465   4.714   4.651  0.0312 -0.0319 -0.0641
21518W        W37327  14.243   7.910  13.266  0.3064  0.0802 -0.1892
21519W        W37328  16.454  14.979  10.733  0.0174  0.1978 -0.1634
21520W        W37329   8.392  17.366  11.830 -0.3607 -0.0132 -0.0022
21521W        W37330   1.741   2.604  12.312  0.0402  0.3030 -0.0146
21522W        W37331  17.316  12.508   4.865  0.0133  0.0417  0.0645
21523W        W37332   1.166  14.412   1.257 -0.0059  0.0727  0.1560
21524W        W37333   0.076  16.455  13.916 -0.1308  0.4248  0.0974
21525W        W37334   0.251  15.855   4.273 -0.1532  0.1780 -0.2324
21526W        W37335  12.776  11.961  15.278  0.0269  0.1105 -0.2272
21527W        W37336   6.585  15.349  13.917 -0.2535  0.0643  0.2714
21528W        W37337   6.001  10.689   3.548 -0.1548 -0.1353 -0.0469
21529W        W37338  17.277   1.573   1.919  0.3550 -0.2240  0.2478
21530W        W37339  10.356   2.570   0.102 -0.2681  0.0456  0.0923
21531W        W37340   8.822  10.531   5.157  0.0769  0.0670 -0.1070
21532W        W37341  16.323  16.252  15.486 -0.0043  0.1830 -0.0549
21533W        W37342  10.024  18.304   1.203  0.2003  0.2227 -0.1971
21534W        W37343  16.561  18.610   4.176 -0.0520  0.2499 -0.3864
21535W        W37344  11.881  16.450   2.739  0.0096  0.0730 -0.1592
21536W        W37345   0.324  18.110  14.674 -0.0586 -0.1489 -0.0001
21537W        W37346   9.073   7.630  15.282  0.0537  0.2594  0.2272
21538W        W37347  18.452  12.882  14.758 -0.3246 -0.3319  0.2994
21539W        W37348  12.899  17.110  10.970  0.1134 -0.3836 -0.0533
21540W        W37349  11.695  14.135   2.873 -0.1355  0.1477  0.2465
21541W        W37350   3.472  11.402   4.425  0.0307 -0.0250 -0.0288
21542W        W37351   8.714  12.835  11.021 -0.2509 -0.0438  0.1384
21543W        W37352   3.262   4.293  13.331 -0.0727  0.2372 -0.0928
21544W        W37353   2.299   1.890   0.042 -0.0326  0.1581 -0.1152
21545W        W37354  10.192   7.556   2.713  0.2168 -0.3498  0.0588
21546W        W37355  13.535  15.586  10.867 -0.0606 -0.0328 -0.0478
21547W        W37356   5.590  17.412  15.624 -0.0377 -0.3629  0.0903
21548W        W37357  17.750  14.020  14.634  0.0886 -0.1602 -0.1969
21549W        W37358  14.842  14.577  13.961  0.1064  0.1417 -0.0281
21550W        W37359  10.218  16.000  13.901 -0.2676 -0.0238  0.2165
21551W        W37360   0.723   5.046   5.591 -0.1285 -0.3537 -0.0058
21552W        W37361  17.977   9.418  12.176  0.1028  0.0391 -0.0098
21553W        W37362  14.826  12.950  14.206  0.0185  0.3410 -0.0663
21554W        W37363  12.046  14.352   2.563  0.2700 -0.0294 -0.2952
21555W        W37364   2.279  12.727  12.559 -0.0380  0.1994  0.2654
21556W        W37365   6.571   2.968  12.500 -0.3380 -0.0782 -0.0663
21557W        W37366   8.601   6.019  10.966 -0.0535 -0.1156 -0.0577
21558W        W37367   2.317  12.586   4.628 -0.0343  0.0943 -0.0171
21559W        W37368  14.678   4.131   5.781  0.0463  0.3834  0.4910
21560W        W37369   8.600   0.318  11.898 -0.0640  0.2994  0.1097
21561W        W37370   0.564  10.471  15.236  0.1316 -0.4101  0.2178
21562W        W37371  15.867  13.108   2.096 -0.0236 -0.0987 -0.0533
21563W        W37372  16.391  13.619   1.646 -0.1021 -0.1034  0.2689
21564W        W37373   2.420  17.607   5.362  0.0270 -0.0733 -0.2281
21565W        W37374   0.514   0.347  10.055 -0.3682 -0.1599 -0.0074
21566W        W37375  18.211   0.874   0.350  0.2947  0.2185  0.0878
21567W        W37376  12.589   5.089   1.605  0.0242  0.1274 -0.2423
21568W        W37377   5.896   3.842   4.015 -0.0037 -0.1867 -0.3395
21569W        W37378   7.610  17.642  14.268  0.1674  0.2362  0.0677
21570W        W37379  11.120   4.110   2.230  0.0461  0.2852  0.0950
21571W        W37380   9.635   4.176   1.078 -0.1397 -0.1717 -0.1886
21572W        W37381   4.401   8.329  14.852  0.3122  0.2528  0.1930
21573W        W37382  10.476  15.817  14.770  0.1686  0.1368 -0.3457
21574W        W37383  11.220  14.901  11.383  0.2933 -0.2366 -0.2436
21575W        W37384  16.571  14.573  13.986 -0.0128  0.2937 -0.0379
21576W        W37385  15.548   2.760  12.725 -0.2119  0.0132  0.0922
21577W        W37386   4.987  17.630  14.317 -0.1724  0.0875  0.2325
21578W        W37387   2.652  12.847   1.694 -0.2531  0.1720  0.1279
21579W        W37388   0.721   3.760   1.589 -0.0839 -0.0934  0.2921
21580W        W37389   5.232   5.485  12.228  0.0407 -0.0064  0.1899
21581W        W37390  17.142  10.261   5.920  0.0706  0.0193  0.0903
21582W        W37391  18.031   7.183   3.613 -0.3913 -0.1675  0.1554
21583W        W37392   9.874   9.566   2.533 -0.1319 -0.0126  0.0396
21584W        W37393  18.004   7.452  12.814 -0.3255 -0.1400 -0.0788
21585W        W37394  16.350   4.503   1.749 -0.0684  0.2343  0.1194
21586W        W37395  12.706   2.664  12.244  0.0052  0.2299  0.0971
21587W        W37396  12.485  15.718  13.406  0.0705 -0.0530 -0.0759
21588W        W37397   0.767  13.607  11.229  0.1315 -0.1708  0.0067
21589W        W37398  11.950   4.640  11.457  0.1010 -0.1487 -0.2715
21590W        W37399  14.367   1.471  15.191 -0.1159 -0.1883  0.3682
21591W        W37400  16.617  12.225   4.382  0.2085 -0.0401  0.1552
21592W        W37401   8.842  13.474   3.318 -0.0178  0.0171  0.0244
21593W        W37402   1.559  14.317   3.725 -0.0831 -0.0698 -0.0801
21594W        W37403   6.322   1.272  15.621 -0.0034 -0.0557  0.0484
21595W        W37404   6.821   5.312   4.535  0.2115  0.0492  0.2266
21596W        W37405   2.170  13.357  11.444  0.1117  0.0901  0.0507
21597W        W37406   9.125  17.046   4.323  0.1016 -0.0815  0.0708
21598W        W37407   2.542  16.966  12.721  0.0094  0.1354 -0.0493
21599W        W37408  10.441   7.280   0.325  0.3918 -0.1266  0.2444
21600W        W37409   3.081  12.648   3.844 -0.0603  0.0920 -0.0608
21601W        W37410  11.523  10.773   4.482 -0.0897  0.0464 -0.0108
21602W        W37411   3.006  12.156   0.299  0.2242  0.1891 -0.0977
21603W        W37412   6.889   5.522  11.943  0.0434 -0.1288  0.1489
21604W        W37413   7.259  13.932   0.505 -0.4312  0.0134  0.2338
21605W        W37414   7.726  17.322  10.893 -0.1553  0.1548 -0.2142
21606W        W37415  11.782  14.471  13.218 -0.1374  0.3342  0.0523
21607W        W37416  12.497   0.953   1.456 -0.2564 -0.0247 -0.2220
21608W        W37417  11.557  12.966  15.590 -0.0585  0.2389  0.0050
21609W        W37418   3.564  14.832   0.100  0.0532 -0.2576  0.0734
21610W        W37419   0.756  11.976   1.927 -0.2162 -0.1658 -0.1679
21611W        W37420   1.051  13.642   1.966 -0.1994  0.2092 -0.5185
21612W        W37421   9.045   2.935   5.229 -0.0267  0.4320  0.0872
21613W        W37422  15.776   7.131   1.965 -0.0282  0.2233 -0.1704
21614W        W37423   0.399   7.220   3.459 -0.0812 -0.2465 -0.0776
21615W        W37424   9.166   0.816   4.236 -0.1195  0.1037  0.1559
21616W        W37425  12.157  13.061   2.564 -0.0109 -0.1355 -0.0126
21617W        W37426  12.740  16.704  11.984  0.1020 -0.0205 -0.0757
21618W        W37427  17.287   0.766  10.632  0.1403  0.2909 -0.1750
21619W        W37428   3.885  12.759   5.099 -0.1150 -0.0624  0.1039
21620W        W37429   2.771   9.554  13.466 -0.2144 -0.0275 -0.2597
21621W        W37430   8.519   9.025   4.861  0.0296  0.2921  0.1075
21622W        W37431   0.432   6.666  12.655  0.1363  0.0601  0.1321
21623W        W37432  12.980   1.439  15.643 -0.3306 -0.0591 -0.0783
21624W        W37433   4.153   3.586   0.892  0.2136  0.1463  0.1185
21625W        W37434  14.633  16.655  11.000  0.0741  0.0584 -0.0029
21626W        W37435  10.059  17.777  12.439  0.0224  0.2727 -0.1966
21627W        W37436   2.429  15.810   2.904 -0.1680  0.0115 -0.0232
21628W        W37437   9.127   7.079   2.273  0.2794 -0.1836 -0.0458
21629W        W37438   7.324   4.114  15.367 -0.1545 -0.0536  0.0603
21630W        W37439  18.219   3.237   3.699 -0.1540 -0.0760 -0.2738
21631W        W37440  18.104  17.628  15.519 -0.2183 -0.0618  0.2427
21632W        W37441   6.859  18.449   4.650  0.0312  0.0491  0.0204
21633W        W37442   1.743  15.016   1.009 -0.4175  0.2282  0.0327
21634W        W37443   9.339  14.574  13.899  0.0453 -0.5873 -0.4332
21635W        W37444   5.086   7.777   2.522 -0.2323  0.2386 -0.1272
21636W        W37445   4.334   1.643   5.597  0.0615 -0.1937  0.3902
21637W        W37446   2.772  16.075  14.673  0.0033  0.3448  0.2086
21638W        W37447  13.554   7.762  14.472 -0.0560  0.1004 -0.0025
21639W        W37448   0.569   6.245   1.073 -0.0367  0.1310 -0.0232
21640W        W37449   4.458   1.355  14.528  0.0727 -0.4590 -0.1284
21641W        W37450  16.434  10.219   1.218  0.1565 -0.2563 -0.1950
21642W        W37451   7.574   2.066  11.548 -0.2163 -0.2146  0.3437
21643W        W37452  17.287   4.983   5.054 -0.2951 -0.0744 -0.0478
21644W        W37453   4.805  11.083   1.993  0.0020 -0.0111  0.1840
21645W        W37454  14.541   6.787   3.501 -0.2262  0.1400 -0.2031
21646W        W37455  14.639   0.327  15.022  0.1528  0.0488 -0.2347
21647W        W37456   8.465  15.124   2.026 -0.1117  0.3093  0.0141
21648W        W37457   4.192   1.212  12.524 -0.2014  0.0469  0.1791
21649W        W37458   8.579  18.124  10.324  0.1165  0.0544  0.0953
21650W        W37459  14.904   1.050   1.389 -0.0864  0.2616  0.2264
21651W        W37460  17.261   0.523  14.707  0.0990 -0.1191 -0.1494
21652W        W37461   5.661   2.294  11.671 -0.0361 -0.0512  0.1992
21653W        W37462  14.344  15.163  12.139  0.1496  0.5562  0.0322
21654W        W37463  13.236   1.185   3.842  0.2928 -0.2380  0.1080
21655W        W37464  15.131   0.718  14.879 -0.0623  0.0183 -0.1006
21656W        W37465  13.614   1.338  14.376  0.3210 -0.0369  0.2097
21657W        W37466   6.032  11.540  13.963  0.0220  0.0022  0.1777
21658W        W37467  14.287  10.002  13.008 -0.4341 -0.1246  0.1269
21659W        W37468   8.984  14.412   3.104  0.0990  0.0001 -0.0580
21660W        W37469   9.258   6.475   1.477  0.1847  0.3515 -0.1092
21661W        W37470  15.237  14.739   3.106  0.0722 -0.0809 -0.1895
21662W        W37471  10.250   5.117  12.686 -0.1155  0.0618  0.1545
21663W        W37472  13.008  12.442   2.604  0.2480 -0.1799 -0.0304
21664W        W37473   1.842   6.348  11.463  0.0109 -0.0286 -0.1415
21665W        W37474   3.571   9.786  12.920 -0.0863 -0.3561 -0.1084
21666W        W37475   6.343   5.831   2.016  0.1640 -0.0568  0.0756
21667W        W37476   1.521  15.855  14.971  0.1497 -0.1449  0.0764
21668W        W37477  17.340  18.452  14.375  0.1453 -0.0334 -0.0898
21669W        W37478   0.618   4.082   2.435  0.3197 -0.2123  0.0735
21670W        W37479  11.935   9.296  13.582 -0.0600  0.3798 -0.2087
21671W        W37480  17.722   3.028   2.426 -0.0516  0.0426  0.1047
21672W        W37481   2.017   0.557  11.062  0.2112 -0.0117 -0.2774
21673W        W37482  12.941  10.246   1.788 -0.0808 -0.2246  0.2342
21674W        W37483   9.283  10.892   2.406 -0.1167 -0.1788  0.0214
21675W        W37484  13.020  13.574  12.372  0.1746  0.3062 -0.0178
21676W        W37485  11.273   0.481  13.194  0.1547 -0.2766  0.0342
21677W        W37486   5.913   8.045   3.463 -0.2745 -0.1443  0.1959
21678W        W37487  18.087   4.709   6.061  0.1606  0.0176  0.0869
21679W        W37488  17.763   6.840  12.137 -0.0446  0.3414  0.0613
21680W        W37489   7.818  15.142   2.135  0.2376  0.3809 -0.0907
21681W        W37490  15.086   8.408  14.548 -0.2160 -0.0664 -0.3374
21682W        W37491   7.072   5.268  15.091 -0.0925  0.2356  0.1305
21683W        W37492   4.964   7.263   2.589 -0.1369  0.0550 -0.1093
21684W        W37493   0.077   7.172  11.488 -0.0924  0.1511 -0.0060
21685W        W37494   7.111  16.292  15.497 -0.2139  0.0621 -0.0784
21686W        W37495   9.774   4.125  12.009 -0.1277 -0.0364 -0.1099
21687W        W37496  18.011  17.105   0.526  0.1527 -0.0187  0.0328
21688W        W37497  12.318   0.567  14.824  0.0097 -0.2377  0.2932
21689W        W37498  14.381  15.156  14.671  0.1455  0.0764  0.0488
21690W        W37499  12.529   8.927  15.692 -0.1200 -0.1813  0.1133
21691W        W37500  10.264   6.309  11.424 -0.3229 -0.0405 -0.1460
21692W        W37501   2.209  10.719   5.537  0.1909 -0.1839  0.3609
21693W        W37502  18.660   6.747   5.465  0.0904  0.0648  0.0014
21694W        W37503  12.873   6.498  15.401 -0.0626 -0.0211  0.2277
21695W        W37504  14.337  16.109  11.795 -0.0617 -0.3697 -0.1605
21696W        W37505  14.259  13.590   1.395 -0.3443  0.1378  0.2297
21697W        W37506   6.875   7.661  13.477  0.0756  0.0990 -0.1172
21698W        W37507   6.089   2.394  14.196  0.4806 -0.2315 -0.1299
21699W        W37508   6.256  10.808  15.552 -0.1023 -0.0845  0.1121
21700W        W37509  16.830   2.095   5.451 -0.3399  0.4551  0.3436
21701W        W37510   7.714  11.211  14.344  0.2271 -0.1974  0.1654
21702W        W37511   8.273   9.486   3.438 -0.5380 -0.4031 -0.1526
21703W        W37512  15.213   0.243  13.383  0.0350  0.1539 -0.3558
21704W        W37513   3.668  13.107   5.644 -0.1635  0.1635 -0.1171
21705W        W37514  11.013  10.951  12.254  0.2455 -0.1875  0.2859
21706W        W37515   6.993   1.902   5.265  0.5011  0.2014 -0.2473
21707W        W37516   0.607   7.575   5.276  0.4579 -0.1985  0.2092
21708W        W37517  11.822  11.801   1.072 -0.0717 -0.4405 -0.2137
21709W        W37518  12.061   8.867   3.828  0.2090  0.1655 -0.1348
21710W        W37519   7.807   8.401   0.993 -0.3635 -0.2223 -0.0048
21711W        W37520  11.913  17.926   2.102 -0.3917  0.2108  0.3576
21712W        W37521  13.274   2.250   0.462  0.0435  0.1654  0.0903
21713W        W37522   8.654   4.574   0.661 -0.0334  0.2261 -0.1070
21714W        W37523   9.191  13.130  11.082 -0.0821 -0.0734 -0.1943
21715W        W37524   8.757  12.956  13.236  0.2057 -0.0838  0.0077
21716W        W37525  11.538   3.064   4.325 -0.1202 -0.2175  0.0364
21717W        W37526  15.119   3.212  13.128  0.0019  0.1488  0.0841
21718W        W37527  11.711  11.544  11.792  0.0202 -0.2471  0.0509
21719W        W37528   0.917  11.456   2.303  0.4242 -0.1707  0.2107
21720W        W37529   2.632  15.121  12.819  0.1848  0.2657 -0.0173
21721W        W37530   6.757   1.532  10.473  0.0622  0.0028  0.5263
21722W        W37531  10.214  16.643  15.398  0.0855 -0.0650 -0.2209
21723W        W37532   0.127   3.385   3.460  0.0917 -0.1283 -0.1955
21724W        W37533  15.305   5.162   0.052 -0.0622  0.1243  0.2782
21725W        W37534  16.224   9.128   1.236  0.2509 -0.1403  0.1380
21726W        W37535  16.115  12.428  10.993 -0.3943 -0.3518 -0.1612
21727W        W37536   5.351   6.919  14.027 -0.0002  0.0374 -0.1608
21728W        W37537   3.175   6.497   1.261 -0.0571  0.1020  0.0873
21729W        W37538  10.877  14.887   4.245 -0.1442  0.0723  0.0776
21730W        W37539   6.992   7.834  14.648 -0.0525 -0.0531 -0.1344
21731W        W37540  10.858   4.788  11.607 -0.1137  0.2376 -0.0427
21732W        W37541   0.942   6.425  11.874 -0.1611 -0.0752  0.4367
21733W        W37542   5.499  12.232  14.146 -0.3453  0.1070  0.1431
21734W        W37543  13.646  14.982  10.131  0.1308 -0.0991 -0.2470
21735W        W37544   0.953  12.260   4.369 -0.1094  0.1381  0.1603
21736W        W37545   9.736  18.223   4.263  0.0670  0.4330 -0.1238
21737W        W37546  10.718   0.591  14.356  0.1282  0.1219 -0.0138
21738W        W37547  15.758   2.754   3.915  0.0356  0.1568 -0.4132
21739W        W37548  15.693  12.645   2.244 -0.0061 -0.2402 -0.2605
21740W        W37549   9.548   5.409   3.062  0.1536 -0.0847 -0.3202
21741W        W37550  13.971  14.923  10.543 -0.0780 -0.3762 -0.2904
21742W        W37551  12.108   3.903   3.948  0.0411 -0.0515  0.1102
21743W        W37552   6.276   9.214  15.560 -0.1325 -0.2071  0.1468
21744W        W37553  16.235  17.185  14.304 -0.0798 -0.0031  0.0453
21745W        W37554   2.953   4.050   0.850 -0.0998  0.1453 -0.4354
21746W        W37555  12.679  18.028   2.497  0.2197  0.0263  0.0039
21747W        W37556   9.566  18.581  11.058  0.0595 -0.1212 -0.1190
21748W        W37557  10.790   2.403  10.485 -0.1036 -0.1204 -0.0457
21749W        W37558   1.619   6.459   3.559 -0.0686  0.0129 -0.0176
21750W        W37559   6.166   8.447   3.098  0.2257 -0.2597 -0.0430
21751W        W37560   0.150   6.414  14.754 -0.0581 -0.0835 -0.3349
21752W        W37561   5.658   1.852   4.833  0.0864 -0.3866  0.0569
21753W        W37562   8.601  10.236   2.363 -0.0273 -0.0998  0.2966
21754W        W37563   0.957  16.140   1.358  0.1468  0.0750 -0.1063
21755W        W37564  17.156   0.778   4.278  0.0068 -0.1855 -0.1017
21756W        W37565   7.872  11.873  15.319 -0.0045  0.1360 -0.0505
21757W        W37566  16.465   3.375  14.873 -0.2299  0.0131 -0.1327
21758W        W37567  16.239   9.492  15.621 -0.4703 -0.1081 -0.2326
21759W        W37568  10.743   6.159  13.993 -0.2494 -0.0884 -0.1627
21760W        W37569   0.873   1.161  13.068 -0.4126  0.0003 -0.2507
21761W        W37570   1.296   2.438   2.666 -0.0558 -0.2588 -0.4061
21762W        W37571   8.421   6.842  14.849  0.0670 -0.0698 -0.0386
21763W        W37572  14.969   1.728   3.661 -0.0013 -0.1045  0.0414
21764W        W37573   3.790  16.915  12.293 -0.1460 -0.1409  0.1375
21765W        W37574  13.353   1.196   1.532  0.0774  0.3640  0.1921
21766W        W37575   5.166  17.805  11.701  0.0490  0.1206  0.0154
21767W        W37576  10.003   8.864   4.670  0.2737 -0.0143 -0.5108
21768W        W37577   8.619  11.544  12.866 -0.0956  0.4425  0.1436
21769W        W37578   4.389  11.137   5.546  0.0087  0.0038 -0.2090
21770W        W37579  16.170  12.860   4.502 -0.3697  0.2590  0.1025
21771W        W37580   9.216  16.228  13.540  0.1251  0.1047 -0.1754
21772W        W37581  10.507  14.015  15.212 -0.5184 -0.3044  0.0530
21773W        W37582   3.713  14.927   4.312 -0.2286  0.4358  0.4362
21774W        W37583   2.161   3.608  15.030  0.2105 -0.0596 -0.0684
21775W        W37584   6.317   3.632   3.733  0.1719  0.0469 -0.2156
21776W        W37585  13.764  13.337  15.515 -0.2628 -0.2045 -0.3202
21777W        W37586   1.433   5.285   3.675 -0.0819  0.0796 -0.0386
21778W        W37587  12.555   1.952   1.232  0.2080  0.2368  0.0137
21779W        W37588   9.156   6.677  13.421 -0.0591 -0.1324  0.0717
21780W        W37589  17.562   0.673   2.417 -0.2499  0.0168 -0.0281
21781W        W37590  13.131   4.430   3.978 -0.1108  0.1050  0.1940
21782W        W37591  17.473   1.238  14.675  0.1246  0.2315 -0.0091
21783W        W37592  10.381   8.752   1.542  0.1362 -0.2126 -0.0398
21784W        W37593  11.206  14.803   0.589 -0.1583 -0.0013 -0.2828
21785W        W37594   5.075  10.165   4.528  0.0736 -0.1643  0.1142
21786W        W37595   1.590  18.012  11.317  0.1243 -0.2441 -0.2428
21787W        W37596   6.999  18.248  10.083  0.1020  0.2902 -0.1145
21788W        W37597   0.060  12.468  11.741 -0.1123  0.1377  0.1609
21789W        W37598  12.917  16.205  12.355  0.0234 -0.3355 -0.1745
21790W        W37599  10.840  17.330   3.484  0.0002  0.0873 -0.0150
21791W        W37600  17.091   8.741   1.004  0.0854 -0.1652  0.0338
21792W        W37601  18.397   6.001   1.748  0.2472 -0.2116 -0.0790
21793W        W37602   0.520   6.154  15.460  0.2926 -0.2243 -0.2103
21794W        W37603   0.559  15.722   5.080 -0.0463  0.1041  0.2669
21795W        W37604   3.008   7.254  15.089  0.0373 -0.2209 -0.2416
21796W        W37605  14.195   8.604   1.287 -0.1568 -0.0054 -0.1146
21797W        W37606  11.947  17.020   5.674 -0.4865 -0.1498 -0.0587
21798W        W37607  10.037  13.250   5.749 -0.0931 -0.0711  0.2014
21799W        W37608   8.315   4.942  11.863  0.0724 -0.1203  0.1005
21800W        W37609   9.460  17.789  14.849 -0.4692  0.2094 -0.1149
21801W        W37610  13.102  14.102  15.075 -0.1299 -0.0910  0.0864
21802W        W37611  14.838  14.721   1.945  0.0083 -0.1303  0.1249
21803W        W37612  12.026   4.369   2.666 -0.6033 -0.2499 -0.2405
21804W        W37613  14.877   1.477  12.521  0.2861  0.2062 -0.1507
21805W        W37614   5.942  14.762  14.822  0.1622 -0.0244 -0.2068
21806W        W37615   4.349  13.450   4.852 -0.1251  0.0466 -0.0267
21807W        W37616  15.256   3.863  11.108  0.3950 -0.1824 -0.2369
21808W        W37617  18.030  13.144   3.342 -0.0758 -0.1240 -0.3016
21809W        W37618   7.688   1.921   1.956  0.2665  0.2209  0.2146
21810W        W37619  10.027   8.615  12.923 -0.1458  0.1117 -0.0615
21811W        W37620  15.806  18.110   0.694  0.1054 -0.1258  0.2126
21812W        W37621  16.383  16.826   3.103  0.2689  0.0042 -0.0159
21813W        W37622   2.724  12.086   5.828  0.1362 -0.4090 -0.1778
21814W        W37623   7.478   7.309  12.943 -0.1594  0.3130  0.3994
21815W        W37624   1.343  14.069   5.011  0.1596 -0.3171 -0.0158
21816W        W37625  14.266   2.233   1.387 -0.0863 -0.1344 -0.1222
21817W        W37626  15.828  11.854   2.127 -0.2179  0.1630 -0.1631
21818W        W37627  17.108   6.495   0.622 -0.2111  0.1914  0.3074
21819W        W37628  18.401   5.203   5.993 -0.0931 -0.4447 -0.0297
21820W        W37629   6.601  15.948  14.887  0.0798  0.0512 -0.2313
21821W        W37630  17.529   7.154   1.761  0.2386 -0.1513  0.0465
21822W        W37631   0.687  14.023   2.213  0.2033 -0.0996 -0.0002
21823W        W37632   5.963  18.408  12.849 -0.2059 -0.0262 -0.3473
21824W        W37633   1.361   8.675   2.279  0.2544  0.2438 -0.1519
21825W        W37634   4.704   8.183  13.581 -0.0995  0.1712  0.0409
21826W        W37635   2.142  15.388   1.789  0.0376 -0.2031 -0.0700
21827W        W37636   1.405   1.771   0.879  0.2344 -0.0549  0.1833
21828W        W37637   7.291   5.043  13.434  0.1126 -0.0927 -0.0075
21829W        W37638  11.359  15.587   4.349 -0.1314  0.0977  0.2464
21830W        W37639   3.791   0.155   3.198 -0.1393  0.2134  0.2862
21831W        W37640  13.648  13.980  11.681 -0.0573  0.0057  0.1486
21832W        W37641   5.915   5.466   3.803 -0.2241  0.1173  0.0396
21833W        W37642  15.191  10.626   4.837 -0.3542 -0.0838 -0.0128
21834W        W37643  14.622   8.414  14.801  0.0660 -0.0852 -0.0530
21835W        W37644   1.828  15.418   3.206  0.1390 -0.1419  0.0068
21836W        W37645   1.838  17.253  15.232 -0.0991  0.3980  0.0715
21837W        W37646   3.969   1.900   1.113 -0.2908 -0.0432 -0.1453
21838W        W37647   1.875  12.995  14.261  0.0004  0.3488 -0.1783
21839W        W37648  10.912  15.415   4.142 -0.1104 -0.1902 -0.0400
21840W        W37649   3.516   7.093  12.709  0.1128 -0.0464 -0.2152
21841W        W37650   4.530   6.105  14.635  0.3306 -0.1048 -0.2416
21842W        W37651  11.101  18.620   3.555  0.0471  0.1491 -0.0607
21843W        W37652   8.731  18.293   0.483 -0.0659  0.0306  0.3488
21844W        W37653  16.870   2.919   1.037  0.0939 -0.2038 -0.4153
21845W        W37654   5.098  18.436   4.271  0.0190  0.2055 -0.3289
21846W        W37655  12.493  16.290  15.029 -0.0614  0.0573 -0.1108
21847W        W37656   7.231   3.291  11.114  0.3778  0.2842  0.1451
21848W        W37657   9.744  12.553   1.237 -0.2577 -0.1370 -0.1675
21849W        W37658   8.002   5.184   2.363  0.0232 -0.0794  0.0707
21850W        W37659   7.773  14.974  12.974 -0.1027 -0.1854  0.2247
21851W        W37660  14.419  10.431   0.125 -0.2813  0.2562  0.0385
21852W        W37661  16.690   7.028  11.931  0.1476 -0.2526  0.1661
21853W        W37662   1.272  11.127  15.257  0.1160 -0.0683  0.5128
21854W        W37663   4.009  14.438  12.230  0.1691  0.1696 -0.2404
21855W        W37664  12.641   6.831   1.100  0.3501 -0.0406  0.1400
21856W        W37665   7.128   6.764   3.858 -0.1358 -0.1766 -0.1200
21857W        W37666   7.810   7.598  13.395  0.0264  0.2806  0.2064
21858W        W37667  10.316  17.951  14.100  0.0114 -0.1599 -0.0578
21859W        W37668   0.825  13.181   3.266 -0.0896 -0.1353 -0.2702
21860W        W37669  15.238  10.076   0.947 -0.0308 -0.2735 -0.0916
21861W        W37670   5.263  11.751   3.580  0.2604  0.0905 -0.1313
21862W        W37671   4.447   6.235  13.336  0.0676  0.2009  0.2393
21863W        W37672   2.560  12.659  14.638 -0.0213  0.0082  0.1071
21864W        W37673  14.641   2.211  11.949 -0.2209  0.1249 -0.0322
21865W        W37674   9.311  15.783   0.130 -0.2042 -0.1542  0.0711
21866W        W37675   5.377  17.242  15.101 -0.2539  0.0122  0.2159
21867W        W37676   4.015  16.843  15.234 -0.0822  0.2601 -0.2633
21868W        W37677   8.407   9.258  11.492 -0.2238  0.1537 -0.0156
21869W        W37678   7.635  17.128   2.020 -0.0055 -0.1680 -0.0659
21870W        W37679  18.568  12.498  15.637 -0.0305  0.1606 -0.0419
21871W        W37680   3.959   2.001   0.265 -0.0549 -0.1889 -0.1354
21872W        W37681  12.113  16.453   2.096  0.0025 -0.2636  0.1297
21873W        W37682   6.328   1.186   9.772  0.1426 -0.1613  0.1490
21874W        W37683   1.789  13.820  10.908  0.2690 -0.0917  0.2182
21875W        W37684   1.701  10.541   4.749  0.1926  0.0556 -0.3504
21876W        W37685   5.775   2.219  15.585  0.2639  0.2461  0.3132
21877W        W37686  18.613   8.233   3.234 -0.0142 -0.2623  0.2071
21878W        W37687   1.627   3.715   2.320  0.2068 -0.0869  0.3936
21879W        W37688  17.658  16.881   2.073 -0.0481 -0.0072 -0.2303
21880W        W37689  17.483  13.426  12.579 -0.1054  0.0061  0.0350
21881W        W37690   6.663  18.264  11.723  0.1913  0.2997  0.0265
21882W        W37691  11.978   2.985   3.854  0.2673 -0.0861  0.0327
21883W        W37692  15.805  17.752  10.770  0.0834  0.1461 -0.0351
21884W        W37693  11.314   2.122  12.113  0.0788  0.2914 -0.2136
21885W        W37694  17.419  16.960  14.728 -0.0116  0.1718  0.1102
21886W        W37695  18.237  16.401   5.303  0.1490  0.1065  0.0220
21887W        W37696  13.311  11.449  11.020 -0.0074 -0.1354 -0.2262
21888W        W37697  10.258  17.582   1.459  0.0870 -0.0692 -0.1408
21889W        W37698  13.921  16.979   1.076  0.1821 -0.0408 -0.0348
21890W        W37699   9.347  17.804   1.136 -0.0645  0.1285 -0.1294
21891W        W37700  10.275   6.064   3.193  0.0152 -0.0659 -0.1209
21892W        W37701   5.599   6.421  15.365 -0.0866 -0.0481 -0.3711
21893W        W37702   2.701   2.888   4.414  0.0734  0.1980  0.2715
21894W        W37703   8.508   5.099   4.136 -0.2714 -0.3547 -0.0494
21895W        W37704   6.893   4.069   2.918  0.0817  0.2410  0.1040
21896W        W37705  15.588  16.208  15.165 -0.1144  0.2199  0.0025
21897W        W37706  16.795   6.870   5.991  0.3249  0.0620  0.0091
21898W        W37707   5.446   1.838   3.531 -0.0324 -0.1325 -0.0429
21899W        W37708  15.071  10.952   2.969 -0.3006  0.1975  0.1424
21900W        W37709   7.417   2.348   2.703 -0.1716 -0.0772  0.0582
21901W        W37710  16.075   6.813  14.448  0.2420  0.2809  0.1663
21902W        W37711   0.300   9.593   2.480 -0.0596  0.0025 -0.1590
21903W        W37712  15.908  18.480   3.338 -0.4369 -0.1464  0.1266
21904W        W37713   5.055   2.739   4.641  0.2047 -0.0966  0.1005
21905W        W37714  17.933   9.247  13.198 -0.0351 -0.0170  0.0696
21906W        W37715  13.471  17.407  12.267 -0.1140 -0.2405  0.2628
21907W        W37716   6.530   9.091  11.043  0.1019 -0.1680  0.1015
21908W        W37717  10.518  15.108   9.914 -0.1784  0.0315  0.3998
21909W        W37718   8.281   0.630  12.130 -0.0971 -0.3224  0.0841
21910W        W37719   9.618  10.453   3.080  0.2065 -0.1721  0.1147
21911W        W37720   1.829  17.217   2.725  0.1156 -0.3772  0.4204
21912W        W37721   2.517   4.916   4.077 -0.0843  0.2521  0.2174
21913W        W37722   6.883  13.164  10.944  0.0204 -0.1376  0.2603
21914W        W37723  15.089  17.078   9.887  0.0891  0.0485  0.2143
21915W        W37724  12.159  13.902   4.268 -0.0622 -0.0859 -0.0608
21916W        W37725  12.966  16.177  15.611  0.1191 -0.2341 -0.0220
21917W        W37726   1.660   2.306   5.568  0.0571 -0.3966 -0.0429
21918W        W37727   0.628   4.230   0.881 -0.2898 -0.0839  0.1415
21919W        W37728   2.878   3.555  15.122 -0.0884 -0.0141 -0.1966
21920W        W37729   8.190  16.477   5.067 -0.0273 -0.0745  0.2986
21921W        W37730  10.078  15.475   2.140 -0.1028  0.0736 -0.0377
21922W        W37731   9.277  13.506   4.319 -0.0293 -0.0095  0.1154
21923W        W37732  12.517   3.657  10.716  0.1590 -0.2116  0.2541
21924W        W37733   3.982  16.455   4.478 -0.1190  0.2014 -0.2558
21925W        W37734  11.192   3.093  12.864 -0.0409  0.3538 -0.0537
21926W        W37735   7.770  11.278   4.854  0.0030  0.3674  0.3960
21927W        W37736  13.648  16.728  14.291  0.0101 -0.1352  0.1533
21928W        W37737  17.512  14.013  13.982 -0.2754 -0.0463  0.0289
21929W        W37738  17.824   4.247  13.294 -0.2704 -0.3069  0.1743
21930W        W37739  11.480  12.818  11.050 -0.1882  0.0036 -0.1705
21931W        W37740   6.580   6.831   1.785 -0.2407 -0.1264  0.2446
21932W        W37741  11.895   2.487  15.678  0.0157  0.1607 -0.3355
21933W        W37742  11.378  18.146   0.771 -0.0669  0.1416  0.0519
21934W        W37743   8.491   4.290   1.869  0.1143 -0.3830 -0.1942
21935W        W37744  12.683   5.097   6.059 -0.0109 -0.0552  0.0829
21936W        W37745   2.258   2.312   4.883 -0.0918 -0.1481  0.3800
21937W        W37746   8.225   0.798   1.505 -0.0922  0.2905  0.1442
21938W        W37747   8.364  11.547   9.931 -0.0783 -0.2764  0.0155
21939W        W37748   7.606   8.195  13.211  0.1290  0.2871 -0.3105
21940W        W37749   8.116   3.921   1.821  0.0441 -0.2524 -0.3132
21941W        W37750   6.300  13.671  11.246  0.2045  0.1335 -0.3235
21942W        W37751  17.765   9.838  14.534 -0.1039  0.3874  0.1199
21943W        W37752   9.058  11.595  11.465 -0.1166  0.2649  0.2818
21944W        W37753   2.823   0.292   0.841 -0.0706 -0.2244 -0.2048
21945W        W37754  12.425   3.893   1.102 -0.0368  0.2259 -0.0728
21946W        W37755   5.319   4.435   4.183 -0.0367  0.0785 -0.0434
21947W        W37756  16.477   1.274  12.949  0.0851  0.1187  0.0896
21948W        W37757   6.416   7.244  14.975 -0.1927  0.0666  0.1723
21949W        W37758   0.391  12.893  15.704 -0.1728 -0.0189 -0.0809
21950W        W37759   7.580  17.464  15.059  0.3311 -0.5922 -0.1832
21951W        W37760   4.527   8.214   4.086 -0.1053  0.1633 -0.0658
21952W        W37761  15.456  12.800  11.658  0.0188 -0.1466 -0.0451
21953W        W37762  16.928   3.331   0.685 -0.0168 -0.0245 -0.1456
21954W        W37763  16.916   4.713   3.881  0.3155  0.0580 -0.0733
21955W        W37764   2.416  10.887   0.377 -0.0650 -0.0987  0.0681
21956W        W37765   6.340   6.639  14.061 -0.2440 -0.0521 -0.2380
21957W        W37766  18.442   5.014  15.435 -0.1147 -0.0440  0.2642
21958W        W37767   3.528   6.759   0.563 -0.2165  0.0467 -0.1731
21959W        W37768  14.928  15.729  15.113 -0.1579 -0.1883 -0.0458
21960W        W37769  16.407   4.026  13.242 -0.1041 -0.3242 -0.2908
21961W        W37770   5.900   7.228  14.873  0.0964 -0.1110  0.0878
21962W        W37771  15.002   0.836   3.856  0.2704 -0.1269  0.1651
21963W        W37772  12.163   6.769  10.802 -0.1599 -0.1091 -0.1289
21964W        W37773   4.674   1.158   1.807  0.0631  0.0843  0.3162
21965W        W37774   2.639   5.728  15.677 -0.0988 -0.1580  0.1364
21966W        W37775   6.723  11.529   2.311 -0.0152  0.1843 -0.2896
21967W        W37776   2.703   2.772  11.943 -0.0872  0.2351  0.1908
21968W        W37777   0.804   4.445  15.584 -0.0186  0.0810 -0.2557
21969W        W37778  17.875   0.998  11.634 -0.1362 -0.1977 -0.3552
21970W        W37779   1.462   4.787   1.965 -0.2032 -0.1217 -0.1823
21971W        W37780  14.455  11.711  13.436 -0.0883 -0.5417  0.0647
21972W        W37781  13.959  16.810   1.546 -0.1686 -0.1209  0.1215
21973W        W37782  15.549   0.087   1.732 -0.0442 -0.1238 -0.0018
21974W        W37783   1.117   7.245   3.818 -0.2012 -0.1306  0.4066
21975W        W37784  17.232  10.370   2.523  0.1820  0.2672 -0.1364
21976W        W37785   7.689  17.780   3.652 -0.0937 -0.2745  0.0951
21977W        W37786   8.701   4.240  14.309 -0.2934  0.1668  0.0117
21978W        W37787  11.739   2.458  12.020 -0.0020  0.0407  0.1615
21979W        W37788   7.403  13.842   3.051  0.5180 -0.1106  0.2321
21980W        W37789  16.150   9.871  11.794 -0.0618 -0.2660 -0.2550
21981W        W37790  12.360  15.090  12.054 -0.0749  0.0126  0.2750
21982W        W37791  16.731  11.957   2.840  0.0947  0.0053  0.0753
21983W        W37792  18.239   4.536  15.690  0.2635 -0.1534  0.1857
21984W        W37793   5.043  18.103   2.643  0.0668 -0.1073 -0.0986
21985W        W37794  11.018  11.541   4.726 -0.2225 -0.1385 -0.2315
21986W        W37795  12.551  16.378  10.127 -0.0559 -0.1405  0.3104
21987W        W37796   7.662   9.263   5.094  0.1498 -0.1653 -0.2696
21988W        W37797   6.357   2.441  14.618  0.0957 -0.0947  0.0572
21989W        W37798  11.175   5.464  12.432  0.4528 -0.0985  0.1724
21990W        W37799   4.645   2.106  15.077 -0.2140 -0.0844 -0.1766
21991W        W37800  13.401   8.790   3.839  0.0708  0.1065 -0.0457
21992W        W37801   5.219   1.685   0.537 -0.3509 -0.2439  0.0211
21993W        W37802   4.073   1.973   3.311 -0.2047  0.1687 -0.1646
21994W        W37803  16.193   5.579   5.193 -0.2302  0.0769 -0.1681
21995W        W37804   0.109   1.114  12.727 -0.2640 -0.1116 -0.1111
21996W        W37805   3.949  14.870   1.631  0.0154 -0.1380 -0.2704
21997W        W37806   1.041  16.673  13.067  0.5315  0.0242 -0.0153
21998W        W37807  13.629   4.163  13.703  0.3976 -0.2717  0.1150
21999W        W37808   7.474  14.058  15.611 -0.2858 -0.1393 -0.0421
22000W        W37809  12.810  17.935  13.936  0.0980  0.0106 -0.3998
22001W        W37810   5.063  18.539  13.863 -0.1712 -0.2972 -0.1653
22002W        W37811   4.128  16.727  11.319  0.3911  0.1240  0.1245
22003W        W37812  14.211   2.219   9.998  0.2053  0.1998 -0.0734
22004W        W37813   8.204  10.112  14.680 -0.0243  0.0720 -0.5100
22005W        W37814  14.474  11.786   4.751  0.1115  0.0373  0.0591
22006W        W37815   3.268   7.624   4.116 -0.0365  0.1989  0.1102
22007W        W37816   8.138   6.212  15.003 -0.1916  0.0365 -0.0943
22008W        W37817  16.256   7.336   5.121  0.0568  0.4032 -0.2285
22009W        W37818   8.468  14.226   0.920 -0.1380 -0.1522 -0.2489
22010W        W37819   0.910   5.318   1.497  0.4144 -0.1765 -0.0280
22011W        W37820  14.805  17.647  13.279  0.0993  0.3086  0.3442
22012W        W37821   3.426  17.281  12.509 -0.0814 -0.5498 -0.1498
22013W        W37822  13.139  16.247   3.904 -0.4763  0.1650 -0.2149
22014W        W37823  10.567  18.620  12.277  0.1051 -0.0753 -0.0351
22015W        W37824  16.641  17.646   4.278  0.0033  0.0757 -0.1350
22016W        W37825  15.237  12.582  12.316 -0.0641 -0.1322  0.1186
22017W        W37826  10.919   5.683  13.865 -0.4583  0.1960 -0.2252
22018W        W37827  13.223  12.659   3.282  0.1737 -0.0762  0.2424
22019W        W37828  10.354  16.647   4.139  0.0387 -0.0132  0.0070
22020W        W37829   4.727  15.347  14.564 -0.2452 -0.1505 -0.1946
22021W        W37830   7.741   1.877   2.500 -0.2292 -0.0850 -0.0627
22022W        W37831  13.374  17.858   9.891 -0.2068 -0.1998 -0.1218
22023W        W37832  17.855   9.574  14.979  0.1146  0.0167  0.2629
22024W        W37833   2.935   7.450   4.708 -0.0740 -0.1074  0.0797
22025W        W37834   9.760  12.500   9.847  0.1458 -0.3101  0.0035
22026W        W37835   3.043   5.195  14.094  0.0205  0.1341 -0.0469
22027W        W37836  11.008  11.409  11.549  0.1175  0.4393  0.2069
22028W        W37837  18.167  11.920  14.098  0.0651 -0.0735  0.0310
22029W        W37838   9.007   6.040   5.142  0.2066 -0.2806  0.1360
22030W        W37839   5.375  10.865  13.224  0.1874 -0.2202  0.1535
22031W        W37840   1.293   4.187  14.752  0.5064 -0.3457  0.0019
22032W        W37841   8.066   2.761  15.436  0.4467 -0.0034  0.0765
22033W        W37842   5.550   7.406  14.178  0.1382  0.1491  0.2313
22034W        W37843  13.125  18.109   3.855  0.0861  0.1165  0.0876
22035W        W37844  13.381  13.809   4.733 -0.0755 -0.1114  0.0977
22036W        W37845  10.507   7.953   2.035  0.2099  0.0742  0.1000
22037W        W37846  16.516   5.423   1.263 -0.0771  0.0452 -0.1365
22038W        W37847   1.720   5.261   0.921  0.2666 -0.3988 -0.0805
22039W        W37848  14.010  13.685  12.562  0.3998 -0.1091  0.0525
22040W        W37849   6.458  13.939  11.667  0.3366 -0.0031  0.0636
22041W        W37850  17.469  18.473   4.244 -0.1412  0.0111 -0.1941
22042W        W37851  16.166  13.369  13.842  0.0769  0.0997  0.0984
22043W        W37852  13.203   6.160  14.525  0.0793  0.1496  0.0596
22044W        W37853   4.139   1.577   4.032  0.0324  0.1908  0.1927
22045W        W37854  18.430  10.911  12.838 -0.4597 -0.3373 -0.0129
22046W        W37855   8.374   5.692  12.914  0.1981  0.0160  0.1631
22047W        W37856  12.065   2.963   4.342 -0.0820 -0.0336  0.0164
22048W        W37857   3.847  17.990   1.462 -0.1037  0.0862 -0.1635
22049W        W37858  15.328   9.205   0.757  0.1702  0.0831 -0.0602
22050W        W37859  14.567   7.569   2.195  0.1105  0.3369  0.0198
22051W        W37860  15.003  11.195   5.518 -0.0149 -0.2221 -0.2898
22052W        W37861  13.391   2.145  13.950 -0.1462 -0.0248 -0.0601
22053W        W37862  10.798   4.848  14.442  0.0281 -0.4564  0.0638
22054W        W37863  18.453   7.076  14.079 -0.2893 -0.0765 -0.3079
22055W        W37864   4.798   7.353   0.580  0.3380 -0.2721  0.0884
22056W        W37865  17.893  10.884  14.378 -0.2314  0.0197  0.1219
22057W        W37866   9.392   6.827  14.778  0.2819 -0.1743  0.2424
22058W        W37867   5.109   0.151   3.929 -0.1452  0.2451  0.1144
22059W        W37868  10.349   9.234  14.778  0.0378 -0.0799  0.1388
22060W        W37869   0.336   8.822  10.912 -0.0264 -0.0207  0.0980
22061W        W37870   1.192  13.268   2.304  0.1404  0.0031  0.1732
22062W        W37871   7.847   8.670   2.477  0.1428 -0.0682  0.0215
22063W        W37872  13.255  14.381   0.639  0.0247 -0.1959 -0.1196
22064W        W37873  15.622  18.430   5.103  0.1093  0.2062 -0.0579
22065W        W37874  13.725   2.011  10.036  0.1784 -0.2052 -0.0445
22066W        W37875   2.350   6.725   2.879 -0.3228 -0.1046  0.3546
22067W        W37876  10.879   0.351  10.759 -0.1656  0.3830 -0.0882
22068W        W37877   4.266  15.316   0.926  0.1795 -0.2836  0.1632
22069W        W37878  15.203   6.784  14.385 -0.0727 -0.0243  0.1783
22070W        W37879   5.079   4.080   2.932 -0.1679  0.2693  0.0228
22071W        W37880  16.184   7.151  12.230  0.0022  0.0568  0.0433
22072W        W37881  11.554  18.323   3.499 -0.1730 -0.2713 -0.0142
22073W        W37882   3.109  11.852  15.689 -0.0349 -0.2347 -0.1897
22074W        W37883   9.457   3.702   1.026 -0.0363  0.0149 -0.2199
22075W        W37884  16.122   1.300  12.537 -0.2605 -0.1061  0.0252
22076W        W37885   8.480   3.700   1.260  0.4135 -0.0401 -0.3348
22077W        W37886  17.997   3.657  11.636  0.0555 -0.2895  0.1083
22078W        W37887   7.862  12.135  11.981  0.2481 -0.1488 -0.5345
22079W        W37888   5.340  10.560  15.017 -0.3776 -0.0333  0.0695
22080W        W37889  18.633   6.410   1.787  0.0893 -0.0018  0.2327
22081W        W37890   5.495  13.732   3.074  0.1114  0.1575  0.0730
22082W        W37891   4.936   6.067  15.085  0.0620  0.1020 -0.2252
22083W        W37892  14.524  15.771  11.468 -0.0207 -0.1192  0.1534
22084W        W37893   6.990  15.997  12.148 -0.0339  0.2254  0.1053
22085W        W37894   3.470  13.604  14.704  0.0532  0.0557 -0.0173
22086W        W37895  11.001  14.207   2.850  0.2264 -0.1336  0.0969
22087W        W37896  16.383   4.136   2.084 -0.0737  0.0959 -0.0607
22088W        W37897   2.207   1.933  14.409  0.1263 -0.0555  0.1970
22089W        W37898   0.466  16.907   0.604 -0.0466  0.2879  0.0196
22090W        W37899  15.953   8.114  14.929 -0.0697 -0.2793  0.0737
22091W        W37900   7.929   0.170   2.019  0.3582  0.0574  0.0926
22092W        W37901  16.654   6.266  11.326 -0.0946 -0.0618  0.0124
22093W        W37902   9.986  16.880  12.051 -0.2203 -0.0820  0.0361
22094W        W37903   9.170  14.894   0.659  0.1135  0.2281 -0.2611
22095W        W37904  15.863  14.410  15.679 -0.1365 -0.0068  0.0467
22096W        W37905   5.981   9.880   2.306  0.2155  0.0114  0.0394
22097W        W37906  17.582   4.438   4.255 -0.0607  0.0957 -0.3438
22098W        W37907   2.561   8.549   0.861  0.0570  0.3144 -0.1583
22099W        W37908  17.308   1.680   2.705  0.4384 -0.1196 -0.2073
22100W        W37909  14.937  11.814   4.304 -0.1296  0.1805 -0.1087
22101W        W37910   6.788  16.814   0.520  0.0774 -0.1969  0.1102
22102W        W37911   1.066  13.423   0.973 -0.0142 -0.0327  0.2011
22103W        W37912  12.474   4.367  14.484  0.2599  0.3007  0.0336
22104W        W37913   2.402   7.427   3.561 -0.0261  0.1094  0.1643
22105W        W37914   8.260  10.386  15.463  0.2638  0.3150 -0.1012
22106W        W37915  15.060   4.937   4.328 -0.1532  0.0995  0.1742
22107W        W37916  11.772  15.495  11.169  0.0944  0.3175 -0.0565
22108W        W37917   7.752  17.442   1.221 -0.0154 -0.0991  0.2120
22109W        W37918  16.689  15.029  13.808 -0.0545 -0.0413  0.0075
22110W        W37919  16.954  15.826   3.991  0.0946 -0.1425 -0.0969
22111W        W37920   6.094   3.754   3.243 -0.0770  0.2656 -0.2174
22112W        W37921  10.618  16.841   0.112  0.0704 -0.3109  0.1709
22113W        W37922  11.422  15.485  14.215 -0.0571  0.0181 -0.1788
22114W        W37923   0.762   3.159  13.924 -0.0121 -0.1006 -0.2256
22115W        W37924   5.536  14.844   0.481 -0.0702 -0.1136 -0.2171
22116W        W37925   6.683   5.423  15.496  0.2167 -0.3262 -0.3144
22117W        W37926  12.575  14.962  14.818  0.4189  0.2020  0.0015
22118W        W37927   9.184  16.846   2.708  0.2179 -0.0529  0.0064
22119W        W37928  15.041  15.739   4.956 -0.2571  0.2313  0.2281
22120W        W37929  11.597  12.526   5.362  0.0188 -0.0725 -0.1763
22121W        W37930  12.109  11.295  11.526  0.0616 -0.0105  0.1393
22122W        W37931  17.700  17.596  15.191 -0.0129  0.0280  0.1517
22123W        W37932  12.145  18.528   3.324  0.0390 -0.0515 -0.0314
22124W        W37933   3.269   9.497  12.145 -0.3224  0.0245  0.2310
22125W        W37934  13.542  18.037   2.694  0.2428  0.3052 -0.0630
22126W        W37935   2.106  16.608  10.653 -0.0013 -0.1877  0.2540
22127W        W37936   7.759   9.887   4.250  0.3361  0.1041 -0.0791
22128W        W37937  15.297  18.046   0.485 -0.3076  0.1884  0.0491
22129W        W37938  15.613   4.053  15.147  0.1782 -0.0014 -0.1704
22130W        W37939  13.344  10.528  13.718 -0.3676  0.0792 -0.1534
22131W        W37940  14.118  17.565   1.007  0.2400 -0.0475  0.1213
22132W        W37941   6.678  12.930  13.270 -0.0324  0.0329  0.2811
22133W        W37942   4.168  13.070  11.323 -0.1913  0.0973  0.1133
22134W        W37943  11.935  17.924   2.963 -0.2974 -0.2609 -0.0829
22135W        W37944  15.761   5.580  12.817  0.0927 -0.0593  0.0911
22136W        W37945   6.145   5.062   2.579 -0.0467  0.3566  0.3041
22137W        W37946  18.158   6.177   3.295  0.1440  0.1997  0.1757
22138W        W37947   3.625   7.782  11.497  0.0868  0.0497  0.0508
22139W        W37948  10.273   1.518   1.035 -0.1526 -0.0541  0.1068
22140W        W37949   5.548   9.472   4.835  0.1239  0.0820  0.1576
22141W        W37950   4.004  16.585  14.718  0.1727 -0.2021  0.2171
22142W        W37951  14.461   5.286  15.452  0.3484 -0.0745  0.1693
22143W        W37952  14.820  10.527  13.695 -0.1367  0.0394  0.1891
22144W        W37953  16.125  12.738  15.272 -0.0314 -0.3381  0.1256
22145W        W37954  10.305  12.014  15.599 -0.0346  0.4718 -0.1612
22146W        W37955  17.478   0.642  12.927  0.0660 -0.1536  0.2279
22147W        W37956   4.220   0.361   0.007  0.0668  0.2287 -0.2061
22148W        W37957   0.075   8.151  13.801  0.2772 -0.0448  0.3172
22149W        W37958  14.548   9.880  11.317  0.2069 -0.0172  0.0008
22150W        W37959   7.923  17.221  14.341  0.3856 -0.2100 -0.3826
22151W        W37960  17.163  13.668  11.593  0.1697  0.0782  0.3272
22152W        W37961  10.925   0.528  12.122 -0.0469 -0.2152  0.3395
22153W        W37962  10.784   5.717  12.019 -0.0165  0.0924 -0.0046
22154W        W37963   3.560   6.805  15.073 -0.3173  0.2696 -0.0554
22155W        W37964  14.319  17.339   4.242 -0.0465 -0.1075 -0.0620
22156W        W37965   8.073   3.935   1.015  0.1481 -0.1651  0.0594
22157W        W37966   5.598   0.851   1.047  0.1929  0.2797  0.3144
22158W        W37967  16.102   1.755  13.909 -0.0429 -0.0358 -0.0323
22159W        W37968  11.675  13.057   2.320 -0.1001  0.2936  0.1717
22160W        W37969   4.398   0.526   0.827  0.3166  0.0859 -0.1604
22161W        W37970   8.085  13.002   6.032 -0.0283 -0.1181 -0.2678
22162W        W37971  10.804   4.404   4.998 -0.0573 -0.0389 -0.1330
22163W        W37972   5.677  10.272  11.025  0.1348  0.1062  0.0208
22164W        W37973  15.149  18.431  11.213  0.0812  0.1665  0.0484
22165W        W37974  12.637   1.566  11.214  0.2569 -0.1837  0.2359
22166W        W37975  10.882  15.914   2.280  0.4978  0.2062  0.0020
22167W        W37976  17.025   9.385   2.561 -0.2377 -0.1284 -0.5089
22168W        W37977   1.842  10.057   2.571 -0.1036  0.0456  0.0239
22169W        W37978   3.740   7.367  13.168 -0.2548 -0.1502 -0.0107
22170W        W37979  15.755  18.159   4.506  0.0387 -0.1641 -0.4285
22171W        W37980   7.695  13.577   1.186  0.0215  0.0295 -0.1447
22172W        W37981  17.734  11.715  14.015 -0.5890 -0.1128  0.1521
22173W        W37982  17.655   1.088   4.941  0.3258 -0.0377  0.0753
22174W        W37983   9.956   7.191   3.515 -0.1336  0.1901  0.1709
22175W        W37984  13.830   1.545  11.047 -0.2187 -0.0806  0.0117
22176W        W37985   7.815   2.394   1.714  0.1441 -0.0243  0.3194
22177W        W37986   3.230  18.269  15.629  0.3139  0.3349  0.1577
22178W        W37987   9.802  14.588  12.728  0.2840 -0.3233 -0.0540
22179W        W37988  17.111   2.062  11.917  0.0860  0.0846 -0.0928
22180W        W37989  16.437  16.880  13.536 -0.1042  0.1062 -0.0266
22181W        W37990  14.610  11.729   2.691 -0.3067 -0.2296  0.1194
22182W        W37991   8.567   9.858   3.678  0.0712 -0.1502  0.1702
22183W        W37992  12.296   2.581   4.847 -0.3795 -0.1702 -0.0080
22184W        W37993  16.292   8.120   2.890  0.4188  0.2233 -0.2422
22185W        W37994  12.751  14.706   1.074 -0.3667 -0.0674 -0.1585
22186W        W37995  13.992   7.160  12.048  0.2041 -0.1490  0.0216
22187W        W37996  12.602  13.743   5.064 -0.2038  0.0603 -0.2019
22188W        W37997  13.850  13.392   0.377  0.1164  0.0206  0.3519
22189W        W37998  14.025   0.242  15.595  0.3325  0.0926  0.0584
22190W        W37999  15.730   8.411   1.612 -0.1854  0.1804  0.0609
22191W        W38000   4.647   7.586   3.334 -0.0829  0.0795  0.2613
22192W        W38001  18.178   0.339   2.873 -0.3058  0.1483 -0.0220
22193W        W38002  15.085   8.813  12.343 -0.1125  0.0638  0.1673
22194W        W38003  13.123  15.322  15.507 -0.4769  0.0142 -0.0381
22195W        W38004  16.262  11.821   1.818 -0.1856  0.1438 -0.0960
22196W        W38005  14.903  10.256  11.259 -0.0661 -0.0934  0.4904
22197W        W38006   7.478  18.394  11.209 -0.1241 -0.0723 -0.1481
22198W        W38007  17.004   7.139  14.803  0.2109 -0.0893  0.0180
22199W        W38008  16.105  17.796  15.635  0.1767 -0.3746  0.0119
22200W        W38009  18.407   4.429   3.474  0.3625 -0.2891  0.3291
22201W        W38010   1.749   9.834   5.557 -0.0579  0.2093  0.2524
22202W        W38011   8.144  15.586  11.671  0.0765  0.0694  0.0214
22203W        W38012   0.580   8.037   3.065 -0.2336  0.0123 -0.1308
22204W        W38013  12.724  18.132  11.711 -0.0711  0.0006  0.4182
22205W        W38014   1.316  17.230  15.106 -0.3426  0.2020  0.1778
22206W        W38015  11.441   3.304   0.224 -0.0191 -0.1730  0.2536
22207W        W38016   2.639  13.946   3.919 -0.0228 -0.0094  0.2607
22208W        W38017   1.315   4.686   1.071  0.1393  0.3650 -0.5080
22209W        W38018  10.213   9.949  10.295 -0.0470 -0.0511 -0.4507
22210W        W38019   3.934   7.166  15.221 -0.0185  0.1330 -0.1767
22211W        W38020   9.662  17.481  14.510 -0.0503  0.0258 -0.1141
22212W        W38021  14.150   4.900   4.751 -0.0383 -0.3238 -0.2896
22213W        W38022  14.800   9.389   5.932  0.0494  0.1942  0.0248
22214W        W38023   8.845  18.041   4.338 -0.0282 -0.2630  0.0839
22215W        W38024  17.631   8.700   1.135  0.2316 -0.0216  0.0140
22216W        W38025   8.210  16.997   4.568  0.0741 -0.0860 -0.1050
22217W        W38026   1.709   2.296  13.085  0.0720 -0.0207  0.2338
22218W        W38027  13.262  18.059   1.247  0.0369  0.1503  0.1635
22219W        W38028  18.335  14.979   1.212 -0.0408  0.0041 -0.0737
22220W        W38029  11.681   1.304   4.797 -0.2832  0.2171 -0.2268
22221W        W38030   5.055  12.430   5.731  0.0905  0.0055 -0.1192
22222W        W38031   1.083   0.778   1.550  0.0817 -0.0483 -0.0489
22223W        W38032  13.396  13.201  13.780 -0.1648  0.0577  0.0998
22224W        W38033   8.417   5.595   3.793 -0.1157 -0.0750  0.1344
22225W        W38034   1.309   9.155   2.422  0.3723 -0.0480 -0.0694
22226W        W38035  11.670   7.353  15.116  0.0921  0.1038  0.5035
22227W        W38036  13.921  11.939  13.500 -0.1370 -0.1311  0.2373
22228W        W38037  16.967  14.921  10.863 -0.0872 -0.2542 -0.1656
22229W        W38038  18.620   4.161  14.218  0.5341  0.0816 -0.0791
22230W        W38039  18.131  17.807   1.319  0.2046  0.1701  0.1101
22231W        W38040  14.226   5.598  14.604 -0.0473 -0.0823 -0.1932
22232W        W38041   0.906   7.393  15.310 -0.1310  0.1287 -0.1160
22233W        W38042   0.940  14.161  12.915  0.1780  0.1111 -0.1072
22234W        W38043  12.582  14.665   5.028 -0.0842  0.2279 -0.0587
22235W        W38044   6.692   9.270  10.520 -0.0018  0.0134  0.1356
22236W        W38045  14.129   8.657   4.441  0.0175  0.3491 -0.0857
22237W        W38046   4.785  10.365   5.402  0.1862  0.3240 -0.0859
22238W        W38047   2.041  11.343  13.754  0.0304  0.0968  0.3886
22239W        W38048   7.628   3.038   3.967  0.1668  0.1077 -0.1002
22240W        W38049   1.110  10.048   0.053 -0.0550 -0.3736 -0.0951
22241W        W38050   2.863  17.761   2.287 -0.0051 -0.2318  0.1542
22242W        W38051   6.716   3.752   2.156  0.5074  0.1785 -0.0555
22243W        W38052  10.498  12.902   0.193 -0.0171  0.1342  0.0670
22244W        W38053  16.160   5.883   3.625  0.1664 -0.1760  0.2320
22245W        W38054   1.080   6.208   1.684 -0.1517 -0.1488  0.1865
22246W        W38055  14.627  11.996   3.466  0.2032 -0.0300 -0.1705
22247W        W38056   2.091  16.275   4.419 -0.4698  0.1778  0.3284
22248W        W38057   2.575   0.618   0.554 -0.1121  0.2306 -0.0002
22249W        W38058  11.560  15.731   4.807 -0.3289 -0.3027  0.1260
22250W        W38059   0.626   2.872   4.198 -0.2260  0.1624  0.1993
22251W        W38060   2.491   2.710   9.866 -0.0565  0.3581  0.2276
22252W        W38061   4.008  16.346  13.429  0.0124  0.0493 -0.0545
22253W        W38062  15.034   7.542   0.286 -0.0258 -0.2150  0.1196
22254W        W38063   9.189   9.581  12.149  0.4298  0.0355  0.0490
22255W        W38064   0.609   3.387  12.145  0.1217 -0.2973 -0.1322
22256W        W38065  15.880   3.326  12.056 -0.0320  0.0466  0.4028
22257W        W38066   8.220  10.847  12.953  0.2619 -0.1357 -0.1400
22258W        W38067  13.446  11.944   2.415 -0.3855  0.0096 -0.1480
22259W        W38068   2.643   6.255  13.345 -0.3797 -0.0051 -0.2410
22260W        W38069   9.516   7.908  15.513  0.3285  0.0465  0.0364
22261W        W38070   0.206  16.895   3.454 -0.2324  0.2739  0.1528
22262W        W38071   9.043  18.247   3.437 -0.0650 -0.2144  0.0944
22263W        W38072   6.690   2.928   3.517 -0.2562 -0.0920 -0.0105
22264W        W38073   9.843  11.813   1.269  0.0479 -0.1163  0.1375
22265W        W38074   8.570   8.843  13.458  0.4809 -0.2580  0.1773
22266W        W38075  17.831  12.100  13.115  0.2344  0.4321  0.1595
22267W        W38076  10.979  15.354   2.579 -0.1166 -0.0583 -0.0845
22268W        W38077   3.060   6.869  15.731  0.2334 -0.2594  0.0213
22269W        W38078   6.785  14.971  10.918 -0.4531  0.1074  0.1330
22270W        W38079   8.059  11.359   1.694  0.0446 -0.0245 -0.0807
22271W        W38080   1.264   1.380   2.987 -0.1115  0.0083  0.3819
22272W        W38081  12.301  17.781   5.253 -0.1878  0.2542 -0.1435
22273W        W38082   2.469   6.677   4.390 -0.0821 -0.1291  0.2840
22274W        W38083   3.780   3.218  11.650 -0.3396 -0.0666  0.0288
22275W        W38084  10.831  16.313   4.175  0.2374  0.0463 -0.0275
22276W        W38085  10.714  10.785   3.802  0.1561  0.1041 -0.3533
22277W        W38086  14.254  11.314   4.529  0.1603 -0.2331 -0.0752
22278W        W38087   0.584   2.402  14.312  0.2512  0.1615 -0.1372
22279W        W38088   5.122  17.570  14.855 -0.1344  0.2447  0.0653
22280W        W38089  14.624  17.487  10.928  0.0386  0.0977 -0.2041
22281W        W38090  11.171  10.505  13.946 -0.0396  0.1503 -0.0256
22282W        W38091   7.263  10.641  15.559 -0.1363 -0.2658  0.1368
22283W        W38092   7.747   4.288   1.022 -0.3659  0.0144  0.2490
22284W        W38093  17.913  13.136  15.003  0.4518 -0.1914 -0.0902
22285W        W38094  15.095  15.857   3.218 -0.2796  0.3485 -0.0966
22286W        W38095  18.465   1.831  15.436  0.2307 -0.2312 -0.1336
22287W        W38096  17.778  18.173  11.401  0.2732  0.0417  0.1365
22288W        W38097   3.890  13.449  13.256 -0.0588  0.2730 -0.0843
22289W        W38098  15.776   0.947  13.592 -0.0607 -0.1464  0.0172
22290W        W38099  17.712   4.158   2.113 -0.0719  0.1373  0.2414
22291W        W38100   6.613   0.691  11.700 -0.1945 -0.1075 -0.3194
22292W        W38101   9.453  10.035  13.875  0.1370  0.0826 -0.0948
22293W        W38102   6.453  12.129  15.339  0.2025 -0.2099 -0.0120
22294W        W38103  10.474   5.517  13.871  0.1275 -0.0635  0.0964
22295W        W38104  15.910   8.045   0.576 -0.3149 -0.0346  0.1366
22296W        W38105  15.001  17.885   0.896 -0.0253  0.1234  0.4714
22297W        W38106   3.280   5.563  11.915  0.1816  0.1086  0.2055
22298W        W38107   4.461  11.298   2.374 -0.2623  0.2737 -0.3812
22299W        W38108  11.226   4.873   3.213  0.0360 -0.2066  0.2699
22300W        W38109   2.814  16.985  13.127 -0.0144  0.3613  0.2426
22301W        W38110  12.374   8.074   5.394  0.1408  0.4122  0.1711
22302W        W38111  15.398   4.805  11.881 -0.0810 -0.0450  0.3599
22303W        W38112  13.298  10.604   3.109 -0.1695 -0.1006  0.0623
22304W        W38113  10.125  14.809  10.923 -0.0452  0.2087 -0.3664
22305W        W38114  11.330   6.915   2.506  0.1241  0.0118  0.0652
22306W        W38115  18.434   2.762  15.109 -0.0041  0.0054 -0.2441
22307W        W38116   2.375  10.951   1.352 -0.2194 -0.2654 -0.1476
22308W        W38117   3.984   5.399   1.719 -0.0916  0.0492 -0.3825
22309W        W38118   8.923   6.106   0.785 -0.2605  0.3156 -0.0435
22310W        W38119   6.683  11.307  12.484  0.1833  0.2725 -0.1145
22311W        W38120   3.788  10.480   1.663 -0.1972 -0.0839  0.1961
22312W        W38121   4.222   2.514   0.130  0.0659  0.2556 -0.1177
22313W        W38122   1.708  16.746  11.615  0.0683 -0.0824  0.3021
22314W        W38123  16.875  13.999  10.507 -0.2229 -0.2872  0.1567
22315W        W38124  13.265   4.227   0.861  0.2459 -0.2935 -0.0173
22316W        W38125   4.523   4.313   5.090  0.0700  0.2469  0.0318
22317W        W38126  12.938   3.240   0.720 -0.0430  0.0428 -0.2199
22318W        W38127   7.023  15.510  14.610 -0.3834 -0.0012  0.3550
22319W        W38128   0.269  18.367  15.126 -0.0596 -0.3133  0.1304
22320W        W38129  14.458   7.125  11.399 -0.2945  0.2911  0.2896
22321W        W38130  11.060  18.444   1.786 -0.0577 -0.1438  0.1992
22322W        W38131  11.554   2.241   4.324 -0.0567  0.0019  0.3266
22323W        W38132   4.549   1.724  12.639 -0.1427 -0.2882 -0.0957
22324W        W38133   9.234   7.975   2.561 -0.1154 -0.1502 -0.0433
22325W        W38134  15.634   6.389   2.513 -0.0371  0.0931 -0.2047
22326W        W38135   5.156  16.538  10.313 -0.0363  0.0376 -0.0420
22327W        W38136  11.724  16.952   3.971  0.2445  0.2121 -0.0061
22328W        W38137  10.967  12.073  10.973 -0.0526  0.2764  0.3211
22329W        W38138  15.919  17.301   1.579  0.2583  0.1130  0.1485
22330W        W38139   0.005  15.612   2.533 -0.0346 -0.1283  0.0927
22331W        W38140   7.081  18.642   2.857 -0.1556 -0.1196 -0.0221
22332W        W38141   2.611  14.944  14.660 -0.0120 -0.0557 -0.0080
22333W        W38142   7.739  15.014  11.846 -0.2691  0.1968  0.2107
22334W        W38143   0.979   4.999   2.053 -0.2617  0.2054  0.0342
22335W        W38144   2.675   9.554   3.574  0.1679  0.0318  0.0701
22336W        W38145   8.316   4.200   0.657 -0.0224 -0.1351  0.0954
22337W        W38146   8.713  13.255  15.159 -0.1620 -0.3119  0.0716
22338W        W38147   0.910  14.295  13.432 -0.3285  0.0370 -0.0263
22339W        W38148   1.206   3.790   1.780 -0.3050  0.1106  0.0960
22340W        W38149  11.255   7.362   0.832  0.2481 -0.0805  0.1866
22341W        W38150  13.742  12.511  12.224 -0.0852 -0.0148 -0.1551
22342W        W38151   6.758   6.803   4.271 -0.6517  0.0249 -0.0645
22343W        W38152  10.654   5.434  12.760 -0.1523  0.0863 -0.4510
22344W        W38153  16.071   6.535   1.521 -0.0835 -0.0679  0.0930
22345W        W38154   4.268   8.465   2.717  0.1960  0.0077  0.1250
22346W        W38155   0.098   3.311  12.939 -0.0361  0.0771 -0.0096
22347W        W38156  12.183  17.293  13.629 -0.3904  0.2389 -0.0389
22348W        W38157   9.638   8.922   5.052 -0.0291 -0.2059 -0.0340
22349W        W38158  12.985   9.429  10.528 -0.0678  0.1847 -0.0883
22350W        W38159   6.987  18.062  12.180  0.0757  0.1463  0.2440
22351W        W38160   5.713  17.103   1.677  0.3383  0.0823 -0.0297
22352W        W38161   3.299   8.637  11.910 -0.0637  0.2166 -0.0532
22353W        W38162   8.434   9.144  12.490  0.1795  0.0138 -0.2450
22354W        W38163  15.699  14.390   1.471 -0.3157 -0.0256  0.2124
22355W        W38164   9.804  15.003  11.423 -0.1278 -0.2910 -0.2105
22356W        W38165  11.967   5.305  14.541 -0.2146 -0.1085 -0.2097
22357W        W38166  15.435   1.173   0.610  0.0025  0.2397 -0.0082
22358W        W38167  16.286  12.176   2.882 -0.3968  0.2383 -0.0630
22359W        W38168   0.913   3.937  15.571 -0.2466  0.0483  0.1736
22360W        W38169   8.430  16.814  15.136  0.0381  0.1227 -0.2327
22361W        W38170   1.921  10.009  11.841 -0.0742 -0.0385 -0.2034
22362W        W38171   3.127  13.459  10.912  0.3977 -0.0843 -0.1350
22363W        W38172  12.950   4.595   2.624  0.4317 -0.0142 -0.0602
22364W        W38173  12.002   2.503   6.063 -0.0149  0.0685  0.1092
22365W        W38174   5.838   7.351   0.851  0.0226 -0.1521 -0.2446
22366W        W38175  11.477   6.124   0.948  0.2900 -0.1095 -0.0465
22367W        W38176  10.910   7.519   1.991  0.2577  0.0229 -0.3684
22368W        W38177   2.655  11.450   4.205  0.1084  0.1944  0.0090
22369W        W38178   8.419  11.458   2.884  0.5314 -0.1301  0.4617
22370W        W38179  12.023   2.981   2.878 -0.0374 -0.3520  0.0207
22371W        W38180   5.037   6.285   1.626  0.1312 -0.1250  0.0827
22372W        W38181  11.957  17.530   1.274  0.2642  0.0901  0.2797
22373W        W38182   8.102  14.406   4.834  0.2618  0.3442 -0.0024
22374W        W38183  14.613   4.434  13.165 -0.1147  0.0749  0.1249
22375W        W38184   7.468  13.131  10.735  0.0929 -0.1481  0.3724
22376W        W38185   1.473  16.335  11.745  0.2808 -0.1399 -0.0465
22377W        W38186   4.006  11.142   4.506 -0.0491 -0.0551  0.1765
22378W        W38187   7.255  15.970  10.194  0.1867  0.0188  0.1136
22379W        W38188   6.834   7.509   2.157 -0.0777  0.1077  0.0697
22380W        W38189  10.530  10.419   2.066  0.2925 -0.3105  0.0312
22381W        W38190   4.217   9.004  13.651 -0.0350  0.1880 -0.2722
22382W        W38191  11.948   4.310   3.483 -0.0363  0.1665  0.2403
22383W        W38192   7.173  13.220  12.387  0.2281  0.0465 -0.3305
22384W        W38193  10.342   4.540   4.684 -0.0367 -0.1485  0.1407
22385W        W38194  10.725  14.535   3.878 -0.1143 -0.0723 -0.2027
22386W        W38195   5.451   1.511  15.016 -0.0240 -0.3608 -0.0552
22387W        W38196  10.355  17.838   2.955  0.0864 -0.0281 -0.3472
22388W        W38197  14.301   0.187  11.968  0.0474  0.4165 -0.1543
22389W        W38198  13.984   1.515  11.973 -0.1081 -0.1242 -0.0873
22390W        W38199  10.697   2.229   0.909 -0.3331 -0.2149 -0.0992
22391W        W38200  11.670  17.647   3.408 -0.0210  0.2557 -0.0742
22392W        W38201  14.683   9.129  13.991 -0.2709  0.1279 -0.2449
22393W        W38202   7.967  11.421   2.701  0.0078 -0.1635 -0.0335
22394W        W38203   5.619  18.333   4.129 -0.0471 -0.0506 -0.1005
22395W        W38204   1.695  11.730  11.807  0.1368  0.0548 -0.1441
22396W        W38205   4.470  16.050  11.508 -0.0295 -0.0204 -0.0093
22397W        W38206   4.637   6.093   4.351 -0.4542 -0.0830 -0.2015
22398W        W38207   7.343   7.898  14.197  0.0943 -0.0259 -0.1793
22399W        W38208  16.730  16.173  15.720 -0.0072  0.0687 -0.0992
22400W        W38209   5.855   2.146   4.470  0.3325  0.3308  0.0598
22401W        W38210  18.552  17.253   3.626  0.1158  0.2088 -0.0535
22402W        W38211  15.255  12.573   1.472 -0.1161 -0.3843 -0.1803
22403W        W38212   0.629   2.008   4.747 -0.1473  0.0644 -0.1628
22404W        W38213   4.811  18.234   0.350  0.1277 -0.0416  0.1989
22405W        W38214   8.894   6.388   4.346  0.2045  0.2139 -0.3165
22406W        W38215  12.602  15.266   4.111  0.2408  0.0594 -0.2898
22407W        W38216  16.105  15.061  10.287 -0.0946  0.0062 -0.3758
22408W        W38217  13.998   2.430  13.334  0.1764 -0.0476 -0.1947
22409W        W38218  16.365  16.977  12.031  0.0896  0.0599 -0.0041
22410W        W38219   5.731  13.162   5.446 -0.0494 -0.2406  0.3066
22411W        W38220  15.700   8.321  15.382  0.2090 -0.2308 -0.0772
22412W        W38221  18.016   1.652   5.719 -0.1946 -0.1318 -0.1891
22413W        W38222  16.695  11.508   4.323 -0.1333 -0.0236  0.0191
22414W        W38223   6.593  15.019  12.526 -0.0099  0.0722  0.1744
22415W        W38224  15.778   9.454  14.904 -0.3222  0.3104 -0.2307
22416W        W38225  13.004   3.900  13.048 -0.2112  0.0235 -0.3176
22417W        W38226   3.583   4.249  12.920  0.3262  0.1465  0.2259
22418W        W38227   2.868   2.318  14.832 -0.0903 -0.1502 -0.1461
22419W        W38228  10.592   7.253  13.475 -0.3633 -0.1554  0.2801
22420W        W38229   3.446  17.228   1.987  0.1073  0.0341 -0.1628
22421W        W38230   7.148  16.261  10.693 -0.1544  0.2182 -0.0850
22422W        W38231  15.654  13.373  11.748 -0.3928 -0.0668 -0.0510
22423W        W38232   1.704  18.087  13.502 -0.3791  0.0100 -0.1427
22424W        W38233  15.372  15.188   0.866 -0.2767 -0.2647 -0.2324
22425W        W38234   5.095  12.985   2.283 -0.0909 -0.0889  0.2845
22426W        W38235   6.592   4.486   1.550  0.1239  0.0672 -0.0845
22427W        W38236   5.428  10.534   4.668  0.1030 -0.0057  0.0199
22428W        W38237  17.185   2.748   4.794 -0.0848 -0.2714  0.0206
22429W        W38238   4.946   9.637  14.419  0.1640 -0.1800  0.1048
22430W        W38239   0.962   3.077   4.580  0.0947  0.2241 -0.0644
22431W        W38240   0.590  17.256   3.195  0.1452  0.1678 -0.1806
22432W        W38241   5.246  11.062   2.526 -0.1080  0.0826  0.2024
22433W        W38242  17.523  16.092  13.993 -0.5534 -0.0800 -0.1155
22434W        W38243  10.887   8.931   4.351  0.1015 -0.1713  0.0004
22435W        W38244  11.419  16.261   1.330 -0.0271 -0.1457  0.1667
22436W        W38245   1.331   6.617   1.816  0.1492 -0.0974 -0.1011
22437W        W38246  17.011  10.380   3.055 -0.3257 -0.0997  0.0738
22438W        W38247   9.768   9.970   3.260  0.0658 -0.2512  0.0071
22439W        W38248  10.890   6.924   3.248  0.1082 -0.3443  0.5093
22440W        W38249   2.754  14.696  15.282  0.1709 -0.1292 -0.2392
22441W        W38250   8.400   2.276   5.248 -0.1625 -0.2273 -0.0665
22442W        W38251   5.086   8.617  13.803 -0.3790 -0.0218  0.1602
22443W        W38252   2.883  13.904   5.593 -0.0599 -0.1405 -0.0078
22444W        W38253  16.121  15.226   2.296 -0.0540 -0.3284 -0.1576
22445W        W38254   0.207  13.698   6.255 -0.1419  0.1681  0.0911
22446W        W38255  12.105  18.427   3.802  0.0676  0.0636  0.3753
22447W        W38256   8.621   6.128  12.672 -0.1279  0.1072 -0.1945
22448W        W38257   4.459  13.466  11.238 -0.1608  0.1899 -0.0753
22449W        W38258   5.697   5.277   4.281  0.1607 -0.2604  0.3190
22450W        W38259   7.143  17.693   9.668 -0.0123 -0.2554  0.2030
22451W        W38260  14.364  14.096  10.652 -0.2632 -0.3068  0.1119
22452W        W38261  14.046   9.006  11.697 -0.0819  0.0954  0.1234
22453W        W38262  10.376   7.455  13.973 -0.2545  0.0022 -0.1929
22454W        W38263   1.869   7.591  12.492 -0.0403 -0.1704  0.1989
22455W        W38264   1.281   8.551   0.676  0.0394 -0.0535 -0.1604
22456W        W38265   4.454  16.752   2.145  0.0649  0.0988  0.1397
22457W        W38266  12.241   0.962   0.037 -0.2371  0.2315  0.2831
22458W        W38267  11.026  14.475   0.920  0.1486  0.0781  0.0532
22459W        W38268   9.015  16.079  12.596 -0.1698 -0.0999 -0.2039
22460W        W38269  16.716  11.750   4.937  0.0138 -0.0289 -0.0189
22461W        W38270   2.159   8.189  13.959 -0.0689 -0.4020  0.1101
22462W        W38271  17.140   2.679  12.761  0.0624  0.1380  0.2889
22463W        W38272   2.530  16.023  15.410  0.0694  0.3755  0.0532
22464W        W38273   3.065  14.360   4.676  0.0115  0.4817  0.0433
22465W        W38274   5.830   5.436  12.848 -0.2222 -0.3116 -0.0656
22466W        W38275   7.124   2.274  12.622  0.2595  0.0913  0.1104
22467W        W38276  12.445  14.974  10.297 -0.0516  0.2816  0.2352
22468W        W38277   9.115  15.082   3.799 -0.1163 -0.1791  0.0972
22469W        W38278  18.614  10.620  10.998 -0.4893 -0.3713  0.0665
22470W        W38279  10.456  16.412  13.581 -0.0940  0.0810  0.3507
22471W        W38280  12.807   8.035  12.298  0.0593 -0.1426  0.0210
22472W        W38281   8.379   9.826  11.554  0.0409 -0.1335  0.1291
22473W        W38282  14.507   5.317  12.793  0.3750  0.5106  0.3613
22474W        W38283  11.088  12.094   3.791 -0.0237  0.0107 -0.1123
22475W        W38284  15.700  16.791  13.797  0.0212  0.1248  0.0258
22476W        W38285   8.835   8.109  15.246 -0.1846  0.0644  0.3692
22477W        W38286   8.515   7.804  12.682  0.0465  0.0519 -0.2860
22478W        W38287   7.231  16.783   2.018 -0.2001  0.0189  0.2398
22479W        W38288  17.901   5.962   1.594  0.0687 -0.1788 -0.2744
22480W        W38289   0.970   4.231  13.830 -0.1160  0.1171  0.0307
22481W        W38290  16.158  12.802   4.009  0.0558 -0.1384 -0.2467
22482W        W38291  13.497   8.329  13.275 -0.0708 -0.0996  0.0490
22483W        W38292   5.900  18.225  14.255 -0.0577  0.3968  0.0356
22484W        W38293   7.991  11.187   4.296 -0.0621 -0.2166  0.0811
22485W        W38294  13.908  17.029   4.518 -0.0954  0.0946 -0.0236
22486W        W38295  11.219   4.212   1.250 -0.0440 -0.0884  0.2213
22487W        W38296   6.694   7.666   1.190 -0.1144  0.0514 -0.2515
22488W        W38297   0.135   2.285  14.095 -0.0453 -0.0361  0.1211
22489W        W38298   6.804   0.502  13.850  0.0406 -0.0802 -0.1054
22490W        W38299  12.496  10.928   4.874 -0.0906  0.2127  0.1953
22491W        W38300  13.789   7.906  12.919 -0.0858  0.0218  0.1014
22492W        W38301   8.723   2.244  13.251 -0.1031 -0.3514 -0.0502
22493W        W38302  12.513   7.283  15.742  0.2774  0.1147  0.0980
22494W        W38303  15.874   4.571   5.444  0.1913 -0.2201  0.0414
22495W        W38304   1.900  14.471  10.006  0.1976  0.4665 -0.0623
22496W        W38305   9.998   1.735   1.562 -0.2274 -0.0003 -0.1164
22497W        W38306  17.450   2.908   1.906  0.3207 -0.0575 -0.1363
22498W        W38307   7.604   6.192  10.956  0.1222 -0.0796 -0.0154
22499W        W38308  16.587  13.082   3.172 -0.3733 -0.4343  0.0094
22500W        W38309   7.526  15.293   0.779  0.1056 -0.1674 -0.0190
22501W        W38310   5.192  14.716   0.791  0.0092 -0.1314 -0.2829
22502W        W38311  10.705   1.072   2.207 -0.1565  0.3027 -0.1060
22503W        W38312  13.775   3.061  10.870 -0.1145  0.0464  0.2052
22504W        W38313  16.365   6.080  10.884  0.1159  0.1299  0.0143
22505W        W38314  13.949   1.765   2.999 -0.2058  0.0177  0.0914
22506W        W38315  14.107   1.557   0.893  0.0188  0.1256  0.0539
22507W        W38316   6.969  14.473   3.377  0.1859  0.0112  0.1583
22508W        W38317  13.137  12.257   4.938  0.1584 -0.0895 -0.0088
22509W        W38318   9.724   1.487   0.412  0.2328  0.1957 -0.1125
22510W        W38319  13.080   4.268  15.314 -0.0791  0.0536 -0.0888
22511W        W38320  11.602  14.732  10.483 -0.0165  0.1408  0.1201
22512W        W38321   7.217  16.371   4.683  0.2394 -0.1278  0.0721
22513W        W38322   3.485   5.126  14.595 -0.3524 -0.1595  0.0753
22514W        W38323   3.879  11.959   3.506  0.1026  0.0006 -0.0743
22515W        W38324  15.999  16.526  14.836  0.0932 -0.1106 -0.1484
22516W        W38325   8.309  10.453  14.153 -0.0506 -0.0066 -0.2532
22517W        W38326   1.313  17.538  10.968 -0.0107  0.2163  0.1968
22518W        W38327  18.147   5.778  11.675 -0.0450  0.0211 -0.0232
22519W        W38328  16.922   0.852  14.711 -0.0831 -0.2153  0.2419
22520W        W38329  18.472   1.862   3.308 -0.0558  0.0797  0.1845
22521W        W38330   8.874   3.648   3.048 -0.0089  0.1558 -0.2216
22522W        W38331   4.287   1.600   2.571  0.0068  0.1343  0.0025
22523W        W38332  12.335   3.525   4.446  0.3647 -0.0018 -0.1065
22524W        W38333  14.859   4.866  12.003  0.1563  0.1533  0.1076
22525W        W38334   2.315  10.757   4.101 -0.3213  0.3937  0.0295
22526W        W38335   5.978   1.203   1.009 -0.1026 -0.1940  0.1988
22527W        W38336   7.637   5.668   0.759 -0.2896 -0.2877 -0.1360
22528W        W38337   6.154   3.671  15.686 -0.0906  0.1698 -0.1245
22529W        W38338  10.691   5.929  12.523  0.1405 -0.1005 -0.2439
22530W        W38339   9.491   2.387  13.946  0.0787 -0.1597  0.2557
22531W        W38340  10.160  10.654  14.357  0.2085 -0.0688 -0.0720
22532W        W38341   4.052   3.477  10.124  0.0042  0.1786 -0.0475
22533W        W38342   9.534   7.323  11.262  0.2351 -0.1819 -0.1165
22534W        W38343  10.470  15.754   3.946 -0.2159  0.0744 -0.0505
22535W        W38344   5.882   3.775  11.635 -0.0326  0.3067 -0.1175
22536W        W38345  10.591   4.405  11.508  0.0777 -0.0310 -0.0538
22537W        W38346  15.705  11.379   2.136 -0.0507  0.1825 -0.1860
22538W        W38347  17.085  16.440   4.277  0.4176 -0.0165 -0.1015
22539W        W38348   6.297   6.059  13.704 -0.3586 -0.0046  0.0743
22540W        W38349   7.680   8.209   3.192  0.3508  0.0195  0.1370
22541W        W38350   3.447  11.810   4.171  0.2828  0.0078  0.1713
22542W        W38351  10.296   4.883   0.634 -0.3277  0.4945  0.2509
22543W        W38352   4.892   4.808   0.707  0.5168  0.0806  0.2242
22544W        W38353  15.519   7.698   3.311 -0.0039  0.0626 -0.2596
22545W        W38354   8.916   6.007   2.728 -0.0466  0.1799 -0.0286
22546W        W38355  12.419  11.899   0.745 -0.0714 -0.2033  0.0481
22547W        W38356  18.535   9.712  14.081  0.0675  0.1058 -0.4187
22548W        W38357  17.951   3.044   0.659 -0.1344  0.0386 -0.1414
22549W        W38358  15.717  11.982   3.490  0.5347 -0.0331  0.1685
22550W        W38359   7.139   4.939  10.776  0.1026 -0.1081  0.0738
22551W        W38360   8.654  17.490   3.726 -0.0650  0.1498 -0.3227
22552W        W38361  18.527  15.518  15.464  0.1256 -0.1804 -0.0136
22553W        W38362  18.215   0.563  12.360  0.1487 -0.2763 -0.0570
22554W        W38363  12.442   7.904   1.510 -0.1098  0.0486  0.0528
22555W        W38364  18.616   1.436   3.603 -0.1673  0.1569 -0.0555
22556W        W38365   7.796   8.051  13.760 -0.0251 -0.0373 -0.1719
22557W        W38366   3.299  15.057  10.975 -0.5911 -0.3313  0.0788
22558W        W38367  12.422   4.326   3.864 -0.2096 -0.3662 -0.0363
22559W        W38368   2.655  11.340   2.577  0.1623  0.0282 -0.0621
22560W        W38369  11.020  18.289   0.414  0.0446  0.1471  0.3911
22561W        W38370   2.860  10.145   3.621  0.0009 -0.0539  0.1084
22562W        W38371   1.722   5.165   3.197  0.0375  0.2973  0.0306
22563W        W38372  18.352   2.512  11.692  0.0509  0.0145  0.0532
22564W        W38373  12.936   6.305   4.574  0.1218 -0.0560 -0.0388
22565W        W38374  10.158  13.955   1.978 -0.2556 -0.0614  0.1690
22566W        W38375  15.945   1.054   5.732 -0.3101  0.0264  0.2448
22567W        W38376   5.396   3.634  11.554 -0.2547  0.3320 -0.1855
22568W        W38377  13.822  18.297  14.308  0.1061  0.4141  0.0094
22569W        W38378  15.298  11.833   1.391  0.0378  0.0328  0.2095
22570W        W38379   9.570  14.880   1.773 -0.1999  0.0418 -0.1794
22571W        W38380  18.607  18.380   5.328  0.0111  0.4379 -0.0446
22572W        W38381   9.006  11.901  11.886  0.5548  0.1176 -0.0418
22573W        W38382  16.863  15.567   3.562 -0.0483  0.1054  0.0608
22574W        W38383  13.307   3.780   1.091 -0.0541 -0.2281  0.2910
22575W        W38384  13.754   3.553   0.381  0.3334 -0.3124  0.0866
22576W        W38385  14.162  16.900   9.945 -0.3201 -0.3791 -0.0266
22577W        W38386   0.457   4.331  12.257  0.2030  0.1074  0.1167
22578W        W38387   3.418  10.801   2.489  0.2915  0.0482  0.1242
22579W        W38388  17.275  16.760   3.533 -0.1705  0.1838  0.0595
22580W        W38389   3.343   0.719  13.988  0.4209 -0.0013  0.2667
22581W        W38390  17.954   7.708  11.145 -0.2555  0.2778  0.0695
22582W        W38391   4.900   7.202   1.574 -0.2183 -0.1147 -0.2662
22583W        W38392   2.128  16.052  11.980  0.1616  0.0841  0.0119
22584W        W38393  16.937   8.560  15.060 -0.1368  0.1086 -0.0440
22585W        W38394   0.696   1.934   0.846  0.0421 -0.0491  0.3652
22586W        W38395   7.952   6.475  15.374  0.2263 -0.2809 -0.1616
22587W        W38396  18.437  17.450  14.735 -0.0514  0.0715 -0.1870
22588W        W38397   0.473   5.388  12.098 -0.0714  0.4037  0.1202
22589W        W38398   7.592   8.885   4.491 -0.3677 -0.2800 -0.0950
22590W        W38399  10.245  15.402   1.262 -0.2637 -0.0771 -0.2187
22591W        W38400   9.780   1.254   0.925  0.2912  0.0760  0.1892
22592W        W38401   1.435  17.293   6.190 -0.0931 -0.2485  0.1563
22593W        W38402  13.087  16.615  13.626 -0.1468 -0.1517  0.0612
22594W        W38403  13.704  18.140  10.871  0.3084 -0.1881  0.2171
22595W        W38404  12.151   6.795   1.361  0.1530 -0.4341  0.3188
22596W        W38405   8.537   0.981   1.061 -0.1447 -0.0239  0.1050
22597W        W38406   6.649  10.775   4.537 -0.1361 -0.2458  0.0032
22598W        W38407   2.794  16.604   0.280  0.2918  0.3824  0.1095
22599W        W38408   5.445   4.396  12.795  0.0078  0.1015 -0.2183
22600W        W38409   5.920  18.442   2.650 -0.0710  0.1815 -0.1263
22601W        W38410   2.239  12.455  14.286  0.1240  0.0350  0.1942
22602W        W38411  12.269   7.260  10.942  0.4236  0.2934  0.0468
22603W        W38412   2.365  11.327  13.298  0.0469 -0.1997  0.0330
22604W        W38413  12.669  16.878  13.635 -0.2151 -0.1843  0.2711
22605W        W38414   7.881   7.226   3.803  0.1184  0.3708 -0.1179
22606W        W38415  15.407   1.622   2.042 -0.0501 -0.2078  0.0303
22607W        W38416  10.745  17.571  11.590 -0.0218 -0.0302  0.0260
22608W        W38417   4.560   7.780   0.757  0.0265 -0.0800  0.1526
22609W        W38418  15.715   8.385   2.666 -0.0977  0.2380  0.1162
22610W        W38419   1.663  14.535  13.143  0.0122  0.2414 -0.1079
22611W        W38420  17.675  13.429   3.532 -0.2633 -0.1901 -0.1393
22612W        W38421   3.788   3.010   4.542 -0.0133  0.1587 -0.3802
22613W        W38422  15.825  16.015  10.577 -0.0605  0.1831  0.0404
22614W        W38423   0.271  17.585  10.661  0.3162 -0.2907 -0.1734
22615W        W38424  18.074   1.180   1.803  0.0197  0.1957  0.0616
22616W        W38425  16.853   0.766   2.461  0.1633  0.2272  0.4118
22617W        W38426   2.820   3.453   0.289  0.1466 -0.1176  0.0049
22618W        W38427  10.341  17.491   4.471 -0.0690  0.2559  0.1047
22619W        W38428   7.152  10.636  13.168  0.3642  0.2836  0.0903
22620W        W38429   1.252  11.556  11.677 -0.1609  0.0064 -0.3056
22621W        W38430   9.523  17.670  10.812  0.3732  0.2478 -0.3338
22622W        W38431   9.868  16.917   3.455 -0.1471 -0.1183  0.0136
22623W        W38432  13.044   1.756  15.267 -0.3748 -0.1253 -0.0387
22624W        W38433   6.563   4.051  13.770 -0.0691 -0.2424  0.0189
22625W        W38434  14.339  16.851  10.504 -0.1255 -0.0000 -0.0844
22626W        W38435   0.745  10.513   3.376  0.2474 -0.0266  0.0065
22627W        W38436  16.567  16.124   9.907 -0.1151  0.4404  0.0007
22628W        W38437   1.251  11.765   0.246  0.0877  0.2236 -0.0692
22629W        W38438  16.172   4.654  11.942 -0.1540 -0.0775 -0.4455
22630W        W38439  17.950   8.879   0.148 -0.1223  0.0726 -0.2112
22631W        W38440   8.842   5.529   4.901 -0.0849 -0.0086  0.0574
22632W        W38441   3.689   1.560   4.202 -0.0940 -0.0366  0.1763
22633W        W38442   0.737   4.080  11.834  0.0554  0.0823  0.1464
22634W        W38443   4.143   5.545  12.285  0.0351 -0.1485 -0.0842
22635W        W38444  13.934  15.401  12.448  0.0224 -0.5410  0.1966
22636W        W38445  16.162  17.951  10.450  0.1455  0.0155  0.2157
22637W        W38446   9.380  15.013   0.056  0.0327 -0.0869 -0.0111
22638W        W38447  17.954  10.304  14.047 -0.0170  0.1768  0.1395
22639W        W38448   6.142  13.079   2.844  0.0395 -0.1186 -0.0276
22640W        W38449   1.431   2.749  15.386 -0.0532  0.0093  0.0031
22641W        W38450  10.327  13.122   1.567  0.1454 -0.2097  0.3900
22642W        W38451   9.870  17.566   0.155  0.2366  0.0490  0.1335
22643W        W38452   3.532  16.102  13.448 -0.1740 -0.1196  0.0196
22644W        W38453   0.145  13.164   3.063 -0.0943  0.0708 -0.1036
22645W        W38454   2.697  14.424  12.732 -0.1511  0.0368 -0.1327
22646W        W38455   6.223   3.594   4.339  0.2352 -0.0871  0.0729
22647W        W38456   1.919  11.983  12.242  0.3085  0.0979  0.1648
22648W        W38457   4.844  10.892   0.886  0.0732 -0.1334 -0.1022
22649W        W38458   8.187   6.896  12.226 -0.2554 -0.0630  0.1043
22650W        W38459   7.898  14.233   2.381  0.2316  0.0672  0.2363
22651W        W38460  16.349   9.622   4.126  0.0624  0.1999  0.1323
22652W        W38461  12.689   0.387  10.499 -0.0224 -0.0587  0.1285
22653W        W38462   3.554   1.770   3.247  0.0014  0.5104  0.1103
22654W        W38463   3.602   4.896  11.246  0.0096 -0.3477  0.2289
22655W        W38464   8.920  12.561   0.654 -0.1282  0.4207 -0.1222
22656W        W38465   3.750  13.126   0.644  0.2738 -0.0652 -0.2440
22657W        W38466  15.433   2.051  14.527  0.1427 -0.0017  0.4127
22658W        W38467  11.927   3.397  10.665 -0.0757  0.1612 -0.3028
22659W        W38468   7.813   6.512   2.095 -0.2074  0.1365  0.3579
22660W        W38469  11.663   4.214  12.943 -0.0736 -0.0138  0.2223
22661W        W38470   7.547   3.282   0.960 -0.0688 -0.1044  0.1991
22662W        W38471  15.477  11.830  11.574 -0.0372  0.1423  0.3776
22663W        W38472  11.592   3.121  12.570 -0.1188 -0.4243  0.2382
22664W        W38473   7.560   3.958   3.574 -0.0349  0.0792 -0.0118
22665W        W38474  10.383  16.584  10.618 -0.0911  0.0062 -0.4466
22666W        W38475   5.656  18.409  15.737  0.3134  0.3140  0.0369
22667W        W38476  10.319   9.246   1.046  0.0404  0.5288  0.0336
22668W        W38477   2.478   0.651   4.862 -0.1108 -0.1935  0.0416
22669W        W38478  15.769   5.919   5.108 -0.0543 -0.0687  0.3650
22670W        W38479  11.154   3.605  11.206 -0.3572  0.5183 -0.0739
22671W        W38480   2.695  15.711   1.463 -0.0143 -0.1371  0.1355
22672W        W38481   2.120   8.433  13.525  0.3379  0.2220  0.2090
22673W        W38482   9.360  16.133  14.015 -0.2275 -0.3268  0.1607
22674W        W38483   4.448   4.206   0.267 -0.2211 -0.0035 -0.2987
22675W        W38484   6.637   6.869  15.628 -0.0950  0.0809  0.2303
22676W        W38485  15.595  10.792   4.199  0.0401 -0.0303  0.3299
22677W        W38486  11.784   1.980   1.889  0.0959  0.0281  0.4812
22678W        W38487   5.911  17.598   1.550 -0.1023  0.2443 -0.1891
22679W        W38488   1.435  11.666  10.486  0.3476  0.1052  0.1980
22680W        W38489   8.866   5.665  12.780 -0.0886  0.1602  0.1680
22681W        W38490   3.432  17.858   1.177 -0.1322 -0.4146  0.2348
22682W        W38491  14.004   5.181   0.248 -0.3305  0.0332 -0.0667
22683W        W38492  14.970   0.266  11.062 -0.4358 -0.2943  0.0843
22684W        W38493  16.924   9.743   3.614 -0.1457  0.1685 -0.1003
22685W        W38494   5.145  11.317   1.369 -0.2648  0.2250  0.2360
22686W        W38495  18.208   7.395   2.777  0.0909 -0.1562 -0.2214
22687W        W38496   9.120   4.742   4.488 -0.0565  0.0218  0.1843
22688W        W38497   1.261  11.688  13.475 -0.2706  0.2249  0.0790
22689W        W38498  14.516  16.407   4.080  0.2742 -0.2041 -0.0868
22690W        W38499  15.524   5.759  13.290  0.1250 -0.2221  0.2608
22691W        W38500   5.552   1.349  11.706 -0.0952  0.1357 -0.2385
22692W        W38501   1.201  17.865   2.925 -0.1699  0.0457 -0.0924
22693W        W38502  16.683   7.488   2.255  0.0802 -0.0263 -0.0363
22694W        W38503   7.558   1.918  12.979 -0.0476  0.1558  0.3657
22695W        W38504   0.405  17.145  10.445 -0.2040  0.3696 -0.0787
22696W        W38505   5.532   8.541   1.280 -0.1671 -0.1647  0.1075
22697W        W38506   0.096   8.038  13.244 -0.3473 -0.1755 -0.2491
22698W        W38507   4.198   7.543  13.074  0.1336 -0.2032  0.1675
22699W        W38508   6.249   6.778   4.219  0.2390 -0.0099 -0.0729
22700W        W38509   6.926  11.804  14.951  0.3175  0.0694 -0.2303
22701W        W38510   3.786  14.230   2.749 -0.2634 -0.0806 -0.2473
22702W        W38511  10.362  14.801  12.694 -0.2863 -0.0443  0.5745
22703W        W38512   6.755   4.800  12.758 -0.2181  0.0789  0.3528
22704W        W38513  13.258  11.546  12.324 -0.1616 -0.1590 -0.0544
22705W        W38514  16.605  13.076   3.672 -0.1936 -0.1474 -0.2713
22706W        W38515  14.710  16.314   9.844 -0.1953 -0.0182  0.0799
22707W        W38516   0.462   4.237  14.055 -0.0624 -0.0243  0.2010
22708W        W38517   0.811   2.290   2.814  0.1195  0.3227  0.0821
22709W        W38518  11.375  15.304   5.065  0.2785  0.0383  0.2969
22710W        W38519  11.969   5.526  10.065  0.0683  0.0378  0.2115
22711W        W38520   0.553   8.108  15.153 -0.1682 -0.1886 -0.0864
22712W        W38521   6.215   7.404  12.362  0.3040  0.1242  0.0137
22713W        W38522   0.619   4.598   2.289  0.1043  0.1278  0.2563
22714W        W38523  12.729  10.904  13.083  0.1656 -0.0901  0.3327
22715W        W38524  11.294  14.063   5.233  0.2728  0.0375  0.4353
22716W        W38525  15.662   2.638   0.484 -0.2009  0.1613 -0.1911
22717W        W38526  10.464  17.533  12.786 -0.0354  0.3740  0.1386
22718W        W38527   7.999   0.820   0.751 -0.2688  0.0730 -0.2132
22719W        W38528  16.811   6.798  10.613  0.0740  0.0749 -0.3645
22720W        W38529   3.715  14.398   9.905 -0.2687  0.1199 -0.0164
22721W        W38530  12.699   3.910  13.595 -0.1405 -0.0745 -0.2649
22722W        W38531  16.089   2.798   5.108  0.1106  0.2156 -0.2552
22723W        W38532   9.785   4.511   3.439 -0.2037  0.2856 -0.0251
22724W        W38533  13.596   5.342   0.749 -0.4159 -0.2049 -0.0317
22725W        W38534   7.630  13.062   4.769  0.2936  0.0299  0.1290
22726W        W38535  16.391  13.281  15.122  0.0133 -0.0991  0.0170
22727W        W38536  17.753   2.243  10.951  0.1854  0.1773  0.3424
22728W        W38537   8.642   0.069  12.949  0.0346 -0.0842 -0.0925
22729W        W38538   5.116   4.483  13.132  0.0503  0.1690 -0.0736
22730W        W38539   0.994   4.523   0.740 -0.4981 -0.0933  0.2857
22731W        W38540  14.148   7.558  12.950 -0.0335 -0.4557 -0.1299
22732W        W38541  17.347   0.835  11.116  0.1444 -0.3780  0.0605
22733W        W38542  16.104   7.417  14.988 -0.0197  0.1150 -0.0742
22734W        W38543   6.524  17.510   4.573  0.0147 -0.1633  0.3112
22735W        W38544   6.259  16.376   3.238 -0.1891  0.0788  0.2303
22736W        W38545   2.156  13.759   2.805 -0.2385  0.1066  0.0610
22737W        W38546   0.660   7.959   4.493 -0.0374  0.1760 -0.0091
22738W        W38547   7.261   0.490  14.205 -0.0128 -0.0783  0.1567
22739W        W38548  14.834   2.549   3.437  0.0248 -0.1590  0.2512
22740W        W38549  10.606   1.594  15.035  0.1768 -0.1371 -0.1255
22741W        W38550  13.564  10.355  13.301  0.2062  0.2419 -0.5585
22742W        W38551   9.735   3.105   1.832 -0.0882 -0.1845  0.0462
22743W        W38552   7.511   6.767   2.398 -0.2321  0.1316  0.3164
22744W        W38553  12.122  14.583   3.649 -0.0576  0.2802 -0.0404
22745W        W38554   8.517  18.433   3.453  0.0429 -0.1833  0.2434
22746W        W38555  16.640  11.077   4.655 -0.0893 -0.2323 -0.0002
22747W        W38556   4.553  12.348   4.023 -0.3139 -0.2308  0.3666
22748W        W38557  18.631  14.882   4.336  0.0977  0.2092 -0.1140
22749W        W38558   9.015  11.698  10.688 -0.1377  0.4920 -0.0697
22750W        W38559  18.208  11.586   2.418 -0.0288 -0.1365  0.0600
22751W        W38560   7.634   1.048  14.557  0.0333 -0.0387  0.1454
22752W        W38561  18.317   7.803   1.483 -0.0331  0.2368  0.1195
22753W        W38562   0.479   3.058   2.483 -0.2925  0.2253 -0.2213
22754W        W38563  10.538   1.109  11.358 -0.1870  0.0969 -0.3177
22755W        W38564   8.186  12.818   1.062  0.2691  0.0945 -0.4909
22756W        W38565   9.820  15.110  12.107  0.1436  0.2866 -0.0474
22757W        W38566  14.272  12.293  10.985  0.0128  0.1134 -0.1041
22758W        W38567   7.281   8.370   5.113 -0.1073 -0.0679  0.0258
22759W        W38568   8.914  18.117   2.645 -0.1385  0.1137 -0.3550
22760W        W38569   4.780  14.912  14.242 -0.0503  0.0876  0.0434
22761W        W38570  10.556   1.448   1.567  0.3474  0.3547 -0.0471
22762W        W38571   9.542   0.274   2.142 -0.2753  0.0103  0.2931
22763W        W38572  12.843   7.543   0.927 -0.1274  0.1568 -0.1091
22764W        W38573   8.568  10.719  11.132 -0.1696  0.1748 -0.1212
22765W        W38574  15.877   8.716  11.986 -0.0976  0.1805 -0.1316
22766W        W38575  12.338   5.081  13.766  0.1865 -0.2166 -0.0572
22767W        W38576  17.903   1.413   4.650  0.2654 -0.0074 -0.2956
22768W        W38577   1.646   5.325   4.620  0.2110 -0.0352  0.0731
22769W        W38578  17.737   2.836   2.875  0.1939  0.1081 -0.1927
22770W        W38579   6.791   3.175  15.417  0.1621  0.1055  0.1160
22771W        W38580   9.373   3.598  15.413 -0.2434  0.2154  0.2470
22772W        W38581   6.413  11.114   3.252  0.0540 -0.1174  0.0556
22773W        W38582  12.656   8.633   0.936 -0.2565  0.0844 -0.0214
22774W        W38583   3.227  14.833  14.819  0.1718  0.5119 -0.0448
22775W        W38584   2.719   1.140  15.335  0.2136  0.0274  0.1185
22776W        W38585  13.138  17.802  12.183  0.2593  0.2054  0.0683
22777W        W38586   7.436   7.343  11.502  0.0916 -0.1385  0.3464
22778W        W38587   7.155  17.769  13.895 -0.2022  0.4244  0.1352
22779W        W38588   4.426  14.708  11.161  0.2885 -0.3749  0.1401
22780W        W38589  15.448   5.743  11.995  0.0685 -0.1160 -0.0690
22781W        W38590  11.746   0.778  13.106  0.0620  0.2076  0.0099
22782W        W38591  15.463  18.523   3.582 -0.0986 -0.2246 -0.0288
22783W        W38592   8.053   9.163  14.953 -0.0788  0.0454  0.0715
22784W        W38593   9.895  10.095   4.670  0.1177 -0.4763  0.0435
22785W        W38594  17.560  17.578   5.386 -0.0533 -0.1150 -0.0892
22786W        W38595   7.477   9.210   5.821  0.0842 -0.1770 -0.0538
22787W        W38596  13.919   5.921   2.868  0.0157 -0.0181 -0.1905
22788W        W38597  17.740   3.784   0.895  0.0668 -0.0098  0.0298
22789W        W38598   0.865  14.955   4.869  0.1262  0.2225  0.0356
22790W        W38599  15.594  10.294   4.900 -0.1706  0.1878  0.0533
22791W        W38600   9.533   0.713   4.663  0.1767 -0.1727 -0.1061
22792W        W38601  11.405  10.379  15.751  0.0470  0.0088  0.1898
22793W        W38602   4.808  16.984  11.944 -0.0587  0.2452  0.1720
22794W        W38603   5.444  18.347   3.356 -0.1603  0.2327  0.2321
22795W        W38604  17.061   1.062   1.179 -0.0944  0.4966 -0.0455
22796W        W38605   9.958   3.418   0.433 -0.0656 -0.0227  0.0876
22797W        W38606   3.195   3.852  13.677 -0.3598  0.0063 -0.1656
22798W        W38607   6.028   6.713  14.916 -0.1838  0.0290 -0.2343
22799W        W38608   5.126  18.018  10.573  0.0934  0.1042  0.0969
22800W        W38609   4.784   4.367   3.588 -0.1617 -0.1443  0.2131
22801W        W38610  16.741   2.005   1.334 -0.1206 -0.0224 -0.0695
22802W        W38611  16.647  15.927  13.781 -0.1812  0.1379 -0.2839
22803W        W38612   3.067  11.890   6.148  0.0506 -0.0276 -0.0035
22804W        W38613   0.497  10.600  13.261 -0.1616 -0.0804  0.0091
22805W        W38614  12.510   2.024  14.421 -0.0239  0.0214 -0.2185
22806W        W38615   2.426  13.293  11.972 -0.1968  0.0278  0.1826
22807W        W38616  15.283  10.986  15.545  0.0205  0.0718 -0.2251
22808W        W38617  17.130  10.845   3.135  0.0722 -0.3853 -0.2417
22809W        W38618  11.719   4.615  10.897  0.2409  0.1236 -0.0098
22810W        W38619   9.551   7.996   4.923 -0.0995  0.1045 -0.1559
22811W        W38620  16.507   8.829  15.119 -0.1288 -0.1465  0.1450
22812W        W38621   8.902   1.771  13.420 -0.2747  0.4035 -0.0017
22813W        W38622   5.189   3.559   5.654 -0.5731 -0.0402  0.2302
22814W        W38623  15.472  13.729  11.320  0.2120 -0.0878 -0.2669
22815W        W38624  13.001  17.892   2.852 -0.0482  0.0697 -0.0595
22816W        W38625   5.456  14.226   4.435  0.0941  0.0117  0.3124
22817W        W38626  16.289   7.795  11.737 -0.1323  0.0874  0.3501
22818W        W38627  12.502  11.894   4.374 -0.0984  0.5120  0.1679
22819W        W38628   8.985   6.148   5.617 -0.1244  0.1979  0.4550
22820W        W38629  16.664  17.325   2.099  0.0119 -0.0771  0.2080
22821W        W38630  13.550  14.796   2.623 -0.3698 -0.0044  0.0232
22822W        W38631  13.025  11.051  14.973 -0.2171 -0.1925 -0.3373
22823W        W38632  11.134   9.126  14.821  0.1188  0.0514 -0.3065
22824W        W38633   0.251   4.748  14.465 -0.0254  0.2491  0.3420
22825W        W38634   6.505   4.759   1.158 -0.1867  0.1061 -0.0640
22826W        W38635  11.157  12.285   5.240 -0.1188  0.0837 -0.3702
22827W        W38636   4.480   8.683   2.273 -0.1407 -0.1465  0.0577
22828W        W38637  16.523   6.193  15.157 -0.0424  0.0917  0.1891
22829W        W38638  13.998   7.003  12.977  0.0257 -0.1313 -0.3570
22830W        W38639  16.522  12.992  11.768 -0.2781  0.0500 -0.1761
22831W        W38640  14.167   7.532   1.961  0.2639  0.1196  0.3380
22832W        W38641  12.599  16.027  13.858 -0.0862  0.1891  0.3063
22833W        W38642   2.766   3.159  14.256 -0.2171  0.0453  0.2159
22834W        W38643  13.527  18.002  10.417 -0.2397 -0.2232 -0.3345
22835W        W38644   8.578  12.750   3.465  0.2075 -0.3360 -0.2993
22836W        W38645  15.589   5.674  13.783  0.1793 -0.1811  0.0354
22837W        W38646  16.416   2.320  15.663 -0.1926  0.3906  0.1645
22838W        W38647  17.172  17.482   4.216 -0.1589  0.1393  0.0916
22839W        W38648   1.801   7.363   1.266  0.1883 -0.0245 -0.3040
22840W        W38649  12.620   9.336  14.229  0.0854 -0.1673 -0.3576
22841W        W38650  15.211   6.351   3.298 -0.1301  0.0906 -0.1526
22842W        W38651  12.178  12.564  13.593 -0.1491 -0.1900  0.3500
22843W        W38652   8.951  17.693   3.379 -0.1815 -0.0683 -0.1066
22844W        W38653  17.441   5.739   2.877 -0.0800 -0.1471  0.0412
22845W        W38654   0.343  11.228  12.588  0.1339  0.0439  0.0867
22846W        W38655   8.550   7.279  12.267 -0.0776 -0.0573 -0.3181
22847W        W38656   4.167   5.474   5.172  0.0411  0.2570  0.1253
22848W        W38657   0.136   3.321  15.625 -0.1290 -0.0644 -0.0606
22849W        W38658   1.673   6.779  10.611  0.2141  0.1951  0.3537
22850W        W38659  17.362   6.744  11.216 -0.1294 -0.0101 -0.0442
22851W        W38660   2.192   2.212   3.216 -0.2052  0.2467 -0.0709
22852W        W38661   2.389   4.847  12.795  0.0695  0.1745 -0.2257
22853W        W38662   7.539   9.472  11.575  0.0751  0.0895 -0.1322
22854W        W38663   8.475  11.260  11.265 -0.1977  0.1043  0.0253
22855W        W38664   0.118  13.497  15.351  0.2608 -0.1224  0.2136
22856W        W38665  17.729   2.658  11.355 -0.1687 -0.0528 -0.0526
22857W        W38666  15.653   9.810  13.149 -0.0722  0.1116 -0.0322
22858W        W38667   3.292   3.133   5.299 -0.3620 -0.0261  0.0035
22859W        W38668   2.989   4.698  13.201 -0.0911  0.5802 -0.0382
22860W        W38669  11.137  17.375   1.817 -0.2046 -0.0615  0.0274
22861W        W38670   6.087   5.728   2.480 -0.2991 -0.2097  0.0895
22862W        W38671  14.304  17.413  10.535 -0.0411 -0.2099  0.2308
22863W        W38672   2.576   9.335  14.857  0.2526  0.3292  0.0807
22864W        W38673  12.297  10.938   5.343  0.3165 -0.1850 -0.4950
22865W        W38674  17.079   3.110   2.886  0.1452  0.1667  0.3437
22866W        W38675  14.436   3.932  11.369  0.0156 -0.0351 -0.1029
22867W        W38676   0.199  17.210  15.113 -0.0092  0.1289  0.1893
22868W        W38677  18.297  16.685   5.877  0.0791  0.0454 -0.0622
22869W        W38678   0.228  15.035   3.264  0.0978  0.1006 -0.1487
22870W        W38679   3.791  16.010   0.834 -0.1784 -0.1708  0.0294
22871W        W38680   6.887   1.825  12.397 -0.1433  0.1246 -0.0583
22872W        W38681   5.240   8.991  14.065  0.0205  0.0321 -0.1069
22873W        W38682   1.608   6.305  10.890  0.1089 -0.2941  0.2723
22874W        W38683   1.967  13.219   5.023 -0.4914  0.1222  0.1400
22875W        W38684   8.077  16.235   4.052  0.3632  0.0743 -0.0859
22876W        W38685  18.039   2.025   1.715  0.0457 -0.0383 -0.3747
22877W        W38686   3.698  12.012   1.230  0.4108 -0.2834 -0.3520
22878W        W38687   6.071   3.676  14.506 -0.4658 -0.1155  0.0604
22879W        W38688   1.109   6.872  11.731 -0.0374 -0.0763 -0.1557
22880W        W38689  18.326   1.506   2.121 -0.1129 -0.0384  0.1059
22881W        W38690   6.106   2.408   2.927 -0.1839 -0.1477  0.1352
22882W        W38691  10.442   6.372  12.283 -0.0974  0.2905  0.3421
22883W        W38692   9.942  12.755  13.455  0.0582  0.0101  0.1319
22884W        W38693  12.756  10.021   1.338 -0.0701  0.1346  0.0104
22885W        W38694   2.215   1.820  12.038  0.2522  0.1639  0.1333
22886W        W38695  17.761  11.042  10.769  0.2126  0.1664 -0.2170
22887W        W38696   5.659   3.930   3.025  0.2295  0.4026 -0.1160
22888W        W38697   6.567   4.781  10.754  0.0237 -0.2633  0.2814
22889W        W38698   4.964  11.010  12.209 -0.4332 -0.3205  0.1552
22890W        W38699   1.462   9.909   3.079 -0.0947  0.0331  0.1985
22891W        W38700  13.443   7.086   2.617  0.0672  0.0535  0.3030
22892W        W38701  18.219   2.815  12.899 -0.2914 -0.3777 -0.0998
22893W        W38702   9.079   1.956  11.315 -0.1270 -0.0285  0.2084
22894W        W38703   5.145  10.717   1.857 -0.0045  0.0909  0.1777
22895W        W38704  10.794  14.080   4.239 -0.1294 -0.3598  0.1171
22896W        W38705  15.980   9.465   0.930 -0.4547 -0.1257 -0.2007
22897W        W38706   5.874  15.890   5.032  0.0091  0.0229 -0.0270
22898W        W38707   9.723   3.656  11.754 -0.0750  0.1106 -0.1429
22899W        W38708   6.191  10.463  13.244  0.0520 -0.0916  0.2444
22900W        W38709   3.069   6.363  13.650  0.2191  0.0415 -0.0319
22901W        W38710   1.204   0.385   1.982 -0.3377  0.3026  0.1625
22902W        W38711   2.437   3.289   4.573 -0.0490 -0.0265  0.0148
22903W        W38712  12.663  12.966   1.111  0.3123 -0.0229 -0.1216
22904W        W38713   6.449   9.655  12.411 -0.1353  0.0076  0.1814
22905W        W38714   2.722   5.434   4.839  0.0157 -0.0782  0.1826
22906W        W38715   0.820  13.649  12.603 -0.0583 -0.2305 -0.0538
22907W        W38716   8.972  17.841   0.429 -0.0799 -0.0086  0.0574
22908W        W38717  11.286   3.541  14.153 -0.0210  0.1082  0.5152
22909W        W38718   2.120   9.892   1.655  0.3078 -0.0229 -0.0719
22910W        W38719  12.913   4.368  12.402 -0.2172  0.6639 -0.1228
22911W        W38720  16.971   2.577   3.176  0.4967 -0.1083 -0.2382
22912W        W38721   2.600  17.786   0.900  0.0365  0.1260 -0.1776
22913W        W38722  17.028  12.057  12.618 -0.0526  0.1543  0.0163
22914W        W38723   7.041   4.756   5.681  0.2319  0.2519  0.0590
22915W        W38724   1.988  18.052  12.223  0.1805 -0.0682  0.1426
22916W        W38725  16.094  14.506  13.094  0.2121  0.0045  0.1414
22917W        W38726  14.379  14.883  13.073 -0.1213 -0.2430 -0.3267
22918W        W38727   6.109   1.368  15.046 -0.0100  0.2407  0.0307
22919W        W38728  11.414   1.797   4.813  0.1460  0.3223 -0.2602
22920W        W38729   7.261  14.873   4.877 -0.1820  0.0212  0.0179
22921W        W38730   4.540  16.423   0.391 -0.1067 -0.1223 -0.1598
22922W        W38731  12.573   7.546  11.415 -0.0674 -0.2079 -0.0216
22923W        W38732   9.433   8.852   1.946  0.1692  0.2086 -0.2161
22924W        W38733  11.182   5.511   0.120  0.1177  0.2474 -0.0340
22925W        W38734  10.464  17.317   2.038 -0.1235 -0.3154 -0.1687
22926W        W38735   4.688  10.662   4.173  0.0140 -0.5347  0.2726
22927W        W38736  10.463   4.055  13.571 -0.4935 -0.1086  0.0854
22928W        W38737   2.729  15.605  11.675  0.1467  0.3720 -0.0857
22929W        W38738  18.608  10.778   2.314  0.1042  0.0370 -0.0636
22930W        W38739  14.349   8.662   2.717 -0.1365  0.0884 -0.1917
22931W        W38740   5.923  11.809   0.855  0.4110 -0.0679 -0.2292
22932W        W38741  10.741  16.293   4.731 -0.0207 -0.0366  0.1517
22933W        W38742   4.325  12.675  12.114  0.0978 -0.0319  0.2794
22934W        W38743  14.743  15.895  12.637 -0.0912 -0.1226 -0.0830
22935W        W38744   2.725   2.130   4.851 -0.0842 -0.1090 -0.1520
22936W        W38745   0.733  13.426  14.150  0.0964 -0.3212  0.2417
22937W        W38746  16.930   2.589   2.576  0.0022  0.2867 -0.0473
22938W        W38747   0.230   2.029  15.592 -0.1593  0.0545  0.0630
22939W        W38748  12.045   5.995  11.611 -0.4866 -0.1087  0.5185
22940W        W38749   5.428   8.149  12.391 -0.0470 -0.2456 -0.0108
22941W        W38750  13.849   2.375   3.800 -0.3281 -0.0481 -0.2649
22942W        W38751  17.493  10.627   5.253 -0.1035  0.0405 -0.1423
22943W        W38752  15.232   8.051  11.933 -0.0803  0.0668 -0.2750
22944W        W38753   3.093  10.584  12.891 -0.0730 -0.1652 -0.0609
22945W        W38754   5.015  13.592   3.238  0.1499  0.1273 -0.0973
22946W        W38755   1.181   0.259  13.714 -0.3663 -0.2909  0.2721
22947W        W38756   6.033  11.889   9.896  0.0470 -0.2792  0.2415
22948W        W38757  12.660  13.496   2.321  0.2324 -0.0515  0.1771
22949W        W38758  12.353  13.123   1.556 -0.1494  0.2631 -0.2023
22950W        W38759  17.519  10.240   4.683  0.0282  0.2212 -0.0034
22951W        W38760  12.291   9.983  13.005  0.1436 -0.3115  0.1267
22952W        W38761   8.615   5.297  12.043 -0.0347  0.3115  0.1156
22953W        W38762  18.468   3.967  10.730 -0.3112 -0.0512  0.1340
22954W        W38763   4.025  15.812   1.597 -0.1894 -0.4115  0.2049
22955W        W38764   5.215  13.977   2.638  0.2812  0.1948 -0.0415
22956W        W38765   9.442  11.568   1.941  0.0692  0.0765  0.1571
22957W        W38766   6.300   9.031   0.276 -0.0312 -0.1481 -0.1674
22958W        W38767  11.489   2.912   1.298  0.0581 -0.2945  0.1116
22959W        W38768   5.307   9.728  11.620 -0.2552 -0.4229 -0.0362
22960W        W38769   8.110   8.579  13.650 -0.2796  0.1327  0.1453
22961W        W38770  13.404   1.943  11.684  0.0427 -0.0648  0.1303
22962W        W38771   3.480   7.041   2.793  0.0540 -0.0662  0.0829
22963W        W38772  18.655   8.820   1.131  0.1004  0.0306  0.0978
22964W        W38773   0.209   5.417   5.380 -0.4267 -0.0042  0.2381
22965W        W38774  16.526  10.622   4.445  0.0317  0.1722 -0.0554
22966W        W38775  12.703  16.557   2.707 -0.4887 -0.0481 -0.4002
22967W        W38776  13.335   2.305  10.908 -0.0424  0.1613 -0.0155
22968W        W38777  10.905  18.080  10.614 -0.0279  0.0532 -0.0338
22969W        W38778  17.105   6.019   0.879 -0.0786  0.1111  0.0836
22970W        W38779   5.164  12.288   0.035  0.1935 -0.3531 -0.1517
22971W        W38780   2.548  16.908  14.818 -0.2560  0.3912 -0.0516
22972W        W38781   9.172   7.377  14.713 -0.3644 -0.2255 -0.1968
22973W        W38782   1.984  15.368   4.217 -0.1732 -0.1779  0.1197
22974W        W38783  18.147   8.873  11.488 -0.1872 -0.4996 -0.3597
22975W        W38784   2.607   1.347   3.240 -0.0154  0.1420  0.0868
22976W        W38785   2.293  13.008   3.745  0.0425  0.0711 -0.1755
22977W        W38786  16.605   7.500   4.817 -0.0563  0.0676  0.1482
22978W        W38787   7.296  12.176   4.453 -0.1901 -0.0972 -0.0442
22979W        W38788  15.423   2.187  11.494  0.0800  0.1257 -0.0302
22980W        W38789   2.962  12.757   2.611  0.2165 -0.0599  0.0911
22981W        W38790  15.769   7.783  15.288 -0.3365 -0.0331  0.1136
22982W        W38791   8.754   8.216  14.240 -0.1779 -0.2553  0.1863
22983W        W38792  10.310   2.285  13.340  0.1940  0.1005  0.3401
22984W        W38793   0.059   6.159   4.728 -0.0993 -0.0229 -0.0619
22985W        W38794   4.445  11.016  14.064  0.2393 -0.2081 -0.0181
22986W        W38795   3.127   9.304   0.880  0.0353  0.0150 -0.0249
22987W        W38796   7.773  16.660   1.906 -0.1227  0.0864  0.0679
22988W        W38797   6.960  10.180   0.184  0.1184  0.0777  0.0006
22989W        W38798   3.087  18.138  14.534 -0.2143 -0.2108  0.0386
22990W        W38799   2.675   7.981  14.515  0.0786  0.3020  0.3799
22991W        W38800   4.080   1.283   1.268  0.0171  0.0937  0.0056
22992W        W38801   2.174   4.711   0.392  0.0643  0.2617 -0.0304
22993W        W38802   8.627   4.046   3.601 -0.3327  0.0021 -0.3636
22994W        W38803   7.831  16.823   0.813  0.1908 -0.0840 -0.2473
22995W        W38804  16.505  11.580  12.032  0.2036 -0.2868 -0.1054
22996W        W38805  10.485   9.695  15.089  0.0557 -0.3696 -0.0884
22997W        W38806   0.402   2.885   0.037  0.1827 -0.0550  0.0699
22998W        W38807   3.788   6.739  13.044  0.1278  0.2309 -0.0122
22999W        W38808  15.269   2.156  15.035 -0.2684  0.0826 -0.0036
23000W        W38809  15.148   9.808   3.635  0.0148  0.0381 -0.1326
23001W        W38810   4.822   8.060   1.270 -0.1978 -0.0173 -0.1530
23002W        W38811  15.683   1.986  11.114  0.2546  0.1709 -0.0903
23003W        W38812  13.623   1.555  12.950 -0.1534  0.1708 -0.3573
23004W        W38813  11.080  16.975  14.575 -0.0412 -0.1589  0.0564
23005W        W38814   8.024  13.822  11.123  0.1557  0.1678 -0.2171
23006W        W38815  12.659   4.572  12.815 -0.0208  0.0136  0.3590
23007W        W38816   3.375   0.710  10.833  0.0061  0.1576 -0.1077
23008W        W38817   3.296  16.968   5.551 -0.1613 -0.0495 -0.0006
23009W        W38818   7.610   8.665  15.479  0.1995 -0.1835 -0.0464
23010W        W38819   2.687   0.659  15.583 -0.2481 -0.0190 -0.1165
23011W        W38820   9.120  16.090  14.498  0.1059  0.1147 -0.4972
23012W        W38821  14.809  15.465  14.343 -0.3644 -0.1317  0.3141
23013W        W38822   8.027   5.112  14.172 -0.2021  0.3447  0.3236
23014W        W38823   4.284   1.776   1.516 -0.4263  0.0403  0.1291
23015W        W38824   4.265   2.204  14.726  0.2298 -0.4436 -0.2051
23016W        W38825   0.912  11.611   4.997  0.0940 -0.2954  0.2528
23017W        W38826   3.262  11.861   1.027  0.0539  0.1066 -0.3816
23018W        W38827   3.688   1.986   0.694  0.1910  0.0808 -0.0355
23019W        W38828   9.097  12.555   3.540 -0.3582 -0.0744 -0.0202
23020W        W38829   2.131  14.636   1.027 -0.0114 -0.0437 -0.0535
23021W        W38830   6.169  17.735  14.959  0.1650  0.1835 -0.1552
23022W        W38831   9.807   9.769   5.438 -0.1196 -0.1418  0.2069
23023W        W38832   1.649   4.936   5.039 -0.2928  0.1859 -0.0414
23024W        W38833  15.688   5.131  13.735 -0.4088  0.2723 -0.3608
23025W        W38834   1.101   0.706  11.741  0.1187 -0.1361  0.0439
23026W        W38835   5.063   1.178   4.348 -0.2567  0.0669  0.0741
23027W        W38836   5.903   3.400   0.907  0.0801  0.2689 -0.0846
23028W        W38837  17.408  16.052   1.324 -0.0063 -0.2964 -0.0046
23029W        W38838  15.049   7.101   2.766 -0.1850 -0.3065  0.0053
23030W        W38839   1.832  14.891   1.502 -0.0908  0.0459 -0.0297
23031W        W38840   9.363   5.779  11.594 -0.0980  0.0608 -0.0753
23032W        W38841   0.772   2.108  14.702 -0.0187 -0.1456  0.2138
23033W        W38842  14.224   9.752   3.246 -0.0581 -0.0246  0.0222
23034W        W38843  12.941  17.106   4.048 -0.1781 -0.0359 -0.4889
23035W        W38844  11.023  10.466  11.208  0.4110  0.1143 -0.1664
23036W        W38845  12.542  14.532   3.326  0.1835  0.0663  0.1344
23037W        W38846   6.565   1.516   4.005  0.1792 -0.0382 -0.2161
23038W        W38847  13.740  17.432   0.505 -0.1018  0.1207  0.1178
23039W        W38848   7.965   8.794   0.098  0.0553  0.3611 -0.0523
23040W        W38849   2.555  12.436  15.273  0.3760  0.1699  0.3180
23041W        W38850   7.262  16.950   0.589 -0.0354  0.0337 -0.0266
23042W        W38851  11.072   1.745   2.781  0.2187  0.0345  0.1961
23043W        W38852  16.407   2.724  14.007  0.2182  0.2489 -0.1408
23044W        W38853   4.237   7.741  11.511 -0.0082 -0.1618 -0.2983
23045W        W38854   0.850  13.993   9.808 -0.1633 -0.1390 -0.2730
23046W        W38855  15.681   5.852  12.387 -0.4418 -0.2450  0.0089
23047W        W38856  14.420   8.292  13.512  0.0822 -0.0246 -0.0360
23048W        W38857   6.371   2.815   3.100  0.0392 -0.0957  0.1853
23049W        W38858   3.616   2.963  13.526  0.3638  0.1420 -0.0593
23050W        W38859  10.583  15.465   2.231  0.0796  0.3210  0.0304
23051W        W38860  16.844  17.061  15.171 -0.0549 -0.0794  0.1473
23052W        W38861  14.543   1.904   5.202  0.2797  0.1010 -0.3738
23053W        W38862  10.282  15.468   0.230 -0.0796 -0.1323  0.1382
23054W        W38863   6.686   6.251  14.996 -0.0647 -0.4995 -0.1214
23055W        W38864  17.447   1.327   4.507 -0.0242 -0.0840 -0.0383
23056W        W38865   7.150   9.082  13.703  0.1260  0.0581  0.0470
23057W        W38866   8.774   0.359   2.723  0.1909  0.0513 -0.1714
23058W        W38867  15.485  14.010   1.745  0.0642 -0.0908  0.1525
23059W        W38868   3.494  10.536   5.062 -0.3047 -0.0097  0.2700
23060W        W38869   4.705   9.643  11.965  0.1141  0.0821 -0.0718
23061W        W38870  16.496  17.531  10.455 -0.2371  0.1508  0.3612
23062W        W38871   0.131  10.615   5.184 -0.2668  0.0037 -0.1587
23063W        W38872   4.052   7.634  14.101 -0.0491  0.3360 -0.0467
23064W        W38873  17.926  15.520   0.429 -0.1822  0.0992 -0.2923
23065W        W38874  14.027   4.095   3.500 -0.0381 -0.2316  0.0447
23066W        W38875   0.474   8.957  14.532  0.0078  0.3893 -0.1969
23067W        W38876  12.163  13.620  14.715 -0.1036 -0.2865 -0.0974
23068W        W38877  18.640   7.712  11.627 -0.2959  0.1202  0.0920
23069W        W38878  11.790  14.411  15.743 -0.1863  0.0392  0.2031
23070W        W38879  13.458  13.560   0.894  0.1597  0.2758  0.0059
23071W        W38880  11.406   0.854  10.736 -0.0631 -0.0670  0.1137
23072W        W38881  10.352   2.729  13.088  0.1429  0.1295 -0.2827
23073W        W38882  18.378  17.720   3.680 -0.1341 -0.0630 -0.2682
23074W        W38883  17.474   5.616   5.483  0.3458 -0.1745  0.1196
23075W        W38884   1.882   3.246   4.337 -0.0056 -0.3387  0.0842
23076W        W38885  11.277   5.865  12.077 -0.2189  0.0737  0.1411
23077W        W38886   3.746  17.924  11.639 -0.0463  0.3067 -0.0332
23078W        W38887  14.351  10.978  11.897  0.2624  0.4003 -0.2016
23079W        W38888   9.356  11.266  14.128 -0.3325 -0.0774 -0.1355
23080W        W38889  17.693  10.838   1.642 -0.1297  0.1168 -0.3564
23081W        W38890   7.146   4.604  12.983 -0.1182 -0.2146  0.5026
23082W        W38891  15.661  14.484  15.199 -0.1854 -0.1065 -0.2312
23083W        W38892   2.330  13.193  12.469  0.2999  0.2036 -0.1372
23084W        W38893  10.820  16.777   4.445 -0.0722  0.1103  0.3514
23085W        W38894  13.066  15.748  12.082 -0.1868  0.0307 -0.0680
23086W        W38895  12.181   2.580   1.336  0.3299 -0.2989  0.0960
23087W        W38896  15.691   1.302  13.985  0.0219 -0.1627 -0.0545
23088W        W38897  13.957   2.209   1.841  0.3335  0.0235 -0.0850
23089W        W38898   7.891  12.704  12.875 -0.2249  0.0757 -0.0550
23090W        W38899  10.524   0.256   1.082  0.2278  0.1255  0.0442
23091W        W38900   6.566   5.761  15.118 -0.5374  0.0213  0.1866
23092W        W38901   2.584  15.410  11.264  0.2560  0.1004 -0.2150
23093W        W38902  10.175   7.711   3.554  0.0627 -0.1292 -0.2569
23094W        W38903  10.162  13.308  14.190  0.0414 -0.2681  0.2775
23095W        W38904  10.816  16.460   3.300  0.2196 -0.2896 -0.1909
23096W        W38905  14.283  10.735   3.942 -0.1815  0.3944 -0.0454
23097W        W38906  18.510  14.815   3.470 -0.0929  0.2452  0.2157
23098W        W38907  16.120  14.708   0.364 -0.2313  0.1948  0.0851
23099W        W38908  10.926  16.091   1.277  0.2023 -0.2967 -0.2131
23100W        W38909   1.764  13.794   4.649  0.0956  0.0991  0.1643
23101W        W38910  16.436   2.247  14.358  0.0643 -0.1912 -0.1147
23102W        W38911   4.122   5.973  13.702 -0.3649 -0.1853  0.3156
23103W        W38912  10.669  18.482  10.939 -0.1777 -0.1272  0.0282
23104W        W38913   9.048   4.435   0.282 -0.0371  0.0790  0.1527
23105W        W38914  18.540   3.527   3.925 -0.0805 -0.1144  0.0401
23106W        W38915   4.208   4.629   3.467  0.0285  0.2259 -0.3213
23107W        W38916   9.003   4.909  12.028 -0.3652 -0.0744  0.0721
23108W        W38917  18.230  15.337   2.878  0.3224  0.3749 -0.0297
23109W        W38918  13.187  16.958  15.102 -0.2770 -0.3175  0.0750
23110W        W38919  16.275   7.838   2.128 -0.2140 -0.1090 -0.0188
23111W        W38920  18.003   8.455  15.625  0.1883 -0.3484  0.0188
23112W        W38921   8.399   3.850   2.308 -0.0289  0.0719 -0.2792
23113W        W38922   3.798  15.529   0.879  0.2882 -0.1818  0.3124
23114W        W38923  15.025  10.648  14.127  0.0436  0.4364  0.0855
23115W        W38924   5.017  14.824   2.703  0.0033 -0.2321  0.0178
23116W        W38925   4.467   3.255  12.596 -0.4760  0.1720  0.1401
23117W        W38926  17.534  17.056   0.331  0.0595  0.1588  0.0766
23118W        W38927   9.966  17.584   2.372 -0.1721  0.1619 -0.2641
23119W        W38928  18.210  17.911  12.937 -0.0230 -0.2311 -0.2274
23120W        W38929  13.308   4.786  15.357  0.2719 -0.1797  0.2211
23121W        W38930   7.270  16.471  14.665  0.0768  0.1732  0.3394
23122W        W38931  17.559  11.909   2.290 -0.1249 -0.4228 -0.0603
23123W        W38932   5.067  12.425  11.786  0.0931  0.4420 -0.1152
23124W        W38933  13.836   4.143   3.020  0.2736 -0.0762 -0.0762
23125W        W38934  14.923   6.545  12.636  0.3617  0.1207 -0.0418
23126W        W38935   1.646  11.997   1.849 -0.0738 -0.3522  0.2821
23127W        W38936  16.800  16.689  10.971 -0.0302 -0.0240  0.0247
23128W        W38937   7.821  15.411   3.374  0.1178  0.0676 -0.0450
23129W        W38938  17.586  16.315   2.143  0.3306  0.0812 -0.1195
23130W        W38939  14.023   7.488  10.993  0.3991 -0.1880 -0.1860
23131W        W38940  14.367  12.088   1.769 -0.3267  0.1103 -0.1889
23132W        W38941   4.641   7.168   3.080  0.0457  0.3015 -0.0289
23133W        W38942  12.358   1.628   3.704  0.2493  0.1499 -0.1321
23134W        W38943  14.259  15.588   4.441  0.1504  0.4705  0.0432
23135W        W38944  11.144  10.876  10.858 -0.4289  0.2682 -0.3140
23136W        W38945   4.720   2.692   3.243 -0.0792  0.3193 -0.1491
23137W        W38946   7.475   1.093  12.071 -0.0616  0.1942  0.3291
23138W        W38947  10.762  18.457  15.054  0.1000  0.0105 -0.0442
23139W        W38948  10.817   4.553   2.047  0.1029  0.0007 -0.2546
23140W        W38949   0.837   9.887  14.403 -0.0268  0.0353  0.3373
23141W        W38950   9.145  10.373   4.194 -0.2667  0.1018  0.1595
23142W        W38951  14.290   4.032   4.513 -0.1025  0.1196  0.1061
23143W        W38952   3.434   1.505   0.904 -0.0455 -0.0052 -0.2024
23144W        W38953  12.369   0.124  11.039 -0.0994 -0.0409  0.0367
23145W        W38954  10.555   8.682  13.689  0.2784  0.1361  0.2928
23146W        W38955   6.386   7.902  10.884 -0.1780 -0.1298 -0.0499
23147W        W38956  10.024   3.210  13.655 -0.5140 -0.1887 -0.2100
23148W        W38957  17.364   5.534  13.907 -0.2611  0.1023 -0.0944
23149W        W38958   5.667  14.029  12.876 -0.1484 -0.1372  0.0859
23150W        W38959   4.102  12.270   0.453 -0.0433 -0.0433  0.0568
23151W        W38960  16.299  10.443   2.863 -0.1456 -0.1167 -0.1713
23152W        W38961  15.565  15.813   2.870  0.0894 -0.2740  0.0158
23153W        W38962  10.218   3.645  11.879 -0.2251 -0.0864 -0.2499
23154W        W38963  12.213   3.281   5.426 -0.0791  0.2113 -0.0227
23155W        W38964   8.529  10.802  15.506 -0.0379 -0.1972  0.2778
23156W        W38965  13.660  17.101  12.781 -0.0808  0.0148  0.0051
23157W        W38966   5.773  11.370  13.006 -0.1725 -0.1860  0.2201
23158W        W38967   9.557   8.616  12.034 -0.2328 -0.1163  0.0242
23159W        W38968  14.969   2.030   3.170  0.1041  0.0934  0.2510
23160W        W38969   1.874   2.007  10.701  0.0175 -0.0391  0.2880
23161W        W38970   7.479  11.442  13.746 -0.0492  0.0485  0.2474
23162W        W38971   1.839   2.834   0.284 -0.1554 -0.0147  0.2436
23163W        W38972   3.002  14.709   3.588  0.0988  0.1785 -0.2137
23164W        W38973  13.453  17.328   3.722 -0.1626 -0.2432  0.0184
23165W        W38974   0.971   8.775   4.010  0.0449 -0.0418  0.0912
23166W        W38975  16.144   7.571  15.573 -0.2277  0.1343  0.3047
23167W        W38976   0.119   8.161   3.799  0.2642  0.2641 -0.2165
23168W        W38977  17.141  14.585  15.165 -0.4257 -0.1539  0.0844
23169W        W38978  17.156   5.776   3.613 -0.0412 -0.1863 -0.2017
23170W        W38979   6.012  12.551  14.722  0.2467  0.0805 -0.2096
23171W        W38980   2.678   7.373  15.431  0.1422  0.0140 -0.0342
23172W        W38981   0.057   1.815  13.988 -0.0070 -0.2158 -0.0378
23173W        W38982  10.769  13.498   3.727  0.0058  0.2912 -0.2337
23174W        W38983   7.716   1.642   3.767 -0.0780  0.0047 -0.1485
23175W        W38984   5.538   2.649   1.217  0.2721 -0.0366 -0.0543
23176W        W38985  14.906  16.109   0.608  0.1181  0.1986  0.1444
23177W        W38986   1.010   9.015   1.963 -0.3734  0.3984  0.0334
23178W        W38987  18.524  13.563  13.045 -0.0893  0.1123  0.1199
23179W        W38988  10.463  10.876  10.576  0.4758 -0.1570 -0.0595
23180W        W38989  10.897  10.022  11.265 -0.1116  0.0970 -0.1270
23181W        W38990  16.728   3.103  14.244 -0.4841 -0.2822  0.4218
23182W        W38991   8.933   6.494   3.565  0.1501  0.2673 -0.1562
23183W        W38992  13.790  13.346  10.341 -0.0374 -0.0014 -0.0605
23184W        W38993   7.383   9.766  14.784  0.1511  0.0026 -0.0808
23185W        W38994   6.835   7.410  14.431 -0.2465 -0.0568  0.2530
23186W        W38995   0.489   4.035  13.609  0.2369  0.2457 -0.0297
23187W        W38996   0.011   0.430   3.040  0.1321  0.2098 -0.0567
23188W        W38997   0.924  16.971  11.805  0.0382  0.1121 -0.2732
23189W        W38998  12.103  17.665   3.736  0.1196  0.0520 -0.1431
23190W        W38999   4.884  15.624  15.033 -0.1126 -0.0295 -0.2019
23191W        W39000  10.685   2.097  14.993  0.1521  0.2155  0.3765
23192W        W39001  12.856   7.068   3.938 -0.2212 -0.2722 -0.1217
23193W        W39002   2.204  16.134  13.327 -0.0754 -0.0333  0.0410
23194W        W39003  12.981   0.347   0.515 -0.1156 -0.1263 -0.2904
23195W        W39004  10.583  14.338   1.803  0.0903 -0.1443 -0.1922
23196W        W39005  11.868   4.318   4.038  0.1823  0.2611 -0.2191
23197W        W39006  11.175  18.391  14.812 -0.3205  0.1557 -0.4070
23198W        W39007   4.685  12.018  14.485  0.1300  0.3578 -0.1626
23199W        W39008  11.606  13.251  12.745  0.0638  0.0747  0.1669
23200W        W39009  15.447   2.625  14.544 -0.0671 -0.1310 -0.1348
23201W        W39010   6.106  16.704  14.070 -0.1704 -0.2649 -0.0669
23202W        W39011   0.566  15.844  12.851  0.3804  0.0644 -0.0067
23203W        W39012  15.704   3.691  10.868 -0.0048 -0.1147  0.0856
23204W        W39013   9.459   8.208   3.785 -0.1398  0.1775  0.1511
23205W        W39014  17.957  12.115   1.805 -0.1920  0.1547  0.1789
23206W        W39015  10.332   7.947   3.001  0.3673 -0.1969 -0.1689
23207W        W39016  16.061  10.483   5.196 -0.1253  0.0675  0.2356
23208W        W39017   0.953  10.203  15.378 -0.0221 -0.1970  0.0364
23209W        W39018   2.193  18.507  12.154  0.2772  0.2087  0.1320
23210W        W39019  15.450   5.501  15.377  0.0197 -0.1488  0.1088
23211W        W39020  17.366   5.817   0.312  0.0790  0.2177  0.2390
23212W        W39021   7.209  11.472   1.096 -0.3113  0.0581  0.2466
23213W        W39022   8.566   5.250  13.634  0.1971 -0.1351  0.1222
23214W        W39023  11.490   6.534   4.494 -0.2195  0.0589  0.1449
23215W        W39024  14.117   4.705  11.717 -0.1411  0.3454 -0.0540
23216W        W39025   3.794   0.050  14.991  0.2994 -0.0039 -0.1205
23217W        W39026   3.242  13.415   4.989  0.1705  0.1921  0.0339
23218W        W39027  15.298   0.057   2.262  0.0805 -0.1335 -0.0225
23219W        W39028  10.339  14.310  10.975  0.3733 -0.0807  0.1841
23220W        W39029  14.438   9.112   5.592 -0.1615 -0.0656  0.0945
23221W        W39030  14.917   4.925   5.378 -0.0238  0.0668 -0.0395
23222W        W39031   6.461  16.289  12.675  0.2594 -0.2545 -0.0509
23223W        W39032  16.021  15.438   1.431  0.2319  0.0942  0.2636
23224W        W39033   8.809  12.299   4.460 -0.1410 -0.1023  0.2940
23225W        W39034  17.658  15.214   0.838  0.2655 -0.1898 -0.1644
23226W        W39035   3.651   9.824  12.352  0.1722  0.1609 -0.0995
23227W        W39036  15.842   3.466   3.255  0.0263  0.0390 -0.1519
23228W        W39037   2.012  15.724  12.357  0.1227  0.1148  0.0091
23229W        W39038  12.597   0.064   0.296 -0.1418  0.1855  0.0649
23230W        W39039  14.274  16.932  12.236 -0.1054  0.2333 -0.1795
23231W        W39040   3.752  16.990   3.770 -0.0348 -0.1363 -0.2977
23232W        W39041  10.883   4.548  14.892  0.0502 -0.1166  0.4664
23233W        W39042   6.068   7.264  15.349  0.1525 -0.5028 -0.0220
23234W        W39043   7.525  10.241  12.637 -0.3919 -0.2277  0.1085
23235W        W39044   1.313  12.445   4.590 -0.3561 -0.0072 -0.1155
23236W        W39045   3.258  12.384  13.371 -0.2577 -0.0394  0.3849
23237W        W39046  16.801  17.829  15.046 -0.0386  0.0394 -0.0097
23238W        W39047  17.990  10.303  13.523 -0.2991 -0.1568 -0.1995
23239W        W39048  16.048  13.641   4.547 -0.2944 -0.3617 -0.1503
23240W        W39049   3.556   8.462   2.207 -0.1298  0.4541  0.0268
23241W        W39050  13.908  16.325  10.642  0.1020  0.1492  0.1909
23242W        W39051  11.530   4.956  15.546 -0.1163 -0.3178 -0.0054
23243W        W39052   8.059   8.003   5.320  0.0502  0.1886  0.2276
23244W        W39053   3.469   0.692   4.031 -0.0431  0.3134 -0.0861
23245W        W39054   2.895  16.761   4.786 -0.2031  0.1964 -0.1690
23246W        W39055   6.412   1.640   5.061 -0.0076  0.1416 -0.2311
23247W        W39056  12.107   6.163   0.796 -0.1025  0.0815  0.0807
23248W        W39057   6.855   4.575   3.806  0.0257 -0.0268  0.0457
23249W        W39058  15.268  12.892   2.497  0.0198 -0.4363  0.2967
23250W        W39059  10.753   0.280   3.450  0.0506  0.0345 -0.1148
23251W        W39060   6.065  12.251   0.604  0.0321 -0.3306 -0.1470
23252W        W39061   3.836  15.878   3.074  0.1823 -0.1435  0.1302
23253W        W39062   5.370   2.842   3.897  0.1638 -0.0082 -0.0381
23254W        W39063   5.490  15.015   2.749  0.1497 -0.0602 -0.2251
23255W        W39064  10.141   4.875   2.559 -0.0121 -0.0033  0.1481
23256W        W39065   1.187  16.674  10.455  0.2038 -0.1925  0.0231
23257W        W39066  17.212   7.366   4.204  0.1305 -0.1057  0.0639
23258W        W39067   9.335   8.247   3.324  0.0888  0.2153  0.1078
23259W        W39068   3.126   8.155  11.814  0.1658  0.2289  0.0132
23260W        W39069   8.567  16.941  10.696 -0.3124 -0.0128 -0.1838
23261W        W39070   7.254  17.708   3.420  0.0729 -0.2187 -0.0024
23262W        W39071  14.424   7.311   3.241  0.0227 -0.1340 -0.0668
23263W        W39072   5.923   3.433   1.897 -0.2055  0.1260 -0.1067
23264W        W39073   8.104  10.373   5.916  0.1210 -0.0201  0.1947
23265W        W39074  18.607   1.575  11.509 -0.3709 -0.0927  0.0355
23266W        W39075  15.890   2.328  12.823  0.3630  0.0752  0.0596
23267W        W39076  13.272  10.125   9.987 -0.0371  0.3737  0.0206
23268W        W39077   6.794  15.815   2.707 -0.1548 -0.2744  0.0095
23269W        W39078  12.897   8.980  12.439 -0.1210 -0.1206 -0.0874
23270W        W39079  18.297  13.406  11.010 -0.1295  0.0126  0.1605
23271W        W39080  17.911  16.923  12.770 -0.0735 -0.0083 -0.3208
23272W        W39081  16.836  12.127  13.765 -0.2512 -0.0009 -0.1544
23273W        W39082   9.029   4.543  15.134 -0.0243 -0.0598  0.0709
23274W        W39083  12.589   7.111   4.656  0.0520 -0.0217  0.1389
23275W        W39084  10.142   1.397   2.929 -0.1507 -0.3307 -0.0505
23276W        W39085  14.992   6.398   0.686  0.2610  0.1348 -0.1041
23277W        W39086   1.512   7.482   4.028  0.0365  0.1522 -0.0494
23278W        W39087   7.486   0.332  10.325  0.3336  0.1792  0.0589
23279W        W39088   4.619  15.878   2.195 -0.2694  0.0251  0.1033
23280W        W39089   3.955   4.500  14.981  0.5577 -0.0846  0.3938
23281W        W39090   5.742  16.010   0.626  0.0252 -0.1117 -0.1301
23282W        W39091   0.052  10.255   4.255  0.0523 -0.2100 -0.2388
23283W        W39092   9.139   4.397   1.013  0.0691  0.1639  0.2683
23284W        W39093  16.840   0.360   4.193  0.3117  0.1135 -0.0162
23285W        W39094  10.335   6.511   4.296  0.0224  0.0026  0.0269
23286W        W39095   5.944  17.057  12.824  0.3340  0.0424 -0.1510
23287W        W39096   6.770   1.971   2.173 -0.0143 -0.0081  0.0283
23288W        W39097   7.676   8.830  15.002  0.5775  0.0719  0.1087
23289W        W39098  13.632  16.458  12.455  0.0454 -0.2413 -0.0213
23290W        W39099  12.251  15.962   1.674 -0.1977 -0.0622  0.0459
23291W        W39100   8.557  14.684   3.066  0.2890  0.2118 -0.2190
23292W        W39101   2.702   9.192   3.227 -0.1144  0.2033  0.4171
23293W        W39102  17.349   2.093  12.608 -0.0197  0.1432 -0.0176
23294W        W39103   5.432   1.773   4.407  0.0143 -0.2435  0.0073
23295W        W39104   3.203  15.869   0.111  0.0401  0.0702  0.1224
23296W        W39105  16.228   8.435  11.751 -0.0699 -0.0511  0.2622
23297W        W39106  18.258  16.494  13.752  0.2278 -0.0230 -0.0141
23298W        W39107  17.258  11.600  10.486  0.1666 -0.0921  0.0752
23299W        W39108  12.305   2.686   3.236  0.0941 -0.1184  0.1966
23300W        W39109  15.322   3.833   5.878  0.1731 -0.0205  0.0226
23301W        W39110  14.331   2.628  14.757  0.0593 -0.0046  0.0507
23302W        W39111   9.305   5.496   1.611  0.1363 -0.1300  0.2123
23303W        W39112  12.506  10.705   0.647  0.0549  0.1086 -0.0831
23304W        W39113   2.386   6.106   3.250 -0.0528  0.3385 -0.0119
23305W        W39114  17.455  18.444  12.554 -0.1702 -0.2172  0.1612
23306W        W39115   3.036  17.623  14.886  0.0116  0.2837  0.0271
23307W        W39116   5.850  15.965  15.608 -0.0108  0.3157  0.1560
23308W        W39117   3.212   2.746   3.031  0.0584 -0.1570 -0.0140
23309W        W39118  13.054  13.260  14.455  0.0955  0.0320  0.2513
23310W        W39119   1.674  14.469   1.120 -0.0433  0.2691  0.0417
23311W        W39120  14.097  11.010   1.170  0.0771  0.1936 -0.2729
23312W        W39121   2.023  16.779  14.762  0.1180 -0.0862  0.2742
23313W        W39122   8.497  12.261   1.813 -0.2226 -0.0252  0.0107
23314W        W39123  11.979   8.481   3.090 -0.2783  0.0209 -0.1443
23315W        W39124  10.889   8.277  13.928  0.0504 -0.1318  0.0558
23316W        W39125   4.911   5.156  12.300  0.2202  0.0992 -0.0484
23317W        W39126   7.862   3.224  11.394  0.0938 -0.2179 -0.2937
23318W        W39127  15.795  18.030   5.376  0.1393 -0.1640 -0.1038
23319W        W39128   6.931   9.782   2.544  0.2494  0.1865 -0.0178
23320W        W39129  18.439  17.272  14.151 -0.1356 -0.0370  0.2275
23321W        W39130  13.857  12.844   2.080  0.0109 -0.1245  0.3695
23322W        W39131   1.024   9.433   1.748 -0.1875 -0.5803 -0.2059
23323W        W39132  16.006   3.578   0.208 -0.1465  0.4434 -0.1064
23324W        W39133  18.181   4.840   3.663 -0.1613  0.1685  0.2508
23325W        W39134   5.398  16.884   0.037  0.0769  0.1571 -0.0507
23326W        W39135  16.701  17.293   3.904  0.1261  0.0474  0.1540
23327W        W39136   1.702   3.884  14.852  0.4282 -0.1450 -0.1227
23328W        W39137   1.208  11.943   4.681  0.3407  0.1438 -0.1108
23329W        W39138  10.871   9.532  14.786 -0.0784  0.0570 -0.1652
23330W        W39139  10.212  18.404  13.255 -0.2975  0.1120  0.1881
23331W        W39140  11.124  18.115   4.778 -0.3333 -0.3060 -0.2965
23332W        W39141   0.518   8.918   4.719  0.0712 -0.1778  0.1396
23333W        W39142  16.034   3.302  15.346  0.1004  0.0247 -0.1957
23334W        W39143  14.535   9.927   4.995  0.1848  0.0431 -0.2229
23335W        W39144   6.450   6.965   3.825 -0.0193 -0.1087 -0.1402
23336W        W39145   8.056  17.712  14.019  0.0616  0.0208  0.0561
23337W        W39146   7.550   1.498  13.278  0.1019 -0.3851 -0.0492
23338W        W39147   9.434  16.118   0.471  0.0263  0.0164  0.0649
23339W        W39148  15.540  14.386  11.641 -0.1130  0.0172  0.0489
23340W        W39149   0.361   2.842   1.101  0.4031  0.0585  0.0964
23341W        W39150   5.572  11.481   3.258 -0.1900 -0.4042 -0.1055
23342W        W39151  13.555  15.308  14.706 -0.0361  0.1172  0.0533
23343W        W39152  11.547   3.574  10.876  0.1190  0.0805  0.1620
23344W        W39153   1.187  11.846  15.326 -0.0570  0.3607 -0.0425
23345W        W39154  14.111  12.403   2.331  0.2811  0.0671  0.1125
23346W        W39155   9.929  17.633  13.837 -0.2617 -0.0814  0.2884
23347W        W39156  16.308  16.129   4.486  0.1642 -0.2997 -0.0459
23348W        W39157   0.930  16.114   3.581  0.1344  0.0912 -0.1039
23349W        W39158  17.810   0.795  14.975 -0.0438  0.0249 -0.0723
23350W        W39159   4.682  16.617  11.449 -0.3566 -0.0386 -0.0791
23351W        W39160   6.226   7.937   2.955 -0.2986  0.0824  0.0101
23352W        W39161   3.386  16.317  11.643  0.1213  0.0829 -0.0637
23353W        W39162  16.597   6.275   4.647  0.1363  0.0176  0.1190
23354W        W39163   1.296   9.770  11.112  0.1400  0.3436 -0.0826
23355W        W39164   1.741  13.018  14.991 -0.0134 -0.1467  0.0951
23356W        W39165   9.005   3.758   3.544 -0.0034  0.1465 -0.1497
23357W        W39166  11.126  13.725  10.941 -0.0470  0.1928  0.2011
23358W        W39167   5.937  17.784  10.965 -0.1671 -0.2010 -0.2319
23359W        W39168  16.424  13.186   2.379  0.2850 -0.1454  0.0800
23360W        W39169  16.678   8.528   0.694  0.1999 -0.2162  0.2324
23361W        W39170   2.389  13.322   5.304 -0.1682  0.0018 -0.3156
23362W        W39171   5.958  18.555  14.677  0.1228 -0.3218 -0.4240
23363W        W39172   9.948  11.973  12.333 -0.1194  0.2700 -0.0265
23364W        W39173  10.294  16.761  11.610  0.1366 -0.0063  0.1379
23365W        W39174  15.348  10.632  13.747 -0.0924 -0.2235 -0.2647
23366W        W39175   3.701  18.645   5.121 -0.1471  0.2207  0.1047
23367W        W39176   7.835  14.776  14.729  0.1058  0.2769 -0.1082
23368W        W39177  17.753   8.841  12.995  0.0336  0.2591 -0.1495
23369W        W39178   6.263   2.841  15.224 -0.1388 -0.0139 -0.2707
23370W        W39179   7.253   0.869   1.815 -0.0754 -0.0713  0.1118
23371W        W39180  14.364   6.443   1.611 -0.0189  0.1989  0.1849
23372W        W39181  12.083  13.427  13.923 -0.0169  0.0658  0.0819
23373W        W39182  16.229   5.850   0.221  0.0628  0.1946 -0.1221
23374W        W39183  12.214   6.757  12.425 -0.0884  0.0821  0.1916
23375W        W39184   4.184   9.217   0.661 -0.2285 -0.3064  0.1189
23376W        W39185   4.955  11.529  12.216 -0.1416  0.1256  0.1414
23377W        W39186   3.805  10.163  13.797 -0.1053  0.1079 -0.0463
23378W        W39187   6.279   9.524   0.524  0.1190  0.4327  0.3356
23379W        W39188   3.899  17.636  11.202  0.0654  0.0307  0.1119
23380W        W39189   5.799  12.282  12.017  0.0037  0.0876  0.1512
23381W        W39190   4.875  16.450   9.920 -0.2866  0.0900 -0.0415
23382W        W39191   9.799   5.967   0.800 -0.1354  0.2874 -0.3605
23383W        W39192  10.281  17.267   0.124  0.1641  0.1358 -0.0847
23384W        W39193  14.572  16.661  14.182 -0.1851  0.3618  0.0469
23385W        W39194   0.083   0.136   3.607  0.0240  0.0573  0.1034
23386W        W39195   2.357   1.086  11.377  0.1458  0.3124 -0.1042
23387W        W39196   8.442   7.764  12.191 -0.3094 -0.0228  0.0137
23388W        W39197  10.955   8.257   1.875 -0.1842 -0.0543 -0.0214
23389W        W39198  12.941   6.575  14.469 -0.2132  0.1530 -0.2070
23390W        W39199  11.267  12.400  12.846  0.2275 -0.1081  0.1906
23391W        W39200  12.910   7.439  12.173 -0.1245 -0.0760 -0.2269
23392W        W39201  14.001  13.317  14.281 -0.2446 -0.1034  0.0681
23393W        W39202   0.055  10.444  11.932  0.1653  0.2149  0.2601
23394W        W39203   0.501   7.605   4.799 -0.0825 -0.0063  0.0503
23395W        W39204   3.853  11.540  12.020 -0.1943  0.1039 -0.0269
23396W        W39205   1.807   9.769  12.231  0.0886 -0.2173  0.2562
23397W        W39206   6.682   0.699   3.016 -0.0773 -0.0977 -0.2402
23398W        W39207  16.822   5.346   3.517 -0.2600 -0.1084 -0.2344
23399W        W39208  11.676   2.207   2.580 -0.0617 -0.2280  0.0832
23400W        W39209   3.213  17.940   2.611  0.2811 -0.2343  0.0449
23401W        W39210  14.464   2.171  10.851  0.1667 -0.1889 -0.2587
23402W        W39211  10.752  15.901   1.794 -0.2241  0.3125 -0.0621
23403W        W39212   0.098   7.702  12.782  0.0044 -0.3238 -0.0223
23404W        W39213   6.041  14.477  15.668 -0.0028  0.0758  0.0343
23405W        W39214   3.959   2.161  12.373 -0.1083 -0.0330 -0.0448
23406W        W39215   3.828  10.156  14.306 -0.0255  0.0522  0.1505
23407W        W39216  14.130  16.525   1.880 -0.0949 -0.2183  0.0503
23408W        W39217   7.553  14.034   2.060  0.1417  0.0685 -0.2179
23409W        W39218  18.288   4.440  13.353  0.1203  0.3242  0.2193
23410W        W39219  16.992  11.898   4.460  0.0385  0.2474 -0.0086
23411W        W39220   8.991   3.250  11.920  0.1937 -0.1301  0.1948
23412W        W39221  17.137  15.447  12.381 -0.0495  0.2130 -0.1523
23413W        W39222   7.775  17.266   4.678  0.0379 -0.0661 -0.1058
23414W        W39223   4.331   6.272  12.628  0.0863  0.3019 -0.0907
23415W        W39224  13.742   7.214   4.273  0.2575 -0.0962  0.2768
23416W        W39225   4.221   9.787  12.313 -0.3811 -0.1838 -0.0400
23417W        W39226  16.913   8.306   3.559 -0.0252  0.1296  0.1181
23418W        W39227  13.019  15.536   1.399  0.1194 -0.2806  0.0393
23419W        W39228   2.525   4.695   2.052  0.0744 -0.3502  0.2103
23420W        W39229   9.646   2.870  11.197 -0.0863  0.3558  0.0339
23421W        W39230  14.112   4.219  11.607  0.0865 -0.0757  0.1617
23422W        W39231   0.153  17.582   2.788  0.1617  0.0175 -0.0922
23423W        W39232  11.208  16.930  15.320 -0.1071 -0.0055  0.2105
23424W        W39233  17.345   4.845   4.156  0.1568 -0.0348  0.0150
23425W        W39234   7.858  10.599   3.421  0.2331 -0.1278  0.1129
23426W        W39235   5.957  15.986  11.394 -0.2107  0.1767  0.1162
23427W        W39236  13.495   8.280   0.872 -0.1002 -0.2072  0.0506
23428W        W39237   2.895  14.376   2.589  0.1736 -0.2949  0.2322
23429W        W39238   3.370   3.141   4.739  0.0323 -0.1766 -0.0395
23430W        W39239  15.300   0.848   9.629  0.1937 -0.3068 -0.2992
23431W        W39240   6.871  12.165   4.036 -0.0981 -0.0091 -0.1587
23432W        W39241   4.836  17.950   1.541 -0.1277  0.0032 -0.4445
23433W        W39242  14.152   5.443  13.979  0.1215  0.1009 -0.0479
23434W        W39243   5.500  16.386   2.303 -0.2224  0.1803  0.1796
23435W        W39244  14.459  14.023   1.807  0.0904 -0.0531  0.2340
23436W        W39245   8.439   9.214   5.323  0.0662 -0.0602 -0.0596
23437W        W39246  10.596   5.204   5.163  0.0335 -0.0363 -0.0089
23438W        W39247   9.038  10.645  14.764  0.2888 -0.0158 -0.1808
23439W        W39248   8.317  17.223  13.431  0.0654 -0.1121  0.0483
23440W        W39249  11.403   6.564   1.146  0.0332 -0.2446 -0.3132
23441W        W39250   2.528  17.349   5.982  0.0508  0.2823  0.0021
23442W        W39251   9.009   8.592   2.345 -0.1070  0.0524  0.4799
23443W        W39252   1.430  13.635   1.631 -0.1704  0.1399  0.2794
23444W        W39253  13.309   3.637  14.861  0.0467  0.0633  0.3176
23445W        W39254  16.716   7.210   3.695 -0.1028  0.0783 -0.0215
23446W        W39255  16.204  13.977  14.714  0.3002 -0.1821 -0.0318
23447W        W39256   2.040   6.840   4.217  0.1007 -0.4143  0.0083
23448W        W39257   2.221  10.128  13.109 -0.0126 -0.1231  0.1702
23449W        W39258  14.722  12.796   2.013  0.2573 -0.1657 -0.0505
23450W        W39259  12.800   0.258  14.731 -0.1919 -0.4223 -0.1681
23451W        W39260  14.574  10.638   1.068 -0.1832 -0.1382  0.1634
23452W        W39261  18.139   0.795   3.944 -0.0204  0.0149 -0.0428
23453W        W39262  12.516  16.175  14.518  0.4021 -0.2148 -0.1677
23454W        W39263  13.164  18.560  13.681  0.0206 -0.1073  0.0020
23455W        W39264  13.666   8.829  13.234  0.2474  0.1832 -0.3585
23456W        W39265   3.811   3.905   1.127  0.1471  0.2955 -0.0045
23457W        W39266  17.960   9.338   4.740  0.0045  0.2231  0.1285
23458W        W39267   3.763  14.308   1.365 -0.0335  0.0610  0.1266
23459W        W39268   8.193   9.793   0.757  0.0801  0.2177 -0.0398
23460W        W39269   3.240  13.317   0.667  0.2498 -0.1843  0.1311
23461W        W39270   0.747   8.566  10.596 -0.0420 -0.3179  0.1801
23462W        W39271  16.063   2.044   4.037 -0.1012 -0.1599  0.0188
23463W        W39272   0.595   3.339  14.398 -0.2785  0.0142  0.2617
23464W        W39273   3.541   9.389  14.622 -0.0019 -0.2091 -0.3013
23465W        W39274  10.138   2.812  11.051 -0.1863 -0.2511 -0.0021
23466W        W39275  13.992   4.052  11.134  0.0361  0.0597  0.2679
23467W        W39276   9.826   2.220  14.432  0.1123 -0.3279 -0.1862
23468W        W39277  17.363  17.061  13.477  0.0874  0.2097  0.0866
23469W        W39278   8.351  18.338  13.329  0.2282  0.0059  0.0638
23470W        W39279   9.035  17.550  12.966 -0.1071 -0.1956  0.0359
23471W        W39280  15.264  17.293  14.308  0.0559  0.0702 -0.2313
23472W        W39281   6.047   2.774  13.356 -0.2410 -0.0556  0.2860
23473W        W39282   9.985   9.731   4.943  0.1184 -0.0656  0.1816
23474W        W39283  14.140   3.277   0.633  0.2029 -0.4207  0.2694
23475W        W39284   6.602   9.717   4.752 -0.1135 -0.1056 -0.1417
23476W        W39285   1.705   1.009   5.225 -0.2541  0.0795  0.0963
23477W        W39286   5.326  12.569  14.648 -0.0034  0.0370 -0.2562
23478W        W39287   6.410  16.840  12.743  0.3547  0.2550  0.0629
23479W        W39288  18.510   1.131   0.776  0.1087  0.2043  0.5192
23480W        W39289  15.166  11.973  14.314  0.0770 -0.0532 -0.4588
23481W        W39290   8.890   9.470  14.905 -0.1895 -0.0828  0.2215
23482W        W39291  12.009  16.780   4.349 -0.0847  0.0542  0.2980
23483W        W39292  14.837   6.363   3.687  0.0607  0.0809 -0.0526
23484W        W39293  11.340   7.673   1.232  0.0375 -0.2900  0.2604
23485W        W39294   6.129  16.628  13.575 -0.2218  0.2609  0.0735
23486W        W39295  11.730  14.766   2.776  0.4626 -0.0915 -0.2150
23487W        W39296   0.061  11.039  11.935  0.0742  0.4537 -0.1326
23488W        W39297   7.025  10.945   1.028  0.1475  0.0045  0.1566
23489W        W39298  14.813   0.486  11.856  0.2236 -0.1439 -0.2705
23490W        W39299   7.946  17.404  11.496 -0.2198  0.1909 -0.2246
23491W        W39300   6.285   7.357   0.008 -0.2331  0.1419  0.0229
23492W        W39301   7.151   0.532   0.381 -0.1760  0.2008 -0.0634
23493W        W39302  14.419   1.797   4.347 -0.0489 -0.0847 -0.1641
23494W        W39303   6.324  10.466   3.839 -0.2411 -0.2236 -0.3392
23495W        W39304   7.440  12.015   5.418  0.0584 -0.1128 -0.0345
23496W        W39305   5.490   2.488  14.898 -0.1122 -0.0233  0.1777
23497W        W39306   7.074   2.038  11.775 -0.2367 -0.1877 -0.0987
23498W        W39307  14.200   8.798   2.260 -0.2005 -0.2049 -0.1580
23499W        W39308   8.130  11.434   3.413  0.0866 -0.0755 -0.2798
23500W        W39309   5.212   5.264   3.492  0.0973 -0.0181 -0.1715
23501W        W39310   7.454   9.084  13.238 -0.2567  0.1282 -0.0450
23502W        W39311   8.124  13.939   4.992 -0.1594  0.0591  0.5567
23503W        W39312  14.609  14.051  12.458  0.2903 -0.0613  0.0943
23504W        W39313   7.518   8.874  10.795  0.0176  0.1449 -0.1726
23505W        W39314   4.457  16.328   3.696  0.2104 -0.2778 -0.1701
23506W        W39315   0.114  11.684   2.739  0.1274 -0.0224 -0.0151
23507W        W39316   9.768   2.009   3.430 -0.0421 -0.0136 -0.1225
23508W        W39317   7.296   1.208   0.722 -0.2243  0.0537  0.1630
23509W        W39318   1.269  13.875  12.701  0.2636  0.1483  0.1986
23510W        W39319   9.743   0.964  12.454  0.4824  0.2409 -0.1685
23511W        W39320   9.209   4.590  11.678 -0.0810 -0.4281 -0.2734
23512W        W39321   3.691  10.138  13.276 -0.2399  0.0691  0.2221
23513W        W39322   5.794  10.412  15.304  0.0745 -0.0466 -0.0453
23514W        W39323   8.015   1.464   0.180 -0.1603  0.1489  0.0370
23515W        W39324   5.455   9.155   2.196 -0.1433  0.1238 -0.2790
23516W        W39325  15.500  15.795  11.825  0.2494  0.0643  0.0018
23517W        W39326  14.024  12.905   3.442  0.0691  0.0036  0.1579
23518W        W39327   6.763   8.714  14.362 -0.0515  0.1133 -0.3207
23519W        W39328   4.591   3.693   0.154 -0.0496 -0.2261 -0.2063
23520W        W39329   3.209   8.719   5.570 -0.2631 -0.1936  0.2651
23521W        W39330   1.057  10.123  11.964 -0.1071  0.2556  0.3803
23522W        W39331   3.357  11.367  14.935 -0.0494  0.0543 -0.2547
23523W        W39332  16.644   4.019  11.821  0.2706 -0.0742 -0.1010
23524W        W39333  17.438  16.695   4.017 -0.1941 -0.3336 -0.2207
23525W        W39334  16.413   6.783   4.051 -0.1486  0.2287 -0.2474
23526W        W39335   7.980  11.628  14.593 -0.1261 -0.0837  0.2308
23527W        W39336   7.172   1.049  10.774  0.0945  0.2755 -0.0431
23528W        W39337   5.985  10.571  13.699  0.0764  0.1642  0.1091
23529W        W39338  18.546  12.075   2.595 -0.1925  0.0496  0.3494
23530W        W39339   0.599   2.839   2.048 -0.4805  0.0399  0.0550
23531W        W39340  13.011   4.052   4.830  0.0213 -0.2179  0.0781
23532W        W39341   2.833  11.115   1.109  0.2979  0.2366  0.4039
23533W        W39342   4.023  11.840   1.615 -0.2726 -0.3069  0.1250
23534W        W39343  12.020   3.121  13.730  0.1775 -0.0673  0.3341
23535W        W39344   0.583  12.629  12.826  0.2055  0.0238  0.2728
23536W        W39345   0.057   3.763  13.826  0.0963 -0.0247 -0.1235
23537W        W39346   1.951   2.718  13.160  0.0230  0.1545  0.1889
23538W        W39347  17.143   1.201  12.130  0.0925  0.1196  0.0345
23539W        W39348  13.379   2.874   2.241  0.1882 -0.1693  0.4351
23540W        W39349   9.155   8.120   2.070 -0.3433  0.0644  0.1182
23541W        W39350  12.531  10.934   1.154  0.0008 -0.3566 -0.3655
23542W        W39351  13.872   8.328  10.535  0.1433 -0.5487 -0.1305
23543W        W39352   8.413  15.626  14.750  0.0269 -0.1019 -0.0538
23544W        W39353  17.021   9.155  10.847 -0.0231  0.1582 -0.1458
23545W        W39354  16.423   7.022  14.815  0.1522  0.0894  0.0490
23546W        W39355  16.241   7.719   0.371 -0.0807  0.2308 -0.0205
23547W        W39356  17.910  13.299   0.090 -0.0615 -0.1488  0.0523
23548W        W39357  14.119  12.252   4.172  0.3154 -0.1280 -0.2863
23549W        W39358   8.395  14.292   2.170  0.1813  0.0237  0.0017
23550W        W39359   8.321   1.804   0.585  0.1010 -0.1250  0.4166
23551W        W39360  16.431  15.579  10.849 -0.2106 -0.4549 -0.2677
23552W        W39361  11.517  14.300  14.865 -0.1422  0.2746 -0.1175
23553W        W39362   3.069  13.019   1.364  0.1152 -0.2214  0.1170
23554W        W39363   2.524   6.761  13.320  0.0224 -0.1586  0.1294
23555W        W39364  17.321   8.787  12.678  0.1631  0.3666  0.3824
23556W        W39365  17.388  16.622   0.626 -0.0226 -0.2776 -0.2337
23557W        W39366   2.367   0.103   0.704  0.1318  0.0750  0.0980
23558W        W39367  16.015   5.711  13.331  0.0143 -0.0771  0.1442
23559W        W39368  12.661   6.530   5.291 -0.2044  0.1628  0.0803
23560W        W39369   0.461   8.683  11.410 -0.1077 -0.2857  0.0230
23561W        W39370   5.860   6.705  13.553 -0.0598 -0.0936 -0.0186
23562W        W39371  16.728   3.277   0.233  0.0640  0.1944 -0.0612
23563W        W39372   0.257  13.550   1.466 -0.0549 -0.0318  0.0882
23564W        W39373  18.537   9.011   3.532  0.0393  0.1887  0.1199
23565W        W39374   7.503   1.565  15.185 -0.1242  0.0520  0.0637
23566W        W39375  13.329  10.970   5.561  0.3499  0.2679  0.0684
23567W        W39376  15.661  15.324  10.104 -0.1613 -0.0721  0.1107
23568W        W39377   2.627   3.490  15.613 -0.3236  0.1310 -0.0833
23569W        W39378   1.375   7.848   1.241 -0.1215  0.3539  0.0478
23570W        W39379  13.641   5.648  10.797 -0.0455  0.3104 -0.0292
23571W        W39380  13.297  15.887   1.558 -0.0598  0.2448  0.1416
23572W        W39381   6.280  16.211  15.284 -0.3523 -0.0663 -0.2733
23573W        W39382  14.957   8.428   4.855  0.1042 -0.1633 -0.0118
23574W        W39383  15.551   9.979   1.793 -0.1105 -0.0592  0.1699
23575W        W39384  15.373  17.960  10.881 -0.1276 -0.1050  0.1048
23576W        W39385   0.298   3.409  10.207 -0.1363 -0.0941  0.0767
23577W        W39386  17.589   8.737   1.771 -0.1547  0.0526  0.1364
23578W        W39387   6.518  16.385  15.706  0.0773 -0.2168 -0.0085
23579W        W39388   2.781  14.102  14.494 -0.0083 -0.1305  0.1438
23580W        W39389   8.968   2.975  11.495  0.1210  0.1059 -0.1194
23581W        W39390  12.216  14.930   3.232  0.2664 -0.0137 -0.2805
23582W        W39391   0.310  16.603   1.313 -0.4915  0.0616 -0.0943
23583W        W39392  10.684   3.662   2.877  0.2887  0.0639 -0.0423
23584W        W39393   4.893   0.383  13.746  0.3260  0.1337  0.0014
23585W        W39394  16.583  13.662   4.516  0.0783  0.0414 -0.0109
23586W        W39395   6.667  10.910  11.936  0.0233  0.1673 -0.0428
23587W        W39396   7.411   3.459   0.505 -0.1286  0.3079  0.1545
23588W        W39397  15.567  18.487  13.425  0.0639 -0.2083  0.0247
23589W        W39398   6.408   6.106   0.580  0.1482 -0.0640  0.0004
23590W        W39399   7.495  17.403  11.343  0.0253 -0.1815  0.1352
23591W        W39400  12.562  12.174  13.808 -0.1920 -0.0017 -0.2259
23592W        W39401   8.989   3.073  13.857 -0.0125 -0.0621 -0.0135
23593W        W39402  13.190  10.682  12.851  0.0372  0.1876 -0.1864
23594W        W39403  15.162   5.493   3.343  0.0254  0.1933 -0.0374
23595W        W39404   5.282   2.631  12.899 -0.4236  0.1830  0.1240
23596W        W39405  14.071   4.594  12.783 -0.1286  0.0689  0.1578
23597W        W39406  14.383  14.404  12.075  0.2164 -0.0495 -0.1702
23598W        W39407  16.373  10.718   0.394  0.1391  0.1621  0.1362
23599W        W39408   3.365   2.463   3.959  0.3322 -0.1167 -0.0994
23600W        W39409   0.523   5.468  13.768  0.0537 -0.0917  0.0095
23601W        W39410  16.029  12.286   1.985  0.1858 -0.0561  0.1425
23602W        W39411   8.861  14.453  15.096 -0.0038 -0.0361 -0.1540
23603W        W39412  15.846   1.525  15.166  0.0829 -0.0937 -0.0139
23604W        W39413   5.376   0.415   2.893  0.2789  0.0036  0.0688
23605W        W39414   6.763  16.126  13.506 -0.2745 -0.0547 -0.2665
23606W        W39415  11.019  10.473   4.602 -0.1997 -0.1209  0.2614
23607W        W39416  17.651   2.763  12.739  0.0860  0.3015  0.0214
23608W        W39417  15.239  17.514  13.543  0.2758  0.1594  0.1858
23609W        W39418   2.015   6.780  13.578 -0.0872  0.0594  0.2572
23610W        W39419   6.597  11.552  11.485 -0.1380 -0.0536  0.2384
23611W        W39420   6.594   0.687  13.114 -0.0166 -0.0185  0.3770
23612W        W39421   0.249   4.786   5.495  0.1916  0.2671  0.0509
23613W        W39422  10.405  18.571   4.360 -0.0161 -0.2017  0.0701
23614W        W39423  17.122   9.238   5.511 -0.3015  0.1802  0.0268
23615W        W39424  11.319   7.159  12.583  0.1068  0.0941 -0.0433
23616W        W39425  16.006   4.309  12.952  0.4811 -0.0367 -0.1131
23617W        W39426   4.669   4.976   2.494 -0.1006 -0.4335 -0.1384
23618W        W39427   2.102   0.317   5.013 -0.0344  0.0883 -0.2179
23619W        W39428   2.229  11.663   2.529 -0.1739  0.0534  0.2068
23620W        W39429   2.173   4.134   4.703 -0.1596 -0.1385 -0.1680
23621W        W39430   7.261   6.427   0.480 -0.1133 -0.0577  0.0585
23622W        W39431   3.946  11.594  13.643 -0.3031  0.1010 -0.0905
23623W        W39432  16.200   9.260  15.184 -0.2676  0.1034  0.0661
23624W        W39433  13.391   3.732  13.399  0.0762 -0.3305  0.0695
23625W        W39434   0.918  15.699  10.569  0.1270  0.4057 -0.5159
23626W        W39435   5.423   5.489  13.131  0.2402 -0.1443  0.0557
23627W        W39436   7.912  10.871  12.597  0.1720 -0.4057  0.0309
23628W        W39437   4.211  13.454   2.742 -0.0706 -0.0936  0.1190
23629W        W39438  10.500   9.161  13.354  0.1282 -0.2895  0.0258
23630W        W39439  12.321   6.873   0.363  0.3419  0.1524 -0.2527
23631W        W39440   9.529   3.462  14.943 -0.1980 -0.4928 -0.0916
23632W        W39441  17.139  10.512  10.271 -0.3345  0.0693  0.1928
23633W        W39442  17.800  14.054   1.438  0.1745  0.2335  0.1659
23634W        W39443   0.019  13.833   1.881  0.0958  0.2787 -0.0019
23635W        W39444  11.862  11.693   2.506  0.1054 -0.2698 -0.1662
23636W        W39445  16.935  13.362   2.877  0.1243 -0.0614  0.0229
23637W        W39446  13.025  17.345  12.505  0.0610 -0.3156  0.0725
23638W        W39447   5.531   8.112  14.928  0.0161  0.0253  0.0244
23639W        W39448  15.711  12.978  13.450 -0.4501  0.2409 -0.0914
23640W        W39449   3.405   4.633   2.512  0.3637 -0.0891  0.0265
23641W        W39450  14.148   2.756  14.125 -0.0675  0.1682 -0.0288
23642W        W39451  13.231   6.786  12.462  0.1215 -0.0168 -0.2251
23643W        W39452  17.992  12.345   2.249 -0.2407  0.2341  0.0940
23644W        W39453   6.682   5.369  11.501  0.1710 -0.0553 -0.1370
23645W        W39454   4.943   2.341  13.492  0.0923  0.0304  0.0443
23646W        W39455   9.623  14.949  10.932  0.1552 -0.1498  0.3616
23647W        W39456  15.732   0.576  10.975 -0.0860  0.1039  0.2625
23648W        W39457  18.111   6.158   2.660  0.1196 -0.3172  0.2308
23649W        W39458  17.306  14.266  14.824 -0.0106  0.1091 -0.1928
23650W        W39459   2.659  16.831  14.268  0.0465 -0.1014  0.2346
23651W        W39460  18.288   4.824  11.696 -0.4747  0.0547  0.0498
23652W        W39461   1.291  12.768   1.556 -0.2574 -0.0095  0.2420
23653W        W39462   2.103  11.300   3.457  0.1397 -0.1929 -0.3469
23654W        W39463   1.830  10.215   0.049 -0.1652  0.0475 -0.0211
23655W        W39464  15.644   5.667  14.327  0.1163 -0.0672 -0.0621
23656W        W39465  14.527   5.956   3.604 -0.0087 -0.1493  0.1464
23657W        W39466   0.036   2.819   3.203  0.0705 -0.4009  0.1763
23658W        W39467   0.617   2.400   0.762 -0.1213 -0.2249  0.1401
23659W        W39468  15.395   9.646  13.787 -0.2375  0.0180 -0.1534
23660W        W39469   2.043   5.183   4.267 -0.1777 -0.6543  0.1582
23661W        W39470  18.321  15.013  11.699 -0.3102 -0.3076 -0.0830
23662W        W39471   1.246  17.126  12.341 -0.0802 -0.0325  0.2182
23663W        W39472  17.876  10.961   5.215  0.1829  0.1383 -0.1956
23664W        W39473   1.095  13.071   3.691  0.1417 -0.0081 -0.1904
23665W        W39474  14.315  15.629  14.367  0.2277  0.1321  0.0332
23666W        W39475  12.192   2.458   9.841 -0.0826 -0.1031  0.1625
23667W        W39476  15.099  11.646  11.294 -0.0372 -0.0641 -0.1272
23668W        W39477   5.336  11.860  12.121 -0.1116 -0.2450 -0.2009
23669W        W39478  16.711  16.485  10.432  0.0272  0.1690 -0.2795
23670W        W39479  12.618  15.329  14.516 -0.1018 -0.0694  0.2002
23671W        W39480   0.167   1.354   4.140 -0.0418 -0.0731 -0.0447
23672W        W39481  14.032  10.464   1.050  0.0488 -0.1809  0.0635
23673W        W39482   9.957  11.275   1.156 -0.1549  0.3456  0.2993
23674W        W39483   4.346  10.322   3.279  0.0772 -0.2312 -0.1738
23675W        W39484  13.959  14.404   4.530  0.0697 -0.2083  0.0702
23676W        W39485   3.698   6.704   1.049  0.2965 -0.1348  0.1690
23677W        W39486   5.592  10.927   2.178 -0.0030  0.0476  0.1190
23678W        W39487   3.721  11.057  15.137  0.2899  0.1444  0.1950
23679W        W39488   0.776   4.677  15.051  0.2283  0.1204  0.2707
23680W        W39489  18.471  16.196  11.379 -0.2315 -0.0657 -0.2292
23681W        W39490  15.306   3.488   3.404 -0.3008  0.0466 -0.0216
23682W        W39491   4.539   2.211  12.413 -0.2250 -0.1004 -0.0856
23683W        W39492   0.653   9.854  11.938  0.2017  0.0098 -0.0717
23684W        W39493  13.090  17.202   3.113 -0.1016  0.3710  0.1433
23685W        W39494  14.051  10.088  11.517  0.1304 -0.1937  0.4454
23686W        W39495   5.577  18.190  10.807 -0.1942 -0.1682  0.2622
23687W        W39496  17.524  10.039  12.208 -0.0282  0.2204  0.1890
23688W        W39497   8.647   7.421  13.172 -0.2615  0.2920  0.1430
23689W        W39498   8.558   8.019   5.136  0.2092 -0.4556  0.0358
23690W        W39499   7.827   4.385   3.848  0.1000 -0.0565 -0.0931
23691W        W39500   1.931   9.984   6.045  0.0483  0.2838 -0.1218
23692W        W39501   2.716  17.507   4.958  0.0740 -0.0779  0.0838
23693W        W39502   4.823  16.759  14.087  0.3423  0.1735  0.1287
23694W        W39503   4.484   3.749   5.204  0.0062 -0.0435  0.3996
23695W        W39504   9.504  11.504   1.007 -0.1677  0.0305 -0.4248
23696W        W39505  18.057   3.809   0.451  0.1395  0.1949 -0.2899
23697W        W39506   6.807  12.985   1.974  0.0606  0.2758 -0.1373
23698W        W39507   6.956   9.504   0.715  0.0095 -0.1179  0.1053
23699W        W39508  10.444  10.224  15.159 -0.1615 -0.2873  0.2552
23700W        W39509  13.106  13.770  10.674  0.2416  0.3133  0.1686
23701W        W39510  15.321  13.973   2.592 -0.1397  0.4635 -0.1181
23702W        W39511  13.267  11.027  14.450  0.3498 -0.1001  0.1536
23703W        W39512   0.349  16.358   4.451  0.0196  0.0587  0.1483
23704W        W39513   2.474  11.550   4.726  0.0613 -0.1284  0.1123
23705W        W39514  16.350   8.623  12.323  0.0586 -0.0225 -0.0585
23706W        W39515   1.466   3.679   0.305  0.1658  0.0120 -0.1176
23707W        W39516   4.269  15.384   1.464 -0.0930 -0.2961 -0.0153
23708W        W39517  10.159  18.256  12.779  0.0984  0.1500 -0.0925
23709W        W39518  15.805  14.613  13.511  0.1404  0.1393 -0.0596
23710W        W39519  14.519   5.081   4.226 -0.5323  0.0303  0.0060
23711W        W39520  13.440   2.770   5.493 -0.3518  0.1315 -0.4213
23712W        W39521   1.737  10.344  13.551  0.1396  0.2551 -0.1206
23713W        W39522   4.377  14.008  13.722 -0.0071  0.0473 -0.0418
23714W        W39523   0.911  12.985   0.912  0.1010 -0.0515 -0.1614
23715W        W39524   4.781  15.396   0.603 -0.1243 -0.1539  0.0016
23716W        W39525   8.322   0.008   0.705 -0.1312 -0.4308 -0.0071
23717W        W39526   8.651   9.164  10.900 -0.0325  0.1709 -0.2960
23718W        W39527  11.090   1.856  15.057  0.2340 -0.1510  0.0017
23719W        W39528   0.587  18.381   0.571 -0.0465 -0.0388  0.1299
23720W        W39529  16.741   5.355  11.687  0.2854  0.1732 -0.1517
23721W        W39530  10.525  12.340  14.183 -0.1019  0.0760  0.1515
23722W        W39531  12.560   4.881   0.038  0.0100 -0.2714  0.2607
23723W        W39532  11.380   7.309  12.094  0.0716 -0.0385 -0.1588
23724W        W39533   0.135  16.048   0.861  0.0577  0.0533  0.1823
23725W        W39534  15.192   1.107   3.002 -0.1596  0.0670  0.0889
23726W        W39535   7.968   8.770   1.581 -0.1604 -0.1540 -0.1575
23727W        W39536   6.537   3.645  10.567  0.0386 -0.0593  0.3466
23728W        W39537  10.554   5.531   3.061  0.0241 -0.0286 -0.0971
23729W        W39538  14.133   4.724  11.207 -0.1445  0.2597  0.0688
23730W        W39539   7.337  15.069   4.270  0.1294  0.1423 -0.1636
23731W        W39540  13.550   4.185  10.814  0.0137 -0.0322 -0.1086
23732W        W39541   8.039  17.714  11.045  0.2768 -0.3884 -0.2506
23733W        W39542   2.447  16.584  13.129  0.3798  0.2124 -0.0419
23734W        W39543  14.355  11.367   0.421 -0.2974  0.2619  0.0398
23735W        W39544   7.980   3.225  14.344 -0.1033  0.1214  0.2202
23736W        W39545   4.445  17.713  12.635  0.1400 -0.1243  0.4156
23737W        W39546  13.595   3.103  12.967  0.2782 -0.3108 -0.1832
23738W        W39547  15.449  16.988   2.315  0.1410 -0.0303 -0.2734
23739W        W39548   2.554  14.374  10.924  0.0648 -0.3552 -0.1886
23740W        W39549  11.248   3.634  13.608  0.0284 -0.2765 -0.0738
23741W        W39550   8.573  17.259  15.403 -0.0673  0.1428 -0.0098
23742W        W39551   9.949  11.875  15.341  0.0853 -0.2184 -0.0788
23743W        W39552  10.897   5.180  15.607  0.0437 -0.0894  0.1679
23744W        W39553  13.483  10.469   2.515  0.4222  0.1501 -0.0578
23745W        W39554   9.875  10.891   1.465 -0.2446 -0.2189  0.0005
23746W        W39555   0.718  13.062  13.203  0.1123  0.1881 -0.0586
23747W        W39556   4.098  11.658  12.540 -0.1343  0.1372 -0.3365
23748W        W39557  15.081  12.756  15.614 -0.1672  0.1948  0.3161
23749W        W39558   7.425   6.638   1.490 -0.1032 -0.2125  0.1400
23750W        W39559   4.820   8.307  14.567  0.1598 -0.0088 -0.2300
23751W        W39560  18.306   3.514   5.050  0.1834 -0.3530  0.0544
23752W        W39561   6.188   0.497   2.997 -0.3096 -0.0584 -0.0061
23753W        W39562  13.782  12.470   5.088 -0.4316 -0.0854 -0.0568
23754W        W39563   2.815   1.859   0.090 -0.0514  0.1104  0.0048
23755W        W39564   6.943   7.506  15.063 -0.3825 -0.0988  0.0324
23756W        W39565  11.871  10.217  15.514  0.1019 -0.3307 -0.1018
23757W        W39566   2.772  18.128   3.392  0.2048  0.1732 -0.0282
23758W        W39567   0.587  17.730  12.708 -0.0263 -0.2816  0.0563
23759W        W39568  16.486   0.324   3.818 -0.3241  0.0133 -0.1500
23760W        W39569  11.074  10.805   4.146 -0.3860 -0.6599 -0.0076
23761W        W39570  11.595   7.354   2.681  0.0169 -0.2970  0.3628
23762W        W39571  16.993   2.787  13.861 -0.1047 -0.2645  0.2024
23763W        W39572  11.391  13.975   2.004  0.1519  0.6626 -0.1655
23764W        W39573  12.759  15.106  12.998  0.1525  0.3619 -0.1498
23765W        W39574   1.043  10.787   1.105  0.4999  0.0937 -0.2903
23766W        W39575  18.479  17.170   1.604  0.1278 -0.2822 -0.1091
23767W        W39576   8.345   5.606  15.284 -0.0345 -0.3060  0.0061
23768W        W39577  17.271  17.518  13.958 -0.0341 -0.0533  0.0260
23769W        W39578  12.373  15.515   2.463  0.2098 -0.0938 -0.2168
23770W        W39579  14.582   6.189  12.579 -0.0896  0.1796  0.2189
23771W        W39580   8.681   8.284   5.581  0.0085  0.1221 -0.0491
23772W        W39581  16.957   4.569  14.681 -0.1010  0.2263  0.0412
23773W        W39582  16.792  11.368  11.289  0.0389  0.3620  0.0698
23774W        W39583  13.344   6.792  15.545  0.0679  0.2972  0.1349
23775W        W39584   5.914   2.382   3.914  0.0433 -0.2473 -0.2746
23776W        W39585   2.979   0.409   0.326 -0.0718 -0.0620  0.1702
23777W        W39586   7.119  13.511   4.354  0.0004  0.1128  0.1797
23778W        W39587  15.611   3.559  15.198  0.1452 -0.1761 -0.1776
23779W        W39588  16.604   1.517  15.191  0.3080  0.0871 -0.5369
23780W        W39589  16.052  11.604   0.885  0.1270  0.1284 -0.1442
23781W        W39590  10.911   2.325  12.354 -0.3698  0.2671 -0.0131
23782W        W39591   3.346   9.215  14.162  0.1711 -0.1888 -0.1832
23783W        W39592  14.229   4.124  12.950  0.2436  0.0509  0.2705
23784W        W39593  12.975  10.455  11.143  0.1106  0.2430  0.2510
23785W        W39594  18.632  10.388   1.878  0.0541 -0.1190  0.2447
23786W        W39595  15.309  16.069  10.753  0.1759 -0.1677 -0.1070
23787W        W39596   0.682   7.656   3.430  0.2301  0.0735  0.0068
23788W        W39597  16.931   0.451   0.692  0.3284  0.1862 -0.1876
23789W        W39598  10.021  12.781   0.167  0.0430 -0.0271 -0.2268
23790W        W39599  17.998  10.640   3.638 -0.0310 -0.2694  0.0065
23791W        W39600  16.055  14.065   3.825  0.0200  0.0877 -0.0751
23792W        W39601  13.593   6.724   2.949  0.0682 -0.2300 -0.0726
23793W        W39602   7.491   5.161  14.313 -0.1206 -0.2499  0.1593
23794W        W39603   3.964   3.092   3.705 -0.1618  0.3109 -0.0800
23795W        W39604  11.085  10.349   2.890 -0.0424 -0.1285 -0.0011
23796W        W39605   6.540  10.870   5.110 -0.3180 -0.1321  0.3745
23797W        W39606  16.751   1.677   0.877  0.2500 -0.0402 -0.0816
23798W        W39607   9.190  14.633   1.462  0.0586  0.0899 -0.1820
23799W        W39608   3.831   6.238  13.982  0.0371  0.0289  0.0188
23800W        W39609   3.837   3.479   4.650 -0.1889 -0.1387 -0.1841
23801W        W39610  13.155   8.507  11.002 -0.0605 -0.1741  0.2641
23802W        W39611   9.403  10.007   2.565  0.0031  0.1416  0.1286
23803W        W39612   5.594   2.407  12.555 -0.0476 -0.0140  0.0792
23804W        W39613  16.508   1.255   4.266 -0.0985 -0.1751 -0.2451
23805W        W39614   7.989   1.262  14.913  0.1699  0.0865  0.0381
23806W        W39615   4.138   0.062   0.909 -0.3228 -0.2064 -0.0573
23807W        W39616   6.103  16.580   1.216  0.2920 -0.0668 -0.0271
23808W        W39617  11.324   4.104  12.102 -0.0446 -0.0654 -0.0895
23809W        W39618  12.061  15.063  10.602 -0.0985 -0.1986 -0.1907
23810W        W39619   6.972  11.653   3.658  0.1358 -0.2778  0.1082
23811W        W39620  12.721   4.198   2.860  0.2099  0.3592  0.0419
23812W        W39621   4.786  15.338  11.902  0.1368 -0.2764  0.0710
23813W        W39622   6.323   2.013   0.083  0.0062 -0.0599  0.0847
23814W        W39623   6.318  14.643  13.415  0.1131 -0.2161  0.0426
23815W        W39624   6.087  16.541  10.878 -0.0729 -0.1301  0.1365
23816W        W39625  14.926   5.481  15.674 -0.1775 -0.1915  0.2188
23817W        W39626   8.097   3.641   2.730 -0.0982  0.0870  0.1895
23818W        W39627   8.570   0.985   4.515  0.1934  0.2192  0.0305
23819W        W39628   6.033  13.116   0.532 -0.0412  0.1962 -0.0723
23820W        W39629  13.862  13.246   3.778  0.1929 -0.1137  0.2744
23821W        W39630   5.159  16.478   5.111  0.0473 -0.1023 -0.1025
23822W        W39631  18.320  18.121   0.008  0.1646  0.1795  0.2072
23823W        W39632   8.982  15.975   4.566  0.4935  0.0538  0.4143
23824W        W39633  13.599   4.379   3.812  0.2148  0.1243  0.1239
23825W        W39634  10.894   4.671  11.122  0.4004  0.0568  0.1359
23826W        W39635   8.638   1.126   3.386  0.0746 -0.0160  0.2869
23827W        W39636  16.284  11.438  12.959  0.1521 -0.0449 -0.2405
23828W        W39637   3.299   7.860   5.453  0.2838  0.1560 -0.1265
23829W        W39638  14.201   9.338  15.233 -0.1775  0.0453 -0.1240
23830W        W39639   0.975   6.107   4.686 -0.0688 -0.2200  0.1095
23831W        W39640   8.067  13.133   3.703  0.1474  0.1505  0.0982
23832W        W39641  10.380   3.277  13.302  0.0457 -0.0736 -0.1479
23833W        W39642  10.176  16.451  11.076  0.0259  0.2382  0.1363
23834W        W39643   5.961   5.936   0.758  0.0243 -0.2473 -0.1467
23835W        W39644   6.687   9.648   1.431 -0.1828  0.4167  0.1911
23836W        W39645   7.857  16.077  13.848  0.3695  0.3331 -0.2268
23837W        W39646   0.044   0.719  12.339  0.1292 -0.0165 -0.1143
23838W        W39647   5.919   2.808  12.463 -0.0962  0.2990  0.4450
23839W        W39648  18.552   4.943   4.025 -0.2660  0.0818  0.3000
23840W        W39649   3.103  13.764   4.196 -0.2401 -0.1564  0.1243
23841W        W39650  10.277   7.820   4.107 -0.0002 -0.1942  0.2244
23842W        W39651   9.382   9.996  12.031 -0.0001 -0.2120 -0.0863
23843W        W39652   6.588   0.143   2.078  0.0126  0.1178 -0.5679
23844W        W39653  13.486   7.010  13.807  0.0531  0.0155  0.2089
23845W        W39654  10.016   0.331   0.994  0.0059 -0.2280  0.1335
23846W        W39655   4.550   5.739  13.520 -0.0378 -0.1746 -0.1048
23847W        W39656  10.833  11.317   2.142 -0.1094  0.3558 -0.0631
23848W        W39657  18.181  15.131   0.283  0.1185 -0.0510  0.0101
23849W        W39658  16.147  14.178  10.819  0.0335 -0.1083 -0.1007
23850W        W39659   5.885   3.448  13.898  0.2733  0.1249  0.0854
23851W        W39660  15.476  16.728  11.360  0.1274 -0.0426 -0.0366
23852W        W39661  11.639   6.341   3.584  0.1360  0.0610 -0.1678
23853W        W39662   3.282  10.335   6.274 -0.1526 -0.2205 -0.4555
23854W        W39663  15.357   6.096  13.617 -0.3579  0.0572 -0.2163
23855W        W39664  15.444   9.976   2.304  0.0961  0.2132 -0.0140
23856W        W39665   0.047   0.356   0.323  0.2246 -0.1554  0.1263
23857W        W39666   5.003  11.407  15.662  0.1833  0.0367 -0.3279
23858W        W39667   6.075  16.436  11.996 -0.0587 -0.1009 -0.0819
23859W        W39668   2.705   0.746   2.139 -0.0155  0.0260 -0.0128
23860W        W39669   5.702   9.603   1.975  0.1630 -0.0677  0.2538
23861W        W39670  15.735   6.187  13.973  0.1520 -0.1229 -0.1266
23862W        W39671   9.059  15.068  12.943 -0.1565  0.1246  0.2733
23863W        W39672   5.512   6.956   2.791 -0.1137 -0.0814 -0.1105
23864W        W39673  11.897   6.387  12.466  0.0832 -0.5204  0.0166
23865W        W39674  10.504  10.534  13.947  0.1043  0.4092 -0.0560
23866W        W39675  14.808   0.798  14.143  0.0431  0.1345  0.3787
23867W        W39676  18.031  16.817   0.178  0.4460  0.0774  0.2720
23868W        W39677   1.387   6.126  15.458  0.1160  0.0965  0.0954
23869W        W39678   1.767   6.855   3.217 -0.3600 -0.0827  0.1651
23870W        W39679  11.767  10.529   1.639 -0.1360  0.1154 -0.0542
23871W        W39680  11.920   0.632   0.271  0.1407  0.2053 -0.0356
23872W        W39681  13.826  14.441   2.919  0.1714 -0.0198  0.3550
23873W        W39682   6.775  17.441   3.650 -0.3682  0.0453  0.3262
23874W        W39683   4.624   9.452  11.491 -0.0091  0.3382  0.1586
23875W        W39684  17.786   7.921  11.889 -0.1229  0.1692  0.1057
23876W        W39685  12.858   6.102  14.961  0.1551 -0.0521  0.0083
23877W        W39686  18.465  14.813  14.566 -0.3084  0.1136  0.1923
23878W        W39687  15.374  10.568  11.132  0.1602  0.0621 -0.1636
23879W        W39688  11.535   1.226  12.643 -0.4859  0.3361  0.2432
23880W        W39689   5.223  15.326  14.744 -0.0276  0.1017 -0.2933
23881W        W39690   8.401   1.376   5.187  0.1968  0.1134 -0.0038
23882W        W39691  13.750   1.854   0.104 -0.0855 -0.3160 -0.1559
23883W        W39692  13.587  15.231   4.062  0.0047 -0.2362  0.0580
23884W        W39693  15.525  18.063  11.521  0.2004  0.2145  0.0527
23885W        W39694   6.843  15.668   4.199  0.4211 -0.4289 -0.0841
23886W        W39695   6.004  18.612   0.800  0.2882 -0.1083  0.1903
23887W        W39696   3.079   4.103  14.147  0.0725  0.1333  0.0614
23888W        W39697   4.827   3.671   2.579 -0.3583 -0.1556  0.0406
23889W        W39698   3.315   3.340  12.545  0.1677 -0.2108  0.1626
23890W        W39699   5.013  16.417  14.764 -0.0379 -0.1777 -0.1271
23891W        W39700  10.020   7.191  10.872 -0.0406  0.1599 -0.0058
23892W        W39701   6.196   4.245   1.742  0.1217 -0.0042 -0.0483
23893W        W39702   8.038  18.042  14.427 -0.3663  0.0704 -0.2740
23894W        W39703  14.689   3.040  10.622 -0.0180 -0.1823 -0.0603
23895W        W39704   8.639  11.752   4.877  0.1021  0.1539  0.1322
23896W        W39705  18.050   8.229   5.406 -0.2274  0.0794  0.0077
23897W        W39706   3.967  12.248  11.844  0.2151  0.3508  0.1827
23898W        W39707   3.603   5.882   3.374 -0.1678  0.2993  0.3473
23899W        W39708  17.947   3.001   1.944 -0.1272  0.1968 -0.0948
23900W        W39709  10.134   4.180   5.674  0.1382  0.1572  0.0021
23901W        W39710   5.526  17.900  13.309 -0.5818 -0.1134 -0.1036
23902W        W39711  13.661  17.850  12.453  0.0587  0.0904 -0.1464
23903W        W39712   5.515   7.355  12.637 -0.0721 -0.0284 -0.0306
23904W        W39713  18.371  12.628   0.924 -0.0196 -0.1149 -0.4669
23905W        W39714  11.072   0.303  14.155 -0.1154  0.2786  0.3691
23906W        W39715  12.041   2.155   5.727 -0.0411 -0.5717  0.1165
23907W        W39716  17.651  18.391   5.970 -0.0917  0.0963 -0.2865
23908W        W39717  13.723   6.517   1.962 -0.2367 -0.2873 -0.0081
23909W        W39718  10.456  13.741  13.250 -0.0226  0.0579 -0.1180
23910W        W39719   2.186  13.000  11.037  0.2372  0.1119 -0.5616
23911W        W39720   0.338  18.664   5.486  0.1499  0.2732 -0.0030
23912W        W39721   9.713   6.610   1.683  0.2641  0.1000  0.1073
23913W        W39722  18.619  18.246  13.191  0.3543 -0.0432 -0.3888
23914W        W39723   7.231   8.531   2.047  0.1764 -0.0812  0.4228
23915W        W39724   3.490  16.923  15.175 -0.1241 -0.0726 -0.2723
23916W        W39725  10.666  10.551   4.296  0.0997 -0.1538 -0.0863
23917W        W39726  13.389   6.383  13.109 -0.3264  0.1404  0.1167
23918W        W39727  11.686   8.770  12.257 -0.0740  0.0214  0.1206
23919W        W39728   7.942   1.954   5.200  0.1089 -0.0620  0.2050
23920W        W39729   6.816  15.809   0.666  0.2037  0.1953 -0.1493
23921W        W39730   2.822  14.764   4.989  0.0098  0.1121  0.1921
23922W        W39731   8.484   7.709   4.184  0.0968 -0.6543 -0.1858
23923W        W39732   1.944   6.426   4.527 -0.2259 -0.0377  0.1166
23924W        W39733   0.653  12.062  12.772 -0.1300 -0.1965 -0.2413
23925W        W39734   4.700  16.456   2.511 -0.0395 -0.1133  0.1234
23926W        W39735   0.911   8.662   5.646 -0.2646  0.0349 -0.0015
23927W        W39736  13.616   3.826   3.814 -0.2720  0.2143 -0.1110
23928W        W39737   9.024   5.242  12.405  0.1801  0.1984  0.3737
23929W        W39738   2.421   9.141   3.768  0.0278  0.1361 -0.4794
23930W        W39739  18.030   1.904  10.591  0.0137  0.1578 -0.1990
23931W        W39740   5.226  13.429   2.783  0.1081 -0.2388  0.0378
23932W        W39741  11.450   8.552  15.523 -0.0798 -0.4889 -0.2281
23933W        W39742  14.107   1.377  11.389  0.1176  0.1140  0.1124
23934W        W39743  12.201  15.159  11.129 -0.0431  0.1119 -0.0328
23935W        W39744  10.086  14.239   2.418 -0.0526 -0.1314 -0.1845
23936W        W39745   6.831  17.098  12.485  0.0411  0.2082  0.3179
23937W        W39746   3.168   1.701   1.294  0.3498  0.1220 -0.0136
23938W        W39747   5.193   7.795  14.038  0.0432  0.3510  0.1348
23939W        W39748   4.158  14.588  10.754 -0.3755  0.2817  0.0581
23940W        W39749   8.878   2.444   4.272  0.0855  0.2563 -0.1255
23941W        W39750   1.421  16.001   0.159  0.0766 -0.0911 -0.1815
23942W        W39751   2.542   4.009   1.463  0.2437 -0.0535  0.2710
23943W        W39752  10.312   0.926   5.665 -0.0633  0.3461 -0.0609
23944W        W39753   4.874   3.015   3.907 -0.0643 -0.0837  0.1903
23945W        W39754  11.113   8.479   5.467  0.0037  0.1572  0.2703
23946W        W39755  18.652   7.883   1.822 -0.2224 -0.0300  0.0461
23947W        W39756  10.354   5.535   1.510 -0.1461 -0.0424 -0.1699
23948W        W39757  16.239   1.501  14.839  0.0355 -0.1481 -0.0253
23949W        W39758   8.605   6.487   4.841  0.0509 -0.0310  0.0756
23950W        W39759   1.181  18.370   3.035  0.0579  0.1253  0.1413
23951W        W39760   2.355   6.421   2.086  0.0210 -0.2521 -0.0445
23952W        W39761   8.500  14.527  11.755  0.0858  0.2252  0.0476
23953W        W39762   9.584  18.074   4.785 -0.0467  0.2378  0.0095
23954W        W39763  17.361  13.938   1.725  0.0591  0.4474 -0.0069
23955W        W39764  10.223  17.679  11.518  0.2809 -0.1339 -0.0830
23956W        W39765   0.945   3.076  11.254 -0.2405  0.1676  0.0814
23957W        W39766   8.041  16.674   3.657 -0.4718  0.1074  0.0355
23958W        W39767   4.996   0.009   0.484  0.0209  0.1177 -0.0562
23959W        W39768   8.428  13.357   4.275 -0.3359  0.2235 -0.0770
23960W        W39769   5.576  12.088   2.251  0.2632 -0.4877 -0.2477
23961W        W39770   6.834   5.632   4.938 -0.1868 -0.0875 -0.1304
23962W        W39771   5.452  17.364  14.074  0.0859 -0.1069  0.2278
23963W        W39772   4.585  14.627  12.038  0.0518  0.0471  0.0501
23964W        W39773   5.489  11.306  14.056  0.2044 -0.0106 -0.0461
23965W        W39774  16.234   0.327  12.768 -0.1270  0.2643  0.1488
23966W        W39775   6.562  13.437   2.667 -0.1242  0.0338 -0.2018
23967W        W39776  12.398   6.468   2.426  0.2462 -0.3916 -0.4264
23968W        W39777   8.018   0.425  15.720  0.0822 -0.3598  0.3598
23969W        W39778   8.235  15.430  14.151 -0.0401 -0.3881  0.0129
23970W        W39779   9.971  15.679  12.722 -0.0284 -0.0694  0.1121
23971W        W39780  17.214   6.813  14.498 -0.0228  0.2191 -0.2397
23972W        W39781   2.332   7.685   2.037  0.2347 -0.0182 -0.1563
23973W        W39782  12.007  14.923  13.226  0.0030 -0.0056 -0.2756
23974W        W39783  13.997   1.268   2.552  0.0778 -0.1093 -0.1940
23975W        W39784   2.884   5.324  11.713 -0.0654 -0.1322 -0.3362
23976W        W39785  10.158  17.545  14.347  0.3405 -0.1500 -0.1723
23977W        W39786   5.964  14.906   1.893  0.2194  0.0440  0.1742
23978W        W39787   2.399  10.623  11.351  0.1559  0.0313  0.1798
23979W        W39788  11.121  17.680  11.059  0.1291  0.1466  0.1917
23980W        W39789   1.187  18.580  12.741 -0.2009 -0.2078  0.1606
23981W        W39790  11.511  10.892  13.858  0.1488 -0.2706 -0.1366
23982W        W39791   3.615   2.529   2.864 -0.4456  0.1381  0.0142
23983W        W39792   7.601   8.290   0.126 -0.0430 -0.0914 -0.0311
23984W        W39793  17.467  14.579   1.438 -0.0535  0.1238 -0.4339
23985W        W39794   8.214   1.027  13.104 -0.2075  0.0498  0.0187
23986W        W39795  10.202   2.920  15.368 -0.0023 -0.0857 -0.2429
23987W        W39796  17.240  15.376  13.244 -0.0858 -0.1324 -0.1305
23988W        W39797   6.081  13.719  14.982  0.1599  0.0425 -0.0458
23989W        W39798   7.982   0.808  15.393  0.1086 -0.0010  0.2909
23990W        W39799  18.186  10.334  11.778 -0.0506  0.0723 -0.2341
23991W        W39800  17.100  11.317   1.920 -0.2297  0.0550 -0.2470
23992W        W39801   9.164   9.024   2.375  0.2931 -0.2332 -0.0950
23993W        W39802  18.373   0.031   2.279  0.0708 -0.2047 -0.0800
23994W        W39803  15.856   9.773   0.157  0.0517  0.0905 -0.0374
23995W        W39804  17.376   1.980  15.330  0.0955 -0.2551 -0.0636
23996W        W39805  12.739  14.339  11.362  0.3296  0.1069 -0.0043
23997W        W39806  11.342  14.850   4.032 -0.0592  0.3170 -0.2850
23998W        W39807  10.132  10.217  13.879  0.2246 -0.0569  0.3908
23999W        W39808   9.656   5.501   5.465 -0.2325  0.0329 -0.2506
24000W        W39809   1.592   7.909   0.779 -0.0707 -0.0853  0.0783
24001W        W39810   6.102   3.770  13.492 -0.0872 -0.1031 -0.1095
24002W        W39811   7.887   9.125  11.703 -0.0488  0.3019 -0.4550
24003W        W39812  13.564   0.551  13.101 -0.0274  0.1352 -0.1659
24004W        W39813  10.799   9.930   2.815  0.0175  0.4044  0.0091
24005W        W39814  10.603  16.640   2.892  0.1471  0.0586 -0.1259
24006W        W39815  17.783   1.575   1.834  0.5177 -0.1484  0.0781
24007W        W39816  13.894  15.759  14.149  0.0012 -0.0757  0.1059
24008W        W39817   3.154   3.191  13.188 -0.0063  0.1162  0.1699
24009W        W39818   9.659  10.691   0.442  0.1269  0.1060 -0.4039
24010W        W39819  10.992  12.571   3.813  0.0481  0.0140 -0.1985
24011W        W39820   4.421   3.187  14.086 -0.2133  0.1502 -0.0312
24012W        W39821  14.264   3.621   4.188  0.3038  0.1280  0.1193
24013W        W39822   8.929  13.135   2.082 -0.2047  0.1384 -0.4020
24014W        W39823  14.447  16.224  10.808  0.1222 -0.1900  0.0966
24015W        W39824  15.103   5.593  14.420 -0.1920 -0.1849 -0.2136
24016W        W39825  13.213  12.408   1.713  0.0026 -0.0407 -0.1033
24017W        W39826  12.283  15.389  14.896 -0.0279  0.0120  0.0621
24018W        W39827  15.685   5.764   1.812  0.0193  0.2194  0.0155
24019W        W39828  17.420   9.277  12.823 -0.2157  0.0211  0.0846
24020W        W39829   7.272   0.298  12.291  0.2121 -0.1661  0.1031
24021W        W39830   1.971   3.016  14.408  0.1807  0.0499  0.1793
24022W        W39831  15.247   1.807   1.546 -0.0733 -0.0666 -0.2431
24023W        W39832   1.101   2.218   1.450 -0.1756 -0.0618 -0.1300
24024W        W39833  17.019  13.017   3.995  0.1361 -0.0032 -0.0674
24025W        W39834   1.575   4.872   1.453 -0.0774 -0.0776 -0.0004
24026W        W39835  11.328  10.702   5.389 -0.0464 -0.0190  0.0385
24027W        W39836   0.817  18.154   1.413 -0.0053 -0.3237  0.0136
24028W        W39837  14.456   6.368   3.978 -0.0197  0.0256  0.0051
24029W        W39838  10.599   6.177   0.160  0.2062  0.1622  0.0243
24030W        W39839  16.462  18.589   2.127  0.1575 -0.1739  0.2902
24031W        W39840   0.069   4.269   2.707  0.3830 -0.1767 -0.1062
24032W        W39841   5.415  14.204   3.504 -0.4380 -0.0082 -0.0496
24033W        W39842  13.592   7.651  13.787  0.3036 -0.2226  0.0098
24034W        W39843  12.086   2.270   2.206 -0.0413  0.0833  0.3101
24035W        W39844  14.784   4.081   2.086  0.1827 -0.0285 -0.1166
24036W        W39845  17.487   8.319  12.858 -0.3171 -0.2417  0.2139
24037W        W39846  16.520  10.466  12.023  0.0174 -0.1624  0.1129
24038W        W39847  14.544   9.552  13.228  0.1585 -0.4488  0.2223
24039W        W39848  10.634   9.748   0.261 -0.0338  0.1740  0.2489
24040W        W39849   3.916  15.913   4.067 -0.1311 -0.2050 -0.1292
24041W        W39850  13.996   8.052   0.585 -0.2345  0.1068  0.3542
24042W        W39851  14.871  15.916  11.108  0.1518  0.0691  0.1754
24043W        W39852  12.652  15.718  14.786  0.1421 -0.0341 -0.0231
24044W        W39853   0.974   0.278   5.158  0.1520 -0.1148 -0.0610
24045W        W39854   7.501  12.391  11.291  0.1952 -0.1790 -0.1466
24046W        W39855   8.978   2.314   0.455  0.0258 -0.0827  0.1585
24047W        W39856   7.731   8.369   5.403  0.1419  0.0451 -0.0658
24048W        W39857   1.392   5.474  15.549 -0.1322  0.0221  0.1539
24049W        W39858  12.442   4.493  13.946  0.0632 -0.0891  0.0989
24050W        W39859  10.393  10.738  13.321 -0.1443  0.0158  0.2561
24051W        W39860   2.847  10.483  11.493  0.1141 -0.1498  0.2077
24052W        W39861  12.491   9.576   3.447  0.1038 -0.0866  0.0265
24053W        W39862   7.804   7.710   4.690  0.1494 -0.0808  0.2253
24054W        W39863  10.660   5.310  11.663  0.4651 -0.0317 -0.0086
24055W        W39864  10.047   6.938  13.326 -0.2402  0.1911  0.0806
24056W        W39865  15.910   0.909  11.721 -0.0841  0.0698  0.3276
24057W        W39866   1.218   3.102   3.202  0.3077  0.0367 -0.0017
24058W        W39867  12.671   9.361   4.436 -0.0693 -0.0714 -0.0432
24059W        W39868   3.522  16.071   4.873  0.2520 -0.1130  0.1292
24060W        W39869  14.441   8.240   0.305 -0.0777 -0.0521 -0.2464
24061W        W39870   2.788   6.723   0.477  0.1057  0.0278 -0.4073
24062W        W39871   7.624   3.990   4.531  0.2759 -0.1451  0.0546
24063W        W39872  17.670   4.218  12.808 -0.1123 -0.0209 -0.0313
24064W        W39873   8.503   2.643  15.470 -0.3644 -0.1296 -0.0291
24065W        W39874   4.839   1.298   2.630  0.2070  0.0216  0.2442
24066W        W39875  15.922   6.905  14.971 -0.3172  0.1564 -0.1417
24067W        W39876  12.053  12.602   0.471 -0.0674 -0.4120  0.2243
24068W        W39877  18.141  12.397  13.785  0.1816 -0.1791 -0.0075
24069W        W39878   5.564   0.349  11.319  0.0000  0.2818 -0.2280
24070W        W39879   8.402   2.674  14.583 -0.0279  0.0009 -0.0165
24071W        W39880  16.384   7.302  14.409  0.0804  0.0767  0.0069
24072W        W39881  10.891   2.939  12.273 -0.3979  0.0469 -0.1323
24073W        W39882   1.561  17.848   3.911 -0.3653  0.1301 -0.0263
24074W        W39883   6.361  15.875  15.713 -0.0316  0.0157 -0.2035
24075W        W39884   5.625  15.046  12.125  0.2564 -0.1406 -0.0772
24076W        W39885  13.744   9.988   3.136  0.1877  0.3265  0.2217
24077W        W39886  10.940  14.020   0.944 -0.1635 -0.3901 -0.1151
24078W        W39887  14.795  18.508  14.058  0.1454  0.0196  0.3756
24079W        W39888  10.442   7.980  13.951  0.3059  0.2158  0.1268
24080W        W39889  12.477  10.257  11.173  0.2437  0.2579  0.2702
24081W        W39890  18.259   9.993  13.770 -0.1546 -0.1547  0.2119
24082W        W39891  17.387   8.965   4.045  0.0396  0.0387  0.2310
24083W        W39892   7.570  10.086   0.905 -0.0781 -0.2288  0.0831
24084W        W39893  18.607   5.570  11.469 -0.1872 -0.1421 -0.2523
24085W        W39894   9.203  12.350  15.175 -0.1113 -0.1506  0.0513
24086W        W39895   8.665   9.551   4.157  0.0926  0.1238  0.0354
24087W        W39896   4.400  14.943  14.692 -0.1011  0.1204  0.2628
24088W        W39897  12.680   6.853   3.274 -0.1632 -0.0650  0.1641
24089W        W39898   3.435  11.927  13.147 -0.0033  0.2736  0.1099
24090W        W39899  13.058  11.498  14.628  0.1469 -0.0532  0.2622
24091W        W39900   2.895   3.137   1.642 -0.0320  0.3416 -0.1511
24092W        W39901  15.261   4.018  14.414  0.1635 -0.0223 -0.0648
24093W        W39902   0.752   8.960   3.066  0.2189  0.1359  0.0096
24094W        W39903   5.286  14.624   9.855  0.0549  0.0424 -0.5324
24095W        W39904  10.398   5.427   3.546 -0.1777 -0.1835  0.0803
24096W        W39905  10.842   2.670   3.318  0.0180  0.3123  0.2148
24097W        W39906  17.272   3.137  12.921 -0.0437  0.0373  0.2568
24098W        W39907   8.857   2.437   5.084  0.0463  0.0427  0.0762
24099W        W39908   1.079  17.817   3.753 -0.0351  0.0130 -0.2456
24100W        W39909   5.310  11.083   2.995 -0.2903  0.2299 -0.2110
24101W        W39910  17.674   9.058  15.074 -0.1150 -0.2667  0.0073
24102W        W39911   3.630   5.520  12.661  0.0710 -0.0152  0.0486
24103W        W39912  17.023   9.199  12.534 -0.0144 -0.0238  0.0336
24104W        W39913  17.498  13.928  12.715  0.1801 -0.2181  0.0388
24105W        W39914   1.984   9.479  14.003  0.2611 -0.0492 -0.0218
24106W        W39915   7.172   2.470   0.082  0.1779 -0.2596 -0.3063
24107W        W39916  18.131  17.065   4.040 -0.0118 -0.3029 -0.0820
24108W        W39917  12.297  10.883  11.872 -0.0254 -0.0296 -0.0191
24109W        W39918  11.828   8.925   0.575 -0.0582  0.0623 -0.1922
24110W        W39919  13.536  15.729   3.288 -0.0066  0.0451 -0.1694
24111W        W39920   2.894  11.580   0.304  0.1001 -0.0767 -0.0684
24112W        W39921   5.979   4.892  11.971  0.2289  0.0581  0.2163
24113W        W39922  13.643   0.931   5.568  0.0777  0.2510 -0.0478
24114W        W39923  18.139   7.411   4.823  0.3713 -0.0310  0.0120
24115W        W39924  17.592   0.569  11.465  0.1540  0.1444  0.0394
24116W        W39925  14.719   1.058   3.155 -0.1565 -0.1124 -0.1010
24117W        W39926  13.291  12.975   0.438 -0.4898 -0.2238  0.1295
24118W        W39927   1.067  17.462   2.635 -0.0023  0.2000 -0.3591
24119W        W39928   9.751  12.007   3.907  0.3467  0.0857 -0.1954
24120W        W39929  17.214   1.962   2.331 -0.4560 -0.0934  0.1441
24121W        W39930   9.521   5.994   1.457  0.0971 -0.1563 -0.0193
24122W        W39931  17.422   6.879   4.979  0.1129  0.0211  0.1483
24123W        W39932  10.604   4.048   2.041 -0.2195  0.0493  0.1751
24124W        W39933   7.753   8.137   1.511 -0.2284  0.2335 -0.0684
24125W        W39934   7.810   0.240   4.624  0.0166 -0.0121 -0.3250
24126W        W39935   1.519   8.213   2.092 -0.0672 -0.2234  0.0311
24127W        W39936   4.351   9.002   3.653 -0.0221 -0.2655 -0.3995
24128W        W39937   0.185  18.017  10.066 -0.0736  0.1725 -0.1352
24129W        W39938   9.781   6.385   5.599  0.2402 -0.1209 -0.1498
24130W        W39939   5.098   7.396   3.053  0.1511  0.0672 -0.2956
24131W        W39940  17.555  10.099   5.177  0.1384 -0.1206 -0.1109
24132W        W39941  17.593  11.483  12.399 -0.2666  0.1989 -0.0566
24133W        W39942   8.051  13.557  13.545 -0.0691 -0.1627 -0.0148
24134W        W39943   1.626  10.652  14.635 -0.3112  0.1969  0.1263
24135W        W39944   7.630   7.261   4.417  0.0316  0.0525 -0.0672
24136W        W39945  17.192  13.337   5.488 -0.4461 -0.1189 -0.1454
24137W        W39946  16.242   9.573   5.457 -0.2660 -0.2033  0.2112
24138W        W39947  11.191  12.446   0.425 -0.3019 -0.2867  0.0475
24139W        W39948  14.955  13.750   2.935  0.2712 -0.0251  0.0076
24140W        W39949   1.006   8.989   4.452 -0.2575 -0.3998  0.2341
24141W        W39950   5.973  15.494   2.598 -0.1154  0.0181 -0.2558
24142W        W39951  18.120  10.374  15.047  0.1078  0.0488 -0.1955
24143W        W39952   8.836  18.651   4.442  0.2486  0.0018  0.0955
24144W        W39953   4.335  13.024   1.581 -0.0323  0.0103 -0.0443
24145W        W39954  13.326   8.004  12.809 -0.1045 -0.0626  0.3491
24146W        W39955   7.288  16.952  12.646 -0.0669  0.0360 -0.0144
24147W        W39956  12.841   8.432  10.650  0.2232  0.3408  0.2230
24148W        W39957  13.487   0.491   2.169 -0.0041 -0.0905  0.2432
24149W        W39958   8.347  17.272   4.103 -0.1050  0.1309 -0.0467
24150W        W39959  17.045   6.945   3.459 -0.1038 -0.0019 -0.0528
24151W        W39960   5.902   1.670  12.321  0.0600 -0.0565 -0.2116
24152W        W39961  14.058  16.718   2.799 -0.1502 -0.1985  0.3019
24153W        W39962   7.423   8.590   1.599 -0.0393  0.1423  0.1007
24154W        W39963  18.291   6.155   1.308 -0.0964  0.0364 -0.0504
24155W        W39964   8.067  10.645  13.731  0.1714 -0.2737 -0.3028
24156W        W39965   6.373  15.622   1.215  0.1500 -0.3860 -0.4527
24157W        W39966  10.459   5.303   0.386 -0.1844 -0.0190  0.0388
24158W        W39967  16.186   8.574  11.046 -0.0195  0.2370  0.1031
24159W        W39968   3.285   6.091   4.677  0.0027 -0.0105 -0.0713
24160W        W39969   4.617  15.370   2.357  0.1949 -0.2672  0.1567
24161W        W39970  18.540  11.531  11.895  0.2135 -0.2655  0.0476
24162W        W39971  10.367  10.154  14.354  0.1822  0.0362  0.0022
24163W        W39972  15.994  10.961  14.184  0.1195  0.1024 -0.5799
24164W        W39973   0.097  17.091   4.097 -0.1646  0.0012  0.0360
24165W        W39974   0.057   1.898   4.773  0.2312 -0.0342 -0.2114
24166W        W39975   3.400   1.698  10.831 -0.1459 -0.2269  0.0409
24167W        W39976  11.040  14.766   2.521  0.2735  0.0014  0.2496
24168W        W39977   8.347   4.320   2.441  0.0895 -0.0974 -0.1224
24169W        W39978  14.546   4.847   5.077  0.3336  0.1254 -0.3048
24170W        W39979  17.136   3.262   3.724  0.0239 -0.0988 -0.0932
24171W        W39980  17.420   2.405   0.297  0.2117 -0.2979  0.1122
24172W        W39981  11.736  16.223   2.305 -0.0955 -0.2115  0.1018
24173W        W39982  16.516  15.077   0.572 -0.1753  0.0639 -0.2093
24174W        W39983  10.917  10.159   0.038 -0.2530 -0.0310 -0.3333
24175W        W39984  15.430   1.128  14.885  0.0913  0.1699  0.0553
24176W        W39985  13.235  13.025  15.348 -0.0781  0.1356 -0.2071
24177W        W39986   4.836  10.468  11.204  0.1572 -0.2363  0.3319
24178W        W39987   8.173  11.008   4.741  0.0833 -0.0118 -0.0905
24179W        W39988   0.357  12.343  11.323  0.1035 -0.1720 -0.0710
24180W        W39989   9.079  11.915  15.311  0.1757  0.2414  0.1063
24181W        W39990   8.905  12.693  15.014  0.2191  0.1432 -0.1959
24182W        W39991  14.021  17.773  10.338 -0.1812  0.0187  0.0386
24183W        W39992  11.554   3.397  13.044  0.0991  0.1668 -0.0176
24184W        W39993  15.134  10.299  12.131 -0.3342  0.1286 -0.0808
24185W        W39994   6.841  14.419   0.277  0.3661 -0.4163  0.0345
24186W        W39995  12.637  14.757   4.086 -0.5178  0.0840  0.2168
24187W        W39996   5.042  13.835   1.490  0.0072 -0.0452 -0.2084
24188W        W39997   9.214  17.019  13.484 -0.1801 -0.0939 -0.3234
24189W        W39998   4.851   3.894  14.187 -0.0468  0.1066 -0.1642
24190W        W39999   1.689  11.222  15.532  0.0704  0.1771 -0.0634
24191W        W40000  17.876   7.944  12.886 -0.1883 -0.1068  0.3065
24192W        W40001   5.897   2.001  11.398 -0.2430  0.2501 -0.1611
24193W        W40002   8.066  16.741   0.354  0.2562  0.3572  0.0134
24194W        W40003   7.618   7.478  13.885 -0.1710  0.2523 -0.0956
24195W        W40004  17.132   9.469  15.362 -0.2611 -0.2492  0.0073
24196W        W40005  14.680  17.972   3.593  0.1022 -0.1507  0.0533
24197W        W40006  12.443  16.872  10.310 -0.1488  0.1119 -0.1076
24198W        W40007  13.968   5.940   3.868  0.4405 -0.0016 -0.1118
24199W        W40008   5.202  15.878  13.727  0.0326  0.2709  0.1847
24200W        W40009  12.649   6.600  10.897  0.1227  0.0207  0.5095
24201W        W40010   7.769   7.659  14.350 -0.1842  0.1309 -0.1461
24202W        W40011   7.910   2.875  10.497  0.1151  0.1579 -0.3803
24203W        W40012   3.713   8.682  14.942  0.3082 -0.3672 -0.2342
24204W        W40013  17.956  14.270  15.705  0.1814 -0.1002  0.1090
24205W        W40014  17.023   9.865   3.125  0.1507 -0.0174  0.3360
24206W        W40015  13.571  11.365   5.741  0.0077  0.1045  0.0816
24207W        W40016  14.609  18.332  14.978  0.1086  0.1073  0.0935
24208W        W40017  17.037  17.472  12.577  0.2837  0.1617 -0.3836
24209W        W40018   5.365  13.180   0.543  0.2550  0.0361 -0.2127
24210W        W40019   5.678  16.572  14.263  0.0371 -0.1482 -0.2890
24211W        W40020  14.572   0.100   2.681  0.1860  0.2227  0.3338
24212W        W40021   2.560   7.100  11.981 -0.1633  0.2422  0.1831
24213W        W40022  15.245   6.900   1.369 -0.1105 -0.0520 -0.2392
24214W        W40023  11.191   8.936  12.012 -0.0749  0.1233  0.0927
24215W        W40024  14.197  14.494  13.397  0.0871 -0.0954 -0.0208
24216W        W40025   2.883   7.587   0.948 -0.0629 -0.0750  0.0086
24217W        W40026  18.479   2.120   0.967 -0.0031  0.1759  0.0376
24218W        W40027  10.486   8.286   4.232 -0.1201  0.4508 -0.2317
24219W        W40028   8.716  11.628   2.172  0.1015  0.4056  0.0676
24220W        W40029  14.606   2.277   2.443  0.0513  0.2256 -0.1310
24221W        W40030   3.798  10.099  11.568 -0.0045 -0.0714  0.0915
24222W        W40031   9.984   8.203   0.386 -0.0205  0.1979  0.0845
24223W        W40032   2.965   0.884   0.492 -0.2310  0.1167  0.0873
24224W        W40033   0.853   3.821   5.000 -0.2286  0.1251 -0.1485
24225W        W40034   7.296   0.582   1.399  0.1930 -0.1317  0.2891
24226W        W40035   1.860  15.757  13.395 -0.0232  0.1096  0.1222
24227W        W40036  15.157   3.099  12.636  0.2011  0.1636  0.1600
24228W        W40037  11.070   1.675   3.890 -0.2879  0.0953  0.2050
24229W        W40038  12.939  18.650   4.233  0.4123 -0.1174  0.0617
24230W        W40039   4.624   4.611  15.142  0.2274 -0.0952  0.2071
24231W        W40040  13.297  18.010  13.722  0.1011  0.0644 -0.1865
24232W        W40041   2.884  13.612  11.832 -0.1144 -0.0396 -0.0167
24233W        W40042   0.061   3.471  13.429 -0.0935 -0.1010  0.5430
24234W        W40043   3.282   8.323  13.342  0.0764  0.1010  0.4802
24235W        W40044   8.198   7.354  14.664 -0.4315 -0.4256 -0.2912
24236W        W40045  15.491  17.917   2.679 -0.2492  0.1711  0.1289
24237W        W40046  13.630  14.403  13.348  0.0563 -0.0721 -0.5876
24238W        W40047   1.036   7.887  12.852 -0.3873 -0.2036 -0.0818
24239W        W40048   1.548   9.441   4.804  0.2172  0.2289 -0.1727
24240W        W40049   2.759   8.977  14.533 -0.0510 -0.0678 -0.2844
24241W        W40050  12.396   3.435   0.122  0.0303  0.3949  0.0228
24242W        W40051   3.777   4.819   1.523 -0.1103  0.1794 -0.2958
24243W        W40052   0.040   5.157  11.858  0.0727  0.0668  0.0981
24244W        W40053  17.298   9.059   2.007 -0.2602  0.1538 -0.5834
24245W        W40054  11.998   5.801  13.762 -0.0387 -0.0659 -0.0978
24246W        W40055   4.800  14.903   0.565 -0.1042  0.0698  0.0607
24247W        W40056   5.309   6.582   3.157  0.1224 -0.0717 -0.1521
24248W        W40057   3.540   2.273   3.375  0.0772 -0.0493  0.0322
24249W        W40058  18.368   7.834   5.450 -0.0446  0.0561  0.1949
24250W        W40059  16.916  16.145  15.205 -0.0687 -0.1106  0.2180
24251W        W40060   5.636  12.619   3.535  0.2189 -0.1113  0.0432
24252W        W40061  18.274  17.581  13.797  0.1030 -0.1450  0.0844
24253W        W40062  17.133  13.495   3.985  0.0856  0.1293  0.1198
24254W        W40063  17.291   0.898  13.437 -0.0946 -0.2241  0.1690
24255W        W40064  15.516   3.563  14.159  0.0354 -0.3859  0.0735
24256W        W40065   0.540  16.877  14.743  0.2203  0.1091  0.0770
24257W        W40066  13.094  18.213   4.339 -0.2452  0.2953  0.0992
24258W        W40067  12.254   2.036  12.716  0.1903  0.4616 -0.1304
24259W        W40068   2.166   8.539   0.564 -0.4379 -0.1050  0.3767
24260W        W40069  12.915   6.176   5.028  0.1372 -0.0703  0.1724
24261W        W40070  15.172  17.732   9.527 -0.1245 -0.0426  0.0836
24262W        W40071   7.316   4.434   3.651 -0.2437  0.0063 -0.1606
24263W        W40072   0.028   0.055  15.618 -0.0650  0.1806 -0.0198
24264W        W40073   9.567   3.806  13.026  0.1442  0.3302 -0.2105
24265W        W40074  14.057   1.829   3.641 -0.0553  0.0743 -0.0077
24266W        W40075  15.020  11.079   3.462 -0.2798 -0.1147  0.2053
24267W        W40076  14.934   6.140  14.398 -0.0669 -0.0223  0.0658
24268W        W40077  17.734  18.165   0.129  0.1799  0.3657  0.3006
24269W        W40078   7.063  11.541  11.731  0.2739 -0.2171 -0.0923
24270W        W40079  11.171  11.681  13.999  0.0285  0.0171  0.0115
24271W        W40080  10.919  13.621  14.568  0.3209  0.2129  0.1950
24272W        W40081   4.123   1.628   4.603 -0.0330  0.1998  0.0558
24273W        W40082  14.374  11.166  12.836 -0.0857  0.0751 -0.1348
24274W        W40083   9.402   0.905   5.132 -0.0786  0.1638  0.2392
24275W        W40084  18.541   2.649   1.142 -0.0132  0.2838  0.0460
24276W        W40085   0.290  15.991  14.763 -0.1164 -0.1893  0.3395
24277W        W40086   1.864  12.605  12.781 -0.3152 -0.0446  0.0489
24278W        W40087   9.630   3.901   4.329  0.0468  0.0547 -0.0917
24279W        W40088   2.377   1.477   2.808  0.1125 -0.0418 -0.3038
24280W        W40089   3.528  10.562  14.174  0.5398  0.0151 -0.0837
24281W        W40090  16.671   3.035  13.611  0.0085 -0.1617 -0.0611
24282W        W40091   2.329  15.517   5.810  0.5287  0.0954 -0.1510
24283W        W40092   5.689  18.149  13.804 -0.5892 -0.2001  0.0403
24284W        W40093   9.850   7.354  13.170 -0.1565  0.0968  0.2472
24285W        W40094  14.752   8.806  14.406  0.0750  0.0912 -0.0093
24286W        W40095   9.928   9.663   2.030  0.4319  0.4667 -0.1601
24287W        W40096   6.793  14.409  10.422 -0.2153  0.1314 -0.2378
24288W        W40097  12.640   0.742   0.325  0.2305 -0.0201 -0.2095
24289W        W40098  10.156   4.836  14.022 -0.1109 -0.2418  0.0334
24290W        W40099   1.412  13.199   1.243 -0.2532  0.3110  0.1714
24291W        W40100  13.454   9.229  12.151 -0.0732 -0.0439 -0.2324
24292W        W40101  14.703  13.872  14.598  0.0081 -0.0794  0.1967
24293W        W40102   2.775  13.083   0.810 -0.4460 -0.0007  0.0735
24294W        W40103   4.791  10.127   4.938 -0.0505 -0.1106  0.1159
24295W        W40104   1.224  14.663  12.580  0.2300  0.1870  0.1883
24296W        W40105  12.517  18.235   1.695 -0.3869 -0.1068  0.1509
24297W        W40106   4.333  14.687  15.498 -0.3795 -0.0439  0.2285
24298W        W40107  17.728   4.243  14.752 -0.2206  0.0643 -0.0241
24299W        W40108   2.136   9.330  12.197 -0.1945  0.1884  0.1029
24300W        W40109   8.860   3.877   4.895 -0.1592 -0.0575 -0.1099
24301W        W40110   3.947   0.380   4.198 -0.1226  0.2131 -0.2209
24302W        W40111   2.717   4.653   3.593 -0.1830 -0.0055  0.0627
24303W        W40112  15.231   9.350  15.424 -0.0052 -0.1269  0.1471
24304W        W40113  11.004   0.296   2.454  0.0597  0.2468 -0.0387
24305W        W40114  12.403  13.251  10.945 -0.0544 -0.2840  0.0844
24306W        W40115   5.145  10.570  12.465  0.2184  0.2268 -0.4471
24307W        W40116  14.268  13.090   4.474 -0.0156  0.1095 -0.0541
24308W        W40117   2.621  13.889  11.488  0.1142  0.2464  0.1107
24309W        W40118  13.157  14.902  12.643 -0.0871  0.2632  0.0865
24310W        W40119   7.349  11.742   5.796 -0.0107 -0.0859  0.2020
24311W        W40120   7.293   2.248   1.258  0.2814 -0.2619  0.2707
24312W        W40121   9.674  12.001  11.221  0.3169 -0.1752  0.1634
24313W        W40122  17.602  15.254  14.470  0.0658 -0.1385  0.1096
24314W        W40123   8.461  11.194  11.783  0.2192  0.2381 -0.0599
24315W        W40124  14.881   4.731   9.621  0.0205 -0.0111 -0.1450
24316W        W40125  12.317  17.943  10.936 -0.4838 -0.2223  0.0915
24317W        W40126  11.188  15.639   1.375  0.1570 -0.1516 -0.2460
24318W        W40127   4.166   7.192  12.299 -0.1649  0.2455 -0.1426
24319W        W40128   9.120  17.375   3.914  0.5151 -0.3282 -0.0448
24320W        W40129  15.577   4.288   0.323  0.2596 -0.0185  0.1590
24321W        W40130  11.744   0.572   4.696 -0.1077  0.2059 -0.1231
24322W        W40131   1.731   8.884  14.702  0.1227 -0.1611 -0.2123
24323W        W40132   8.221  11.878  13.709  0.2197  0.1528  0.0127
24324W        W40133  14.312  12.457   3.325  0.1109  0.1461  0.0464
24325W        W40134   4.493   6.716   0.660 -0.1253  0.0993 -0.0079
24326W        W40135  10.169  11.565   1.553  0.1847 -0.3221 -0.1654
24327W        W40136  11.696  17.650  13.822  0.0867  0.3452 -0.0497
24328W        W40137  14.171   2.068   2.267 -0.1623 -0.1021 -0.2075
24329W        W40138   1.591  13.619  13.014 -0.0604 -0.0977 -0.0282
24330W        W40139   7.523  18.215  14.585  0.0559  0.1495 -0.2199
24331W        W40140  16.888   9.001   4.595  0.1162  0.1519  0.1828
24332W        W40141   2.472  15.735  13.480 -0.0784 -0.0194 -0.2209
24333W        W40142  16.344   2.442   2.146 -0.2530  0.0162  0.0153
24334W        W40143   5.788   2.052   2.944  0.1740  0.0439  0.0331
24335W        W40144   8.877  16.622   5.206 -0.1035 -0.0041 -0.0304
24336W        W40145  14.848   0.610   4.667  0.0532 -0.1326  0.0293
24337W        W40146   5.003  14.010   0.418  0.0603  0.1290  0.1531
24338W        W40147   3.260  14.077  13.374 -0.0940  0.2917  0.1869
24339W        W40148   8.444  14.241  15.227 -0.1001 -0.0816  0.0092
24340W        W40149  15.294   3.559   0.296 -0.0989 -0.3420  0.0867
24341W        W40150   5.494   4.635  11.799 -0.1226  0.2887 -0.2821
24342W        W40151   0.129  14.827  15.297 -0.0037 -0.1280  0.1172
24343W        W40152   6.138  12.682   0.225 -0.1792 -0.1702  0.0400
24344W        W40153   2.495  12.714   2.871  0.2908  0.3312  0.0286
24345W        W40154  11.088   6.657   1.998  0.2212  0.1997  0.0387
24346W        W40155  12.306  18.395   2.225  0.3704 -0.1015  0.0127
24347W        W40156  10.507   1.500   3.997  0.0283  0.2321  0.0599
24348W        W40157   0.950   4.686  14.100 -0.0473  0.0191 -0.0951
24349W        W40158   0.480  15.877  10.810  0.1408 -0.1754 -0.3664
24350W        W40159   2.583   2.311  12.683  0.0267 -0.2760  0.1379
24351W        W40160  11.768   6.527   0.765  0.3194 -0.1422 -0.3277
24352W        W40161  14.026   6.147   2.005  0.0408 -0.0849  0.2734
24353W        W40162   3.380   3.727   2.031  0.0379  0.1200 -0.2752
24354W        W40163  13.564   5.911  11.629  0.1790 -0.0400  0.0853
24355W        W40164  16.830   2.055  12.829 -0.1409  0.1556  0.3149
24356W        W40165   9.645  14.912  15.332  0.1849 -0.0417  0.0779
24357W        W40166   4.470   5.660   4.110 -0.0666 -0.2188  0.0343
24358W        W40167  15.874   2.747  14.090  0.1679  0.3069 -0.0259
24359W        W40168  14.557   1.000  12.570  0.0199  0.0296  0.0941
24360W        W40169  13.313  11.128  15.419  0.0389  0.1903  0.1385
24361W        W40170  11.576  17.406  11.238 -0.0678 -0.1652 -0.0370
24362W        W40171  14.997   0.471  15.348 -0.0335  0.2207 -0.0462
24363W        W40172   4.208   3.066  10.966 -0.0152 -0.0128 -0.2007
24364W        W40173   2.943   6.681  12.705 -0.1662 -0.1876  0.1279
24365W        W40174  12.859   7.911   3.968 -0.0234 -0.0875 -0.0936
24366W        W40175  11.092  13.369  15.363  0.3264 -0.1185  0.1605
24367W        W40176  11.736  16.335   3.210  0.0362 -0.0279 -0.0633
24368W        W40177   5.689   9.279  14.916 -0.4137  0.3257  0.0802
24369W        W40178  15.229  10.063   4.619  0.1293  0.1765 -0.2112
24370W        W40179  12.628  14.873   2.413  0.2109 -0.2526  0.2388
24371W        W40180  15.201   8.384   3.809  0.0868  0.0092  0.1813
24372W        W40181  16.012  17.666   2.716  0.1910 -0.2136  0.0821
24373W        W40182   8.674   6.827  12.418  0.0387  0.3291  0.2365
24374W        W40183   7.837   9.149   2.342 -0.1297  0.0118 -0.3171
24375W        W40184   2.118   6.379  13.249  0.1201 -0.0638  0.1970
24376W        W40185  18.552  10.357  14.765 -0.1930 -0.0629  0.0200
24377W        W40186  10.553   3.125   4.080  0.0640 -0.0436  0.0434
24378W        W40187  14.763  15.442   1.889 -0.0309 -0.1935 -0.2536
24379W        W40188   8.124   5.964   1.002  0.1283  0.2034  0.3107
24380W        W40189  14.206   8.369  12.347 -0.1029 -0.0615  0.0416
24381W        W40190   4.589   1.369   3.404  0.0853 -0.1636  0.2564
24382W        W40191  14.328   0.083  14.782  0.3404  0.1333  0.0102
24383W        W40192   2.108   1.331   9.940  0.0687  0.0446  0.0339
24384W        W40193   4.643  14.542  14.678  0.1601  0.0504 -0.1279
24385W        W40194   5.610  13.206  15.246 -0.3348 -0.1223  0.0236
24386W        W40195   4.942  16.057   4.939  0.1549  0.1055  0.0512
24387W        W40196   8.495  10.827  14.482  0.1652  0.1233 -0.1405
24388W        W40197  15.061  17.433   5.034 -0.0001 -0.1158  0.1744
24389W        W40198   6.001   9.218   1.769  0.1974 -0.2203  0.1960
24390W        W40199   8.682   2.332  12.752  0.2177 -0.0813 -0.0423
24391W        W40200  11.549  16.640  15.299  0.2073 -0.2899  0.2778
24392W        W40201  18.013   2.946   9.854  0.0685  0.1637  0.2280
24393W        W40202  13.045  17.117  12.086  0.0596 -0.3154  0.3499
24394W        W40203   5.962   0.898   4.712  0.2056  0.1564 -0.3610
24395W        W40204   5.585  11.327   4.777 -0.0014 -0.1307 -0.1481
24396W        W40205   0.783   4.779   3.730  0.2129  0.0237 -0.0958
24397W        W40206  17.319   0.716   5.178 -0.1070 -0.3415  0.3003
24398W        W40207  14.571   2.460  12.644 -0.1828 -0.2212 -0.0180
24399W        W40208  18.229  13.444   4.747  0.2829 -0.3068 -0.1242
24400W        W40209   1.519  15.130  14.879  0.3741  0.0438 -0.2135
24401W        W40210  18.589   1.132  13.255 -0.1079  0.2390 -0.1601
24402W        W40211   4.319   1.819  12.237  0.5895 -0.0182  0.2227
24403W        W40212  16.160   5.464  11.901 -0.1290  0.2174 -0.0856
24404W        W40213  16.317   4.538   0.102  0.1582 -0.0490  0.0490
24405W        W40214   4.683   5.168   4.174  0.0279  0.3927 -0.0686
24406W        W40215  14.506   0.270   1.671 -0.2659 -0.1091  0.1592
24407W        W40216   5.973  15.090   2.337 -0.1519 -0.2140  0.1434
24408W        W40217  17.447  14.708   0.790  0.0495  0.0909 -0.1474
24409W        W40218  14.441  10.423  11.717 -0.1751  0.2818 -0.0410
24410W        W40219   2.152  12.998   4.434  0.2126 -0.2499  0.0497
24411W        W40220   7.637  13.627   4.695 -0.0615 -0.2398 -0.0402
24412W        W40221  18.072  11.031  15.326 -0.4501  0.1702  0.1504
24413W        W40222  10.610  14.253   0.644 -0.1140 -0.0601  0.2984
24414W        W40223   1.109  18.057   4.204  0.1219 -0.0490  0.0700
24415W        W40224   0.866  16.481  11.779  0.2802  0.1034 -0.0334
24416W        W40225  13.659   9.396  11.682 -0.0392  0.0825  0.1909
24417W        W40226  16.368  17.324   2.845 -0.4177  0.2956 -0.2212
24418W        W40227   8.683   5.431  14.871  0.2922  0.1151 -0.0527
24419W        W40228  17.307  18.033  15.236  0.2907  0.1334  0.0205
24420W        W40229  16.200   5.756   3.101  0.0500 -0.1032 -0.1886
24421W        W40230   1.647  16.014  14.507 -0.0852  0.0557  0.3394
24422W        W40231   4.010   2.408   1.218  0.1273  0.1531  0.0290
24423W        W40232   8.846  11.198   4.233 -0.3260  0.0026  0.1547
24424W        W40233  18.260   5.380   4.292 -0.0931 -0.2144  0.0187
24425W        W40234   1.344   3.758  13.090  0.2398  0.1380  0.0202
24426W        W40235  10.922  12.046  12.307 -0.0202 -0.1760  0.1633
24427W        W40236   8.001   6.123   2.446  0.1745  0.1464 -0.2485
24428W        W40237   6.360   2.921   4.381  0.0945  0.1185  0.0375
24429W        W40238   5.756   1.357  13.282  0.0662 -0.0804 -0.0927
24430W        W40239   0.248   8.489  14.441  0.1290  0.0698  0.1042
24431W        W40240  13.984  15.980  10.999 -0.0668 -0.1848 -0.0574
24432W        W40241   6.249  14.014  13.002 -0.1672  0.0541  0.1707
24433W        W40242  10.105   5.660  14.468  0.3231 -0.0495 -0.0329
24434W        W40243  13.255   5.312   4.478 -0.1543  0.0414  0.0343
24435W        W40244  13.131   0.008   2.403 -0.2245  0.0518  0.2952
24436W        W40245  12.952   8.376   0.588  0.2067 -0.2927 -0.2966
24437W        W40246   6.363   8.284   0.243  0.0785  0.2246  0.0019
24438W        W40247   7.348   1.022  12.655  0.2054 -0.2111 -0.1547
24439W        W40248   9.431  18.409   0.044  0.0365  0.1012  0.0582
24440W        W40249  13.150  17.340  10.537  0.0551 -0.0563  0.0688
24441W        W40250  13.640   9.347   0.200 -0.1024 -0.2940 -0.0111
24442W        W40251   1.051   8.325  14.914 -0.1508 -0.2237  0.1374
24443W        W40252   7.340  10.812   1.533 -0.1342 -0.0010 -0.0696
24444W        W40253   6.489   0.382  11.342  0.1571 -0.1764  0.1385
24445W        W40254   5.264  16.194   0.668  0.1598 -0.2428  0.1897
24446W        W40255  13.625   8.487  12.804 -0.0211  0.2117  0.1036
24447W        W40256   1.945   1.630  10.379 -0.1244  0.3805  0.0712
24448W        W40257   5.175   1.320  13.086 -0.4102  0.0698 -0.0391
24449W        W40258  10.621   8.661   4.701 -0.2177  0.2703  0.2962
24450W        W40259   7.423   4.813   6.028 -0.2459 -0.1467 -0.1456
24451W        W40260  18.085   5.116   1.670  0.1475  0.1508 -0.0050
24452W        W40261  17.027  13.569  12.911  0.1144  0.0969 -0.1528
24453W        W40262   0.348  18.247   1.566 -0.1927 -0.3516 -0.1600
24454W        W40263   9.994   5.884   3.589 -0.2884 -0.2497 -0.1554
24455W        W40264   2.770   9.378  12.151  0.0681  0.0514 -0.1851
24456W        W40265  14.222  14.950   2.319 -0.2848  0.0197  0.2937
24457W        W40266  18.329  13.879  12.680 -0.0618 -0.1507 -0.0581
24458W        W40267   6.698   5.206  11.015 -0.1779 -0.1286  0.3417
24459W        W40268   6.948  14.872   3.949 -0.2599 -0.3662 -0.0029
24460W        W40269  12.540  18.543  14.515  0.2552  0.1165  0.0025
24461W        W40270  14.046  16.201  12.852  0.2147  0.0912  0.2248
24462W        W40271  18.052  11.956  13.574 -0.3236  0.2012  0.0695
24463W        W40272  11.773  10.218   1.243 -0.1985  0.1179  0.2691
24464W        W40273   2.256  17.054   3.894 -0.0036  0.1223  0.0405
24465W        W40274  15.658  13.507  13.989 -0.0081 -0.1747  0.0994
24466W        W40275   6.760  18.600   1.588 -0.2350  0.1712 -0.1768
24467W        W40276   6.664   7.875  14.199 -0.1656 -0.0188  0.3402
24468W        W40277  18.646   5.022   5.076 -0.0589 -0.0175 -0.1586
24469W        W40278  18.149  11.121   2.183  0.1977 -0.0783  0.0426
24470W        W40279  14.534   3.633  11.831  0.0264  0.0212  0.1721
24471W        W40280  13.249  17.414   0.582  0.3223  0.1739  0.2639
24472W        W40281   3.885   1.158   0.263  0.3067 -0.4109 -0.4790
24473W        W40282   2.149  14.915  10.484 -0.1805 -0.1307 -0.2034
24474W        W40283  11.481  18.582  10.957  0.2943 -0.2237 -0.0559
24475W        W40284   0.257   5.679  13.422 -0.0562 -0.1953 -0.0966
24476W        W40285  11.087  15.157   2.110  0.2480 -0.0173 -0.1618
24477W        W40286   2.993   3.075  11.646 -0.5102  0.1497  0.2731
24478W        W40287   5.565  16.066  14.261  0.0455  0.0134  0.0084
24479W        W40288  18.494  18.215  10.837  0.0289 -0.1818  0.2199
24480W        W40289  14.754   0.115  13.102  0.1801  0.0691  0.4338
24481W        W40290  18.056  13.090  11.663 -0.0791  0.0624  0.2233
24482W        W40291   0.825  13.092  11.006  0.2501 -0.0604 -0.1328
24483W        W40292   6.459   2.687  11.758 -0.2555  0.2227  0.0658
24484W        W40293  17.545   5.021   0.165  0.2113  0.3240  0.2009
24485W        W40294   0.545  15.566   1.232  0.0615  0.1806  0.2464
24486W        W40295  14.134   0.470   4.119  0.0536  0.1472  0.2044
24487W        W40296  12.081   2.949  14.267 -0.0184  0.1253  0.0767
24488W        W40297   1.610   5.292  13.826 -0.1140  0.1144  0.1366
24489W        W40298   3.802   1.113   2.172  0.0905  0.2220 -0.1900
24490W        W40299   1.976  17.544   4.310 -0.3049  0.0095 -0.1952
24491W        W40300  13.796   4.404  11.989 -0.0205 -0.0607  0.2259
24492W        W40301   9.210  17.848   2.991  0.1052 -0.0684 -0.0585
24493W        W40302   7.256   1.503  15.714 -0.0955 -0.0402 -0.0525
24494W        W40303  11.350   1.097   0.986 -0.0944  0.1296  0.4135
24495W        W40304  14.703   7.954   4.579  0.0114 -0.1808  0.2580
24496W        W40305  16.957  13.615  14.968  0.1159 -0.1527 -0.1790
24497W        W40306   0.505  16.738   5.431  0.1141  0.2680  0.1392
24498W        W40307  12.382  14.539  11.667  0.1176 -0.1401 -0.1776
24499W        W40308   3.640  13.772   1.433 -0.0041  0.2296  0.0520
24500W        W40309   3.281   0.688  15.686  0.2416 -0.1079 -0.0642
24501W        W40310  16.804  10.239   2.248 -0.0904  0.1608  0.2979
24502W        W40311   9.928   1.835  14.698 -0.2682  0.0746 -0.0324
24503W        W40312   1.075  18.134   0.455 -0.2716 -0.1169 -0.1024
24504W        W40313  17.987   9.299  15.492  0.2328 -0.0318 -0.0986
24505W        W40314  13.536   6.498  13.729  0.3216  0.0374  0.2487
24506W        W40315  13.625  15.828  14.551 -0.0154  0.1631 -0.0032
24507W        W40316   6.409  17.530   1.402  0.4032  0.0249 -0.1267
24508W        W40317  14.706  13.746   0.217  0.0144 -0.0982 -0.3343
24509W        W40318  14.572  10.498   2.478  0.1312  0.0971 -0.0518
24510W        W40319   4.928   6.702   2.375 -0.0511  0.1324 -0.1238
24511W        W40320  12.191   2.438  11.113 -0.1946 -0.0115  0.1998
24512W        W40321  10.760   6.556  14.651 -0.0853 -0.5034 -0.0605
24513W        W40322  14.882   8.975  12.852 -0.2377  0.0697 -0.0733
24514W        W40323   3.532   2.925   5.658 -0.4866 -0.0047 -0.1530
24515W        W40324  16.358  17.936   0.906 -0.1019 -0.0419  0.0074
24516W        W40325  18.044  14.539   2.061  0.0115 -0.2564  0.0003
24517W        W40326   6.978  14.055  15.738  0.1358 -0.2091 -0.1062
24518W        W40327  10.542  14.169   4.683 -0.3467  0.0083 -0.1998
24519W        W40328   5.282  14.298  13.878  0.1646  0.0114  0.1618
24520W        W40329   3.390   1.152   2.576  0.1184  0.0956  0.1344
24521W        W40330   3.674  17.023  11.401  0.1849  0.0705  0.0175
24522W        W40331  15.460   0.959  14.397  0.0954 -0.0372  0.1941
24523W        W40332  17.286  18.327   0.142  0.2489 -0.2446 -0.0978
24524W        W40333  14.731   3.460  12.713 -0.0597 -0.1327  0.1609
24525W        W40334   9.819   7.335   2.012 -0.1872 -0.0655 -0.2934
24526W        W40335   9.020   9.101   1.910 -0.0868  0.0169  0.1841
24527W        W40336   0.808  10.966  14.123  0.1802  0.0841  0.3410
24528W        W40337   9.466  11.035  10.851 -0.0811 -0.1644  0.1858
24529W        W40338  10.658  15.926  13.646 -0.2038  0.0617  0.1420
24530W        W40339   3.570  15.588   3.459 -0.0292  0.3318  0.0937
24531W        W40340  18.633   8.737   3.961 -0.1307  0.0067  0.1903
24532W        W40341   9.253  15.728   1.412  0.1246 -0.1691 -0.1015
24533W        W40342   4.617  15.800  11.038  0.1785  0.1594  0.1380
24534W        W40343   9.345   7.670   3.966 -0.0603  0.3337  0.0292
24535W        W40344  10.717   7.239   2.849 -0.0346  0.4064 -0.0136
24536W        W40345   2.058   9.119   4.110 -0.4311  0.3255 -0.0061
24537W        W40346  10.997  11.971  14.833 -0.0313 -0.1514  0.0407
24538W        W40347   2.652   4.121   5.636  0.0008 -0.4241 -0.0529
24539W        W40348   6.939   5.417   3.069 -0.1573 -0.0875 -0.0407
24540W        W40349  12.168  15.389  13.125 -0.0787  0.1008 -0.1090
24541W        W40350  11.070  14.357   1.859 -0.0289 -0.1250 -0.1839
24542W        W40351   3.698   5.304  13.574 -0.0208  0.0209 -0.3410
24543W        W40352  13.777   9.574   4.419 -0.1570 -0.0333 -0.2448
24544W        W40353  17.954  14.557  13.327 -0.0833 -0.4326 -0.3652
24545W        W40354  10.671  18.079  15.461  0.0398  0.0152 -0.1569
24546W        W40355   1.827  10.079   4.541 -0.4139 -0.1080 -0.1572
24547W        W40356   0.868   5.820  15.461 -0.0202  0.0904 -0.0095
24548W        W40357  17.673  12.536  12.439 -0.2596 -0.0902 -0.0035
24549W        W40358   7.133   7.064   4.676  0.0054 -0.2225 -0.1835
24550W        W40359  10.381  14.461   0.214 -0.1954  0.1234  0.2049
24551W        W40360   0.745   3.395  15.724  0.2065 -0.0605 -0.1169
24552W        W40361  18.294   0.030  10.684  0.0744  0.1040 -0.1854
24553W        W40362   7.076   3.672  11.451  0.1145  0.0146  0.1049
24554W        W40363  12.914  15.919   0.287  0.0242 -0.1530  0.0237
24555W        W40364   1.640  16.072  12.107 -0.0967 -0.1481 -0.1798
24556W        W40365  14.140   5.341   0.724 -0.4182 -0.2893 -0.0907
24557W        W40366   7.311   9.685   4.420  0.0872  0.1918 -0.2289
24558W        W40367  13.400   5.632   1.669  0.3012 -0.1243  0.0576
24559W        W40368  14.189  10.305  12.164 -0.0213  0.0124 -0.1591
24560W        W40369   2.017  10.920   4.897  0.1891 -0.1082 -0.0949
24561W        W40370   7.543  10.839  12.929 -0.0781  0.1060  0.0483
24562W        W40371   9.918   2.891  13.329 -0.0822 -0.3474  0.1996
24563W        W40372   5.154  17.606  15.377 -0.0372  0.1937 -0.0829
24564W        W40373   6.383   0.002  12.684  0.0864 -0.0378  0.1138
24565W        W40374   0.431  15.502   3.899  0.2072 -0.0117 -0.0174
24566W        W40375  12.666   1.213   0.560  0.0324 -0.3596  0.1456
24567W        W40376  18.386  16.819   0.574 -0.1443  0.3114  0.3481
24568W        W40377   9.453   2.980   2.213 -0.1023 -0.3507 -0.2224
24569W        W40378  11.968  15.415  10.249 -0.0503  0.3364 -0.1557
24570W        W40379   7.901   0.862  13.444 -0.0170 -0.0561  0.0662
24571W        W40380   6.459  16.393  13.903  0.0060  0.2587  0.0148
24572W        W40381   5.159   6.337   4.976 -0.3268  0.2047  0.2220
24573W        W40382  17.899  15.201  12.223  0.1373 -0.2602  0.0598
24574W        W40383   9.753  11.549   4.161  0.0264  0.0220 -0.1246
24575W        W40384  13.504  18.436   3.669  0.0861 -0.0271  0.0507
24576W        W40385   1.163  14.808   2.808 -0.1271  0.3798 -0.2704
24577W        W40386  17.399   4.342   2.521  0.0098  0.1326  0.0830
24578W        W40387   9.070   3.669  12.895 -0.4081 -0.3614 -0.3145
24579W        W40388   7.341   7.415  14.298  0.1044 -0.0420  0.0111
24580W        W40389  13.947   9.555   2.828 -0.1948 -0.6433  0.0575
24581W        W40390   4.939  13.400   1.327  0.1744 -0.3669  0.1002
24582W        W40391   3.269  16.099   2.750 -0.4878 -0.0306  0.3257
24583W        W40392   3.410   1.103   0.126  0.2100  0.0291  0.4539
24584W        W40393  17.201  11.576  14.608 -0.2799  0.2344  0.0555
24585W        W40394  11.801  15.333  14.624 -0.4802  0.4080 -0.2377
24586W        W40395   0.671  16.304  11.096 -0.1005 -0.0175  0.1305
24587W        W40396   0.296   1.357   9.698  0.1032 -0.0644  0.1518
24588W        W40397  15.421   8.285   4.984  0.2707  0.3671 -0.1103
24589W        W40398  10.919   0.426   3.923  0.0055 -0.0535  0.0574
24590W        W40399   5.053   8.715  11.729 -0.1552 -0.0522 -0.1766
24591W        W40400   0.907  17.789  14.032  0.0445 -0.1053 -0.2468
24592W        W40401   1.331  16.574  13.621 -0.1847 -0.0196  0.0306
24593W        W40402  17.579  10.810   3.934  0.1306  0.0045  0.2821
24594W        W40403   4.950  14.937  14.766  0.1637 -0.1571 -0.1139
24595W        W40404  12.980   2.916   1.437 -0.0590 -0.2591  0.1038
24596W        W40405   5.243  10.635   2.797 -0.2349 -0.0940  0.0825
24597W        W40406   7.277   5.314   4.896 -0.3759 -0.0510  0.1295
24598W        W40407  15.604  16.296   2.644  0.0108  0.1005 -0.3207
24599W        W40408   1.595  11.466   5.657 -0.1015  0.0499 -0.2580
24600W        W40409   4.895  12.735  15.627  0.0587 -0.3268 -0.3372
24601W        W40410   8.383   7.211   4.023 -0.0228  0.1158  0.1404
24602W        W40411  16.612  10.847  13.479  0.1966 -0.1149  0.0271
24603W        W40412  16.534   0.894  13.441  0.1170  0.2486  0.0814
24604W        W40413  16.930  14.386   4.988  0.1392 -0.3423  0.1202
24605W        W40414   5.652   4.530  13.833 -0.3350 -0.0590  0.2105
24606W        W40415  10.094  15.355  15.529 -0.3624  0.0176  0.1300
24607W        W40416   6.949   0.900  14.953  0.2745  0.0338  0.2040
24608W        W40417  13.202  11.421   5.423  0.1150 -0.4031 -0.0285
24609W        W40418   5.206  14.643   4.496 -0.1894  0.0589 -0.1713
24610W        W40419  13.524  13.696   3.115 -0.4354  0.1540  0.0885
24611W        W40420  15.549   9.272   3.338 -0.3444  0.2989  0.2956
24612W        W40421   3.932  17.967   0.957 -0.0194  0.0679  0.1841
24613W        W40422  13.517  16.016   2.679 -0.0006  0.0630 -0.2035
24614W        W40423   1.689   3.269   2.463 -0.1903  0.0740 -0.1589
24615W        W40424   2.706   1.218  11.039  0.0053  0.1722  0.2792
24616W        W40425   3.329   2.398   2.027 -0.0107 -0.2894  0.1291
24617W        W40426   5.087   8.422   1.073 -0.1134  0.3301 -0.2351
24618W        W40427   8.582   4.262  12.359 -0.1256 -0.0799 -0.0887
24619W        W40428   0.275  10.112   2.225 -0.1049 -0.0414  0.0600
24620W        W40429   4.251  18.246   3.888  0.2107  0.1599  0.0626
24621W        W40430   2.244   7.372   0.851 -0.2812  0.1434  0.5063
24622W        W40431  12.472  17.207   3.175 -0.0988 -0.1029 -0.0872
24623W        W40432   3.547   8.661  14.378 -0.0893 -0.1987 -0.0851
24624W        W40433  10.106  10.908   9.725  0.0220  0.0312  0.0585
24625W        W40434   1.313   5.623  12.835 -0.0029 -0.0801 -0.0357
24626W        W40435   9.807   7.001  15.252  0.0510 -0.2208 -0.2693
24627W        W40436  12.147  10.194   4.914 -0.4722 -0.1964 -0.4441
24628W        W40437   1.902   9.447   1.604  0.3805 -0.1094  0.0735
24629W        W40438  14.330  15.479   2.219 -0.3019  0.2786  0.0256
24630W        W40439   6.581   0.745   1.371 -0.1747 -0.0633  0.1095
24631W        W40440  13.543  10.726   5.169  0.0713  0.0919  0.2110
24632W        W40441   5.569   3.712   0.601 -0.1071 -0.1474 -0.3258
24633W        W40442  13.065   1.640  12.370 -0.2634 -0.3656 -0.3011
24634W        W40443   3.544  14.233  14.822 -0.0475 -0.2808  0.0337
24635W        W40444   7.294  10.084  13.621  0.2592  0.0086 -0.1743
24636W        W40445  11.009   0.083  12.204  0.1180  0.0221  0.0634
24637W        W40446  12.360   3.348  11.097 -0.0252 -0.0074 -0.1339
24638W        W40447   8.586  13.717  14.283 -0.5486 -0.0880 -0.0612
24639W        W40448   5.180  10.586   4.226  0.0104 -0.0854  0.1003
24640W        W40449   0.461   4.309  15.164  0.1589  0.0768  0.1670
24641W        W40450  18.159   9.524   2.984 -0.2085 -0.0114  0.1776
24642W        W40451  15.653  18.312  14.131  0.3915 -0.4067  0.0608
24643W        W40452   7.047  10.881  14.674 -0.0903 -0.0414 -0.0002
24644W        W40453   2.751   3.674   4.262 -0.2290  0.0807 -0.0020
24645W        W40454  15.780  13.277  12.275  0.2979 -0.1408 -0.1009
24646W        W40455  17.645  13.746   0.228 -0.1699 -0.1801 -0.0354
24647W        W40456   7.977  17.662   2.707  0.2017  0.1070  0.2747
24648W        W40457   0.248  15.768   0.049 -0.0727 -0.0411  0.0852
24649W        W40458   4.152  17.648  11.643 -0.1470  0.0035  0.3074
24650W        W40459   2.818  17.761  12.219  0.1883  0.0622  0.1201
24651W        W40460   8.683   6.935  11.188  0.1259 -0.2275  0.0158
24652W        W40461  16.929  15.771   4.881  0.2827  0.0989  0.0074
24653W        W40462   6.708  11.232  10.986  0.0559  0.0676  0.2629
24654W        W40463  15.213  16.613   4.629 -0.1081 -0.1874  0.0810
24655W        W40464  15.839   6.162   3.350 -0.2299 -0.0644 -0.4166
24656W        W40465  16.854  15.401  10.635 -0.1067 -0.0390  0.0197
24657W        W40466  10.918   4.062  13.709 -0.1355 -0.0690 -0.2038
24658W        W40467  12.542  17.098  14.418 -0.1062 -0.1683  0.1525
24659W        W40468  11.256  17.168  10.829 -0.0691  0.2259 -0.1774
24660W        W40469  12.763  12.200   3.988 -0.0823  0.3149 -0.4648
24661W        W40470  11.611  16.974  15.674  0.1499  0.0775 -0.2029
24662W        W40471  10.070  12.467  14.564 -0.2356 -0.3428  0.1843
24663W        W40472   2.867  14.010   3.089  0.1761  0.1007 -0.3187
24664W        W40473  15.632  11.285   2.694 -0.0898 -0.0466 -0.2349
24665W        W40474   7.784  14.046  12.546  0.2275 -0.0787  0.0077
24666W        W40475  14.982  18.102   0.056 -0.1466  0.0707  0.0074
24667W        W40476  15.553  10.713  15.198 -0.3268 -0.0823  0.3437
24668W        W40477   2.594  15.151  14.207  0.1215 -0.3391  0.1697
24669W        W40478   2.035  11.982  14.428 -0.0153  0.0422  0.3354
24670W        W40479   4.979  15.019  10.981 -0.0981 -0.6186  0.1074
24671W        W40480  17.460  17.117  12.637  0.0448 -0.0146 -0.1005
24672W        W40481  13.159   4.596   9.966  0.1205 -0.0078  0.2145
24673W        W40482  10.518   1.871  11.158 -0.2157 -0.0916 -0.0781
24674W        W40483  11.752   4.620   0.735  0.2936  0.1577 -0.1352
24675W        W40484   2.228   9.834  14.937 -0.0598 -0.0132  0.3574
24676W        W40485  13.393   7.924   0.548 -0.2118 -0.0054  0.3179
24677W        W40486  14.805   2.385   3.984  0.0385 -0.2241 -0.3105
24678W        W40487  18.181   3.415   0.905 -0.0862 -0.1553 -0.0774
24679W        W40488   9.274   6.053  12.551  0.0204 -0.1392  0.2759
24680W        W40489   6.348  10.433   5.173 -0.0837  0.1896  0.4291
24681W        W40490   3.542  10.281   3.482 -0.0739 -0.1691 -0.4062
24682W        W40491   0.262  16.582   4.953  0.1141 -0.2294  0.0080
24683W        W40492   6.306  18.444   2.339  0.1401  0.1580  0.2488
24684W        W40493   2.898  14.426  13.666  0.0297 -0.2160 -0.1051
24685W        W40494  17.335   3.646   0.616  0.3588 -0.3559 -0.1068
24686W        W40495  11.104   6.039  11.616  0.3468  0.1234  0.2245
24687W        W40496   3.847  11.459   0.105  0.0088  0.2623 -0.4774
24688W        W40497  14.349   2.226   0.593 -0.0584 -0.4855 -0.2971
24689W        W40498  16.858  10.096  15.624  0.2960  0.2223 -0.0316
24690W        W40499   0.678  16.510   0.271 -0.0309  0.0469  0.2891
24691W        W40500   9.512   5.775   4.348 -0.0300 -0.3858  0.0461
24692W        W40501   2.927   8.767   3.309  0.0875 -0.0862 -0.1305
24693W        W40502   7.456  11.475   0.291  0.0620  0.0855  0.1357
24694W        W40503   4.846   0.935  13.159  0.5261  0.1693 -0.1376
24695W        W40504  18.271  15.683   1.293  0.4727 -0.1192 -0.0887
24696W        W40505  13.835  10.576  13.664  0.1611  0.2756 -0.1957
24697W        W40506  13.014   3.292  13.849 -0.0593 -0.0494 -0.2199
24698W        W40507  16.855   9.427   0.674  0.1891 -0.0748 -0.2583
24699W        W40508   4.062  10.672  13.821  0.2515  0.2026  0.0386
24700W        W40509  14.846   1.298  15.564 -0.0193 -0.1347 -0.1330
24701W        W40510   7.598  15.067  10.751 -0.0293  0.2973 -0.0203
24702W        W40511   7.683  13.321  12.439  0.1229 -0.0610 -0.0050
24703W        W40512   0.484   5.624   3.905  0.0987 -0.1006  0.0958
24704W        W40513  10.831  13.893   2.006  0.0486  0.1217  0.0042
24705W        W40514   2.989  14.422   1.269 -0.2655 -0.2117 -0.2199
24706W        W40515   0.354  17.713  15.159 -0.3106 -0.1524  0.1280
24707W        W40516   3.988   7.478   1.849  0.2214  0.1050  0.1344
24708W        W40517  10.030  17.995  13.511  0.2228  0.2676  0.2339
24709W        W40518  17.693  10.325   1.035  0.0444 -0.1203  0.1117
24710W        W40519   5.565  14.852   4.754 -0.3491  0.1101  0.1491
24711W        W40520  14.880  12.934   0.852 -0.1615  0.1683 -0.1424
24712W        W40521   6.631   6.905   0.397 -0.0898  0.0938 -0.3927
24713W        W40522  13.281   9.610   0.623  0.0275  0.0365 -0.0577
24714W        W40523  16.534   0.646   3.427 -0.4304 -0.2596  0.0387
24715W        W40524   6.210   6.937  14.500 -0.0445  0.0358 -0.0475
24716W        W40525  15.117   5.949   0.921  0.2193 -0.2954  0.0244
24717W        W40526   1.629  18.473   3.255  0.0333  0.0935  0.0508
24718W        W40527  13.927   0.321   2.520  0.3042 -0.1262  0.1990
24719W        W40528  17.486   0.505   3.438  0.0050 -0.0863 -0.2698
24720W        W40529  12.799  15.283  11.300  0.3794  0.2302 -0.2271
24721W        W40530   4.802  15.391  15.676  0.0481 -0.0364 -0.1152
24722W        W40531   8.044  13.161   2.984 -0.2627 -0.1342  0.4305
24723W        W40532  12.565  16.970   1.846 -0.2252 -0.0095 -0.1654
24724W        W40533  15.553  12.120   2.491 -0.1021  0.0756 -0.1337
24725W        W40534  16.365   8.911  11.750  0.2778 -0.0936 -0.2071
24726W        W40535  18.286   9.055  12.908 -0.1107  0.2629 -0.4033
24727W        W40536   4.985   6.706  14.299 -0.3904 -0.0634  0.1556
24728W        W40537   7.529   0.865   9.473  0.0501 -0.1617  0.3053
24729W        W40538  15.390   3.305   2.946  0.2757  0.2857 -0.0441
24730W        W40539  10.965   8.444   4.143 -0.1586 -0.3717 -0.0859
24731W        W40540  14.860  14.840  12.964 -0.3459 -0.0022 -0.0193
24732W        W40541   1.596  15.068   4.188 -0.1570 -0.2011  0.4335
24733W        W40542   3.928  10.541   1.163 -0.2714  0.0555  0.1118
24734W        W40543   6.781  11.305   5.142  0.0912 -0.1450  0.0343
24735W        W40544  10.713  12.791   1.609 -0.0490  0.1131  0.2871
24736W        W40545  18.408   7.119   2.405  0.0939  0.1155  0.5969
24737W        W40546   0.364  18.420   4.486 -0.0966  0.1272 -0.1580
24738W        W40547   5.378   2.409   0.744 -0.2890 -0.0104  0.1103
24739W        W40548   1.396   9.635  13.107  0.1511 -0.0369 -0.2513
24740W        W40549  10.520   2.861   2.199 -0.0658 -0.1948 -0.0438
24741W        W40550  14.007   0.945   0.262 -0.0924 -0.2971  0.2104
24742W        W40551   4.315   6.181  11.506 -0.2521  0.2220  0.1717
24743W        W40552   7.180  18.279  13.759  0.0282 -0.2949 -0.0494
24744W        W40553  14.551   7.311  10.973  0.1334  0.0602 -0.0146
24745W        W40554  14.914  12.526   2.480 -0.3643  0.0268 -0.1911
24746W        W40555   7.746  14.480  15.631 -0.0675  0.0143 -0.1107
24747W        W40556   6.156  15.951  12.275  0.3784 -0.2764 -0.2342
24748W        W40557  12.335   9.009   5.301 -0.3593  0.2748 -0.1532
24749W        W40558  14.283   6.281  13.480  0.1344 -0.1532 -0.2160
24750W        W40559   4.024  11.623   4.291 -0.2126  0.0045 -0.0752
24751W        W40560  15.145   9.831  13.363 -0.0170 -0.1325  0.0916
24752W        W40561   1.324   4.528   4.933 -0.2013 -0.0800  0.1176
24753W        W40562   8.904  17.020   0.596  0.2197 -0.0663  0.1619
24754W        W40563  14.078   0.532   1.785 -0.0034 -0.1537  0.1260
24755W        W40564   2.534  11.274   0.075  0.3327  0.0716  0.1573
24756W        W40565  15.216  15.219   2.373  0.1158 -0.0767 -0.0174
24757W        W40566   3.488   8.308  11.457 -0.2766 -0.0680  0.0358
24758W        W40567  17.661   6.226  15.678 -0.1687  0.2864  0.5674
24759W        W40568  12.673   8.292   4.341 -0.3583 -0.3531 -0.0831
24760W        W40569  14.645   8.276  14.281 -0.2734 -0.2685  0.0134
24761W        W40570  17.338  15.732  13.662 -0.0442 -0.2470 -0.2676
24762W        W40571   9.356  10.095   3.512  0.1759 -0.1158  0.1688
24763W        W40572   3.110   8.430   0.090  0.1947  0.3147  0.0117
24764W        W40573  11.014  17.339  14.111  0.0353 -0.3166 -0.1001
24765W        W40574  12.899   9.333   2.146 -0.0083 -0.0616  0.1495
24766W        W40575   4.865  12.488  14.774 -0.1124  0.0357  0.1156
24767W        W40576   0.004   8.159  12.511  0.1772 -0.3463 -0.0729
24768W        W40577   5.567   2.940   4.649  0.1952  0.3440  0.3996
24769W        W40578   4.756   7.425  10.365  0.2231 -0.0374  0.0664
24770W        W40579  18.088  18.069   1.742 -0.2057 -0.1297  0.0056
24771W        W40580   2.418  17.673   1.476 -0.1421 -0.2258 -0.2775
24772W        W40581   9.355   6.273   3.447 -0.1369 -0.2341  0.0682
24773W        W40582  14.949   5.200  15.151  0.3381 -0.4944 -0.0296
24774W        W40583  16.923  16.675  13.552 -0.2044  0.2003  0.0282
24775W        W40584  16.646   1.962  12.080  0.3239  0.0310  0.0769
24776W        W40585   6.700   0.340   2.595 -0.0867  0.1612 -0.0117
24777W        W40586  14.314   2.186   3.950 -0.1586 -0.1082  0.0566
24778W        W40587  10.230  13.677  10.238  0.0038 -0.0605  0.1069
24779W        W40588   6.718   6.036  13.001 -0.0810 -0.1318 -0.0865
24780W        W40589   4.653   4.355  13.411  0.3064 -0.2818 -0.0228
24781W        W40590   8.355   5.545  10.764  0.4511 -0.1003  0.1944
24782W        W40591   9.856  16.583   3.825 -0.1275 -0.1815 -0.0512
24783W        W40592  15.561   3.054   3.404 -0.0938  0.1992 -0.0554
24784W        W40593  14.290   0.160   2.183 -0.2531 -0.1027  0.3401
24785W        W40594  14.418  12.722   2.500  0.0419 -0.0435 -0.0431
24786W        W40595  10.176   4.843  15.407 -0.0380  0.1203  0.1213
24787W        W40596  17.705  15.911   4.685 -0.1631 -0.0576  0.1030
24788W        W40597  16.002  18.141   9.592 -0.0258 -0.1259 -0.0114
24789W        W40598  15.963  13.237   4.238  0.3540  0.3629  0.1131
24790W        W40599  16.968  18.322   0.766 -0.0047  0.0650 -0.1433
24791W        W40600  15.089   7.789  13.053 -0.0077  0.4222 -0.1723
24792W        W40601  12.881  10.318  12.455 -0.0366  0.3324 -0.0067
24793W        W40602   9.695   1.024   0.462  0.0884 -0.1429  0.2420
24794W        W40603   2.468  15.956  12.373 -0.2711 -0.0825 -0.2134
24795W        W40604   7.897   3.813   2.290  0.0751 -0.0372  0.0163
24796W        W40605  14.878   8.995   4.911  0.1072 -0.1008 -0.2375
24797W        W40606  11.652  17.680  15.300  0.1308  0.0215 -0.0083
24798W        W40607   8.104   6.761   4.000 -0.2013 -0.3232 -0.1933
24799W        W40608  10.628   6.950  14.387  0.0866 -0.0763 -0.0905
24800W        W40609  17.778   7.608  14.148 -0.1138  0.0106  0.2568
24801W        W40610  11.927   2.162   5.273  0.0992 -0.2614 -0.2448
24802W        W40611  11.373   4.325   0.784  0.1341  0.0492 -0.2552
24803W        W40612  12.696   1.911   2.353  0.3032  0.0093  0.3999
24804W        W40613  18.207  16.340   3.525  0.1384  0.2661 -0.1097
24805W        W40614   3.916  14.986   0.931  0.3299  0.1443  0.0136
24806W        W40615   8.460   4.004  15.587 -0.0437 -0.2309  0.0948
24807W        W40616  12.242   3.493   2.639 -0.1019 -0.2835 -0.1387
24808W        W40617   6.824   9.025   4.117 -0.2690  0.1071  0.0952
24809W        W40618   1.598   9.591   2.437  0.3128 -0.0999 -0.1735
24810W        W40619  18.499   1.994  11.832  0.0323 -0.1281  0.0582
24811W        W40620   4.461   8.485   5.015 -0.3217  0.0157 -0.1774
24812W        W40621  10.670  18.308   3.529 -0.0537  0.0442 -0.1654
24813W        W40622  13.556   8.681  11.907  0.0523  0.1072  0.0853
24814W        W40623   4.426   2.706   4.699 -0.1444  0.1395 -0.0021
24815W        W40624  11.287   3.566   2.925  0.0160  0.2495 -0.0106
24816W        W40625  15.253  15.024  15.706  0.3481 -0.0110 -0.2503
24817W        W40626  16.214  15.558  14.974 -0.0614  0.1353 -0.2919
24818W        W40627  12.095  16.890   0.939 -0.0377  0.1350  0.4486
24819W        W40628  16.819  10.761  10.674 -0.1984  0.3586  0.0960
24820W        W40629   2.577  16.951  10.531 -0.0090 -0.2308 -0.0293
24821W        W40630  16.373  15.487   1.847 -0.2045 -0.1319 -0.1089
24822W        W40631   8.962   4.719  12.930  0.1458  0.0414 -0.1138
24823W        W40632   4.615   2.615  11.654 -0.0622  0.1042  0.1710
24824W        W40633   4.707   8.933  11.314 -0.0578  0.2644 -0.2088
24825W        W40634  18.477  13.993  14.228  0.0714 -0.1950  0.2733
24826W        W40635   8.638   3.751  14.677  0.2381  0.0826  0.1247
24827W        W40636   9.670  15.192  13.533 -0.0369  0.0343 -0.0276
24828W        W40637   5.825  10.920  15.063  0.0557  0.0945  0.2476
24829W        W40638  10.093  13.733   1.501  0.2703 -0.1151  0.1159
24830W        W40639   7.572   3.077  12.571  0.0796 -0.1014  0.1124
24831W        W40640   5.941   9.227   3.122  0.0322 -0.4822 -0.2568
24832W        W40641   7.682   8.658  12.586 -0.1632  0.1146 -0.2060
24833W        W40642   3.833  11.037  10.602 -0.0253  0.1624  0.0477
24834W        W40643   2.690   3.111   0.587 -0.1862 -0.1217  0.1998
24835W        W40644   0.161  17.498  11.386 -0.1617  0.1870 -0.2722
24836W        W40645  15.713   5.483   4.224  0.0337 -0.2005 -0.0944
24837W        W40646  18.537  11.669  11.224 -0.2190 -0.1490  0.0334
24838W        W40647   8.913  13.371   1.048 -0.1042  0.0297 -0.4087
24839W        W40648   8.816  13.948   1.746  0.0605  0.3400 -0.0566
24840W        W40649  10.682  12.178  15.307 -0.2733 -0.3302 -0.1453
24841W        W40650   7.493  14.895   1.366 -0.1008  0.2074 -0.1102
24842W        W40651  13.668   6.988  12.493  0.0183  0.3125 -0.1330
24843W        W40652   6.761   2.296   1.145 -0.0557  0.0193  0.0916
24844W        W40653   8.541  13.840  10.926 -0.2699  0.3499 -0.0850
24845W        W40654   3.971   4.746   0.697  0.0720  0.0278 -0.0240
24846W        W40655   3.602   1.093   1.193 -0.1247 -0.0514  0.2933
24847W        W40656  10.708  11.174   5.024 -0.2434  0.1424  0.1267
24848W        W40657  13.100   4.650   5.829 -0.0584 -0.1284  0.1596
24849W        W40658   7.497   9.997   1.907  0.3507  0.0883 -0.0527
24850W        W40659  15.212  12.260  13.282 -0.0774 -0.4584  0.2575
24851W        W40660   9.041  12.295   1.902  0.0689  0.1835 -0.1937
24852W        W40661  11.870   9.219   4.593  0.3214  0.4795 -0.0998
24853W        W40662   1.300  13.716  14.741  0.1256  0.1435  0.0130
24854W        W40663   5.954  14.619  13.779  0.0476 -0.0014 -0.3143
24855W        W40664   3.373  10.862  14.596 -0.1736 -0.2591 -0.1316
24856W        W40665  14.130  14.812  11.839 -0.2405 -0.3066  0.2915
24857W        W40666   0.734   4.457  14.512  0.1047 -0.0554  0.0065
24858W        W40667   9.960   7.486   1.121  0.1126  0.0052  0.0190
24859W        W40668  11.145   6.410   3.819 -0.0459  0.2472 -0.5935
24860W        W40669   6.865  15.038   3.416 -0.2254  0.0861 -0.3041
24861W        W40670   6.906  15.477  11.051  0.1053  0.1236 -0.1415
24862W        W40671   7.800   9.129  15.392  0.1085  0.0625  0.3486
24863W        W40672  10.721  13.090  15.547 -0.0282  0.1174  0.2586
24864W        W40673   2.852  17.702   3.721 -0.3417  0.1756  0.0808
24865W        W40674   5.260  10.594   1.019  0.2930  0.2108 -0.2030
24866W        W40675  11.391  17.407  15.657 -0.3951  0.0788 -0.3090
24867W        W40676  12.262   0.891   0.585 -0.0194  0.0233 -0.0523
24868W        W40677   5.919   6.380  13.956  0.0232  0.0262 -0.1517
24869W        W40678   8.665  17.012  11.428 -0.2794  0.0981  0.3388
24870W        W40679  16.096   3.370  13.292  0.0599  0.2422  0.1842
24871W        W40680  12.570  10.451   1.118 -0.1238  0.3461 -0.3844
24872W        W40681   9.717   6.557  10.615  0.1838  0.1471  0.1116
24873W        W40682   3.480  15.045   1.808  0.1312  0.3368  0.3561
24874W        W40683  13.192  18.201  10.807  0.0463  0.1529  0.2631
24875W        W40684   9.716   3.611  13.501 -0.1788 -0.0325  0.2540
24876W        W40685  14.693   6.129   4.591  0.1240 -0.4696 -0.2598
24877W        W40686   3.546  18.092  14.168  0.1351 -0.3349  0.0690
24878W        W40687   2.823  16.193   2.093  0.1875  0.1598  0.1764
24879W        W40688  13.965  15.473  10.644 -0.0634 -0.1627 -0.3095
24880W        W40689   6.246   2.089  11.767 -0.0814  0.1266 -0.2139
24881W        W40690   0.645  14.858  15.314  0.1759  0.2647 -0.0361
24882W        W40691  13.109   1.055   0.257  0.3013  0.0433  0.1433
24883W        W40692   2.086   1.649  10.965  0.1240  0.2874 -0.0391
24884W        W40693   5.505   2.096   0.283 -0.2764  0.0507 -0.1856
24885W        W40694   4.282  11.149   2.812  0.0760  0.2498  0.0952
24886W        W40695   3.384  14.052   5.752  0.4692 -0.1504 -0.0303
24887W        W40696  11.209   2.662   4.822  0.0051  0.0377  0.2707
24888W        W40697   3.587  15.931  10.148  0.3270  0.4404  0.0833
24889W        W40698  10.254   1.777  12.021  0.1178 -0.2070 -0.0415
24890W        W40699  18.447  16.690   1.491  0.1265 -0.2501 -0.1681
24891W        W40700   7.332  12.916   4.394  0.2852 -0.1165  0.2118
24892W        W40701  14.256  18.080   3.338  0.2183 -0.1181  0.0418
24893W        W40702  15.388  11.620   4.572 -0.0489 -0.0351 -0.0658
24894W        W40703  16.680   0.133   4.697  0.0005  0.0885 -0.0821
24895W        W40704   4.268  10.368  12.468  0.0048 -0.1243 -0.1354
24896W        W40705   4.184   6.962  14.322 -0.0512  0.2823 -0.0292
24897W        W40706  12.346  11.429   1.077  0.1280 -0.0210 -0.0678
24898W        W40707   4.330   9.283   1.622 -0.2705 -0.1365 -0.0059
24899W        W40708  13.056   7.077   0.855 -0.0306 -0.1982  0.2683
24900W        W40709  10.546  14.260   3.419 -0.1263 -0.3020  0.2828
24901W        W40710   1.713   1.930   0.069 -0.1541 -0.0889 -0.4269
24902W        W40711   8.936  12.973   3.118 -0.0803  0.0957  0.0777
24903W        W40712   0.276  17.477   2.286 -0.2584  0.0836  0.3473
24904W        W40713   7.900  11.100   3.137  0.1201 -0.3278  0.0314
24905W        W40714   9.553  17.173   4.979  0.1168  0.1310 -0.1073
24906W        W40715   0.919   2.623   3.545 -0.2176 -0.0260  0.2458
24907W        W40716  15.250   2.841   4.771  0.3426 -0.0819 -0.0840
24908W        W40717   7.356   1.677   3.443  0.1706 -0.0295 -0.0400
24909W        W40718  12.409  11.634   0.294 -0.0034 -0.0746  0.1786
24910W        W40719   4.915   2.314   2.547  0.2032 -0.0034  0.1756
24911W        W40720  11.785   8.985   1.078  0.1547  0.1879  0.2630
24912W        W40721   6.409   7.412   0.789 -0.2526  0.0907  0.1389
24913W        W40722  15.686   7.533   4.636  0.2421 -0.2934 -0.3227
24914W        W40723   7.054   1.697   0.802 -0.2760  0.0541  0.1401
24915W        W40724  10.122   9.109   3.393 -0.0499 -0.1933  0.0245
24916W        W40725  11.228   7.829   1.803  0.0217 -0.2611 -0.2066
24917W        W40726  13.509   1.955  12.364  0.2003 -0.3234  0.1228
24918W        W40727   9.372   9.595   3.310  0.1272 -0.0397 -0.3790
24919W        W40728  10.923   8.813   9.857 -0.0322  0.0331 -0.1930
24920W        W40729   7.478  17.609   2.332  0.2761 -0.1570 -0.0528
24921W        W40730   0.034  13.386  10.631  0.4325 -0.0789 -0.3023
24922W        W40731  14.152   5.542   3.546 -0.2358  0.0641 -0.1851
24923W        W40732  18.572   5.445  12.928  0.3294  0.1474 -0.0017
24924W        W40733  17.364   8.174  13.925  0.1497 -0.0502  0.1316
24925W        W40734  10.363   6.832   1.674  0.1548  0.1131  0.1489
24926W        W40735  13.665   6.096  12.131  0.2337  0.2677  0.1890
24927W        W40736   4.648  15.127  13.694  0.1507  0.3620  0.1080
24928W        W40737   8.302  11.572   1.290  0.0716  0.2401  0.1532
24929W        W40738   3.395   6.930  14.246  0.1065  0.1367  0.2356
24930W        W40739  11.719   2.015  15.693  0.0446  0.1888 -0.1092
24931W        W40740   2.050   0.910   1.961 -0.1655  0.2041  0.2068
24932W        W40741   9.801   9.467   1.304 -0.1379  0.0097 -0.2364
24933W        W40742  15.622   0.440  13.645  0.2457 -0.4155 -0.1027
24934W        W40743  14.634  11.309  15.581  0.3102  0.1878 -0.2621
24935W        W40744  10.178   9.264  15.326  0.1803  0.0924 -0.0667
24936W        W40745   0.989  15.248   5.318 -0.2847  0.0151  0.1077
24937W        W40746  14.647  14.446   0.945  0.2212  0.1385  0.1252
24938W        W40747   6.220   6.058   0.110 -0.2987  0.0251 -0.1388
24939W        W40748   5.205   7.182  13.443  0.1345  0.1267 -0.1151
24940W        W40749   0.990   3.861   5.543  0.0373 -0.0198  0.2892
24941W        W40750  16.688  10.021  11.061 -0.0128 -0.1272 -0.0540
24942W        W40751   2.166  16.054   4.893  0.1485 -0.1037 -0.2842
24943W        W40752   9.922   2.319  15.683 -0.0992  0.0894 -0.2433
24944W        W40753   7.880   4.328  11.315 -0.3252  0.0090  0.1010
24945W        W40754   2.232   4.084  12.251  0.0194  0.1398  0.0566
24946W        W40755  17.480   3.825   2.774 -0.0514  0.0160  0.2087
24947W        W40756   6.656  18.119   0.150 -0.0092 -0.2501  0.2557
24948W        W40757  16.200  12.817  12.223 -0.0566  0.0959  0.0795
24949W        W40758  15.810   5.488   2.512  0.0797 -0.1525  0.3770
24950W        W40759   1.931  17.864  10.920 -0.0286 -0.0411  0.0197
24951W        W40760  10.692   2.415   1.432 -0.0041  0.1163  0.0380
24952W        W40761   9.262   1.002   3.778 -0.1475  0.0434  0.2635
24953W        W40762   0.451  14.236   2.568  0.1408  0.0873 -0.1704
24954W        W40763   4.457  16.729  10.048 -0.3240  0.0327  0.1464
24955W        W40764   2.253  11.671  11.844  0.0517 -0.0819 -0.0373
24956W        W40765  13.434   7.272  12.086 -0.2138 -0.1633  0.3366
24957W        W40766   6.578  10.261   5.586  0.1050  0.1204 -0.1219
24958W        W40767  16.543   5.512  14.391 -0.0468 -0.1193 -0.0367
24959W        W40768   7.571   8.780   0.953 -0.0484 -0.1735  0.2719
24960W        W40769  15.337   6.343   3.771 -0.0295  0.0332 -0.2054
24961W        W40770  18.556  10.673  11.534 -0.2175 -0.0495  0.1015
24962W        W40771   9.006  11.586  14.302  0.0894  0.1807 -0.0667
24963W        W40772   4.344   3.011   3.062  0.1683 -0.1698  0.2887
24964W        W40773  13.999  12.983   1.088 -0.0302  0.1083 -0.1855
24965W        W40774   9.457   0.694  15.402 -0.2109 -0.3433  0.2464
24966W        W40775  13.177   1.877  12.837  0.0994 -0.1679 -0.0094
24967W        W40776  17.499   4.235  12.165 -0.0306  0.0089 -0.2014
24968W        W40777   4.978   7.291  15.195  0.3000  0.2077 -0.2339
24969W        W40778   7.803  10.665  11.194  0.1373  0.0215 -0.1796
24970W        W40779  15.537  17.071   0.770 -0.0460  0.1306  0.1308
24971W        W40780   2.670  11.372   3.715 -0.0684  0.0981 -0.1035
24972W        W40781   0.720   8.935  12.213  0.2397  0.2451 -0.1984
24973W        W40782   2.656   0.321   3.709  0.2504  0.1984  0.0970
24974W        W40783  18.503   0.683   3.589  0.4281 -0.0772 -0.0401
24975W        W40784   3.377   6.478  12.197  0.1610  0.1037  0.1724
24976W        W40785  13.097   6.994  11.457 -0.1991 -0.0125 -0.0316
24977W        W40786  15.504  15.334   5.013  0.1325  0.0862  0.2855
24978W        W40787   4.528   3.849   3.776  0.3797  0.0692  0.1192
24979W        W40788   0.760   9.262   3.859  0.1113 -0.1016  0.1330
24980W        W40789   0.819  10.964  14.636  0.0024 -0.1664  0.2170
24981W        W40790  13.001   2.797   2.527 -0.1013 -0.0439 -0.0605
24982W        W40791   4.829  16.388   4.489  0.0792  0.0163  0.5602
24983W        W40792  10.518  11.095   0.323  0.0403 -0.2069  0.2008
24984W        W40793  11.810  16.158   0.393 -0.0975 -0.2742 -0.1048
24985W        W40794   1.948   6.519   2.394 -0.2516 -0.1223 -0.1058
24986W        W40795  14.519  13.611   2.304 -0.2291 -0.2438  0.2000
24987W        W40796   3.927  12.621  11.115  0.0417  0.0761  0.3549
24988W        W40797   2.090   8.149  15.330  0.0466  0.2776 -0.2935
24989W        W40798   6.692  16.705   5.666 -0.2201  0.2554  0.6208
24990W        W40799   1.319   9.167   5.223 -0.2204 -0.1519  0.3623
24991W        W40800  17.277   6.443  13.816 -0.2636  0.0582 -0.0380
24992W        W40801  16.807   3.984   1.777  0.0749  0.1505  0.1436
24993W        W40802  10.546  14.268  12.413  0.1059 -0.0917  0.0701
24994W        W40803  16.593   9.492   2.788  0.1934 -0.1035 -0.2031
24995W        W40804   9.820  15.140  12.582 -0.3225  0.2176 -0.1027
24996W        W40805   6.631  12.773   2.941 -0.1378  0.2229  0.3311
24997W        W40806   0.111  11.716  12.503  0.2395 -0.0702  0.2631
24998W        W40807   4.376   0.740   0.368  0.1724 -0.0020 -0.0678
24999W        W40808  11.576   5.122   4.269  0.4100 -0.4057 -0.2563
25000W        W40809  10.431   2.395   2.094  0.0533  0.0401 -0.1260
25001W        W40810   8.043  18.232   2.045  0.2578 -0.3515  0.3530
25002W        W40811   9.902  18.182   5.172 -0.0336 -0.1620  0.0372
25003W        W40812  11.113  10.975   4.684  0.3197  0.0831 -0.0572
25004W        W40813   4.337  12.483   0.061 -0.1124 -0.2235 -0.1381
25005W        W40814   1.140  11.138   4.136  0.0598  0.3843  0.2411
25006W        W40815  13.949   9.576  14.774 -0.0697  0.0257  0.2786
25007W        W40816  17.943  14.601   1.168  0.1510 -0.2809  0.1621
25008W        W40817   4.228  18.032   2.975 -0.0414  0.2355  0.1314
25009W        W40818   6.362  11.711   2.053  0.0570 -0.1153  0.2521
25010W        W40819   5.164   4.442  13.634  0.0386  0.2710 -0.1558
25011W        W40820  10.770   2.008  11.945  0.0785 -0.4064  0.1046
25012W        W40821   9.776  18.041   0.363  0.2872 -0.4325  0.2216
25013W        W40822   8.076   3.660  15.537 -0.2819  0.0643  0.0310
25014W        W40823  16.259   0.004  15.242 -0.0713 -0.0548 -0.0790
25015W        W40824  17.209   3.514  12.234 -0.0772  0.1694 -0.1594
25016W        W40825   1.044  10.181  11.304 -0.1797  0.0119 -0.0964
25017W        W40826   7.556  14.106   1.514  0.2615 -0.0752  0.0071
25018W        W40827   4.754   6.640  12.176 -0.0706  0.1399 -0.3222
25019W        W40828  17.209   6.711   1.885  0.2522 -0.1530  0.0145
25020W        W40829   7.611   9.456  12.140  0.2353 -0.0593 -0.1534
25021W        W40830   4.192  15.702  11.801  0.2331  0.0845 -0.0842
25022W        W40831   3.632  11.721   3.011 -0.0933 -0.1461 -0.1048
25023W        W40832   3.299   1.592  11.885  0.3890 -0.1479  0.2140
25024W        W40833   3.716  15.386  12.779 -0.2332  0.2279  0.3072
25025W        W40834   8.976   8.575   1.824  0.2851  0.2099  0.1466
25026W        W40835  17.433  13.316  14.966  0.1492 -0.0028 -0.0129
25027W        W40836   0.577  11.418  14.866 -0.0197 -0.0047 -0.0658
25028W        W40837   6.653   3.330   3.185 -0.0283  0.0487 -0.0261
25029W        W40838  14.108   4.872   5.294  0.0031  0.0585 -0.0796
25030W        W40839  10.994  17.998  13.409 -0.2870  0.3655  0.1466
25031W        W40840   1.716   8.845  11.052 -0.3419  0.0480 -0.4084
25032W        W40841   3.342   1.282   3.848  0.1450  0.2417  0.1034
25033W        W40842  14.643   1.221   4.015  0.0745 -0.0441 -0.1866
25034W        W40843  15.312  14.753  14.235 -0.1053  0.0878 -0.3829
25035W        W40844  10.786  17.341  12.318 -0.0993  0.0239 -0.1661
25036W        W40845  13.437  12.075  10.969  0.3508 -0.0315 -0.2242
25037W        W40846   9.980   8.908   1.288 -0.0359  0.2774  0.1201
25038W        W40847   9.743   5.567  14.769  0.4586 -0.1666  0.3527
25039W        W40848   8.461   7.656  14.997 -0.0811  0.1008  0.1432
25040W        W40849   0.718   8.480   4.410 -0.1135 -0.1673 -0.1561
25041W        W40850  14.382   6.733   4.917  0.2927 -0.0944 -0.0812
25042W        W40851   8.476   3.244   4.154 -0.0695 -0.2632 -0.4408
25043W        W40852   6.368   3.459   4.791 -0.2260  0.0247  0.1225
25044W        W40853   3.434   0.606   0.432  0.0114  0.0191 -0.0810
25045W        W40854   5.577  15.070  11.122  0.0012  0.2815  0.1995
25046W        W40855   8.075  12.842  12.423  0.1675  0.2582  0.0484
25047W        W40856  13.377   4.048   2.122  0.1118  0.0057 -0.0959
25048W        W40857  14.096  15.158  11.477 -0.1629 -0.0643  0.2754
25049W        W40858   0.842   8.674  15.213  0.2710  0.1537 -0.1028
25050W        W40859   5.206  16.427   4.127  0.3854 -0.0360 -0.2793
25051W        W40860   1.610  17.239   4.479  0.0215 -0.2065 -0.3442
25052W        W40861   7.893  17.114   1.622 -0.0969 -0.1292 -0.0523
25053W        W40862  18.293   8.250  15.162  0.0614 -0.3278  0.0207
25054W        W40863  15.804   0.430  12.486  0.0159 -0.0367  0.2088
25055W        W40864  18.533  16.654   2.570  0.1461  0.0623 -0.1501
25056W        W40865  15.565  17.634  11.221 -0.0696 -0.1122 -0.1119
25057W        W40866  17.418  17.522  12.268  0.1338 -0.0899  0.0578
25058W        W40867   0.278  16.251  15.201  0.0481  0.1139 -0.2465
25059W        W40868   1.028   0.349   6.161  0.0648  0.0982  0.3600
25060W        W40869   4.767   7.530  14.783  0.0623 -0.1725 -0.1418
25061W        W40870  12.437  15.469  11.676  0.2054  0.3811 -0.0480
25062W        W40871  16.515   9.635   1.816  0.2255  0.2448  0.1393
25063W        W40872  15.183   7.837  10.975 -0.2090 -0.0020  0.0264
25064W        W40873   1.952   1.900   2.059 -0.0516  0.1586 -0.0401
25065W        W40874   7.472  18.421   1.127 -0.2867  0.0566 -0.1409
25066W        W40875  10.095  11.103   0.724  0.0789 -0.3647  0.0607
25067W        W40876  14.700  10.810  12.610  0.1965  0.1291 -0.0898
25068W        W40877   3.455   5.897  12.314  0.0848  0.0025 -0.2197
25069W        W40878   9.865   8.755   1.730 -0.2106  0.0704  0.2376
25070W        W40879   4.057  16.255  11.078  0.1032  0.2044  0.1004
25071W        W40880  12.432   1.656  15.172 -0.0056 -0.0550 -0.1804
25072W        W40881   6.199  17.286  15.286 -0.0019 -0.0204  0.1015
25073W        W40882   8.496   5.899   0.490  0.2560 -0.0745 -0.3364
25074W        W40883  15.910   2.274   3.279  0.1733 -0.1533 -0.0393
25075W        W40884   9.765  18.650   4.959  0.1603  0.1289  0.2846
25076W        W40885   0.820   3.512  15.163  0.1951  0.2145  0.2049
25077W        W40886   4.593  18.251  13.008 -0.1767 -0.0268  0.2386
25078W        W40887  16.591  11.939   3.861 -0.1803 -0.2819 -0.0461
25079W        W40888  15.366   1.300  10.800 -0.2452 -0.1152  0.3823
25080W        W40889   4.666   7.729  12.208  0.0086  0.1490  0.1029
25081W        W40890   4.238  13.444  14.450  0.1179  0.1515 -0.4668
25082W        W40891  14.931  18.645   9.428  0.3138  0.0062 -0.2837
25083W        W40892  13.368   5.604  11.278 -0.0862 -0.1249  0.1085
25084W        W40893   8.671  11.899  15.625  0.3494  0.2073  0.1875
25085W        W40894   9.065  13.362  13.369 -0.3116  0.0439 -0.1448
25086W        W40895   3.222   6.203   1.789 -0.2917  0.2056 -0.1842
25087W        W40896  10.674   0.701  13.363 -0.0708  0.1879 -0.0348
25088W        W40897  10.733   8.488  12.594  0.1593 -0.4994 -0.0257
25089W        W40898   9.346   2.529   5.024 -0.1359  0.2338  0.1176
25090W        W40899  14.376  15.777   2.612 -0.4043 -0.2693 -0.0004
25091W        W40900  17.558   9.493   1.263 -0.2596 -0.2637  0.1268
25092W        W40901   5.296   3.532  13.788 -0.0160 -0.2023  0.0457
25093W        W40902   5.542  16.541   0.391 -0.1473  0.0189 -0.4477
25094W        W40903  12.674   0.214   9.902 -0.0937  0.0538 -0.0952
25095W        W40904  13.693   8.671   1.046 -0.1116 -0.1053 -0.0729
25096W        W40905   4.431   5.091  12.252  0.1707  0.1724  0.0086
25097W        W40906  12.720  11.889  14.272 -0.2402  0.0699 -0.4325
25098W        W40907   1.173  12.330   3.343  0.0645  0.1823  0.0953
25099W        W40908  13.759   2.890   0.372  0.3345 -0.1234 -0.1104
25100W        W40909  12.466   3.991   0.147 -0.4320  0.1672 -0.3346
25101W        W40910  18.631  17.775   1.475  0.2891 -0.2061  0.1810
25102W        W40911  12.115  14.006  12.728  0.0396  0.1972 -0.0950
25103W        W40912   5.209   5.979   0.425 -0.1071  0.1841 -0.2412
25104W        W40913   2.412  17.444   3.551  0.3037 -0.0236 -0.0581
25105W        W40914  17.479  15.799   3.502  0.0914  0.2061  0.3266
25106W        W40915   8.115  11.980  14.253  0.1276 -0.0583  0.0397
25107W        W40916   5.138  15.529  11.064 -0.2360  0.0250  0.0009
25108W        W40917  13.187   3.248   2.661 -0.1439  0.0121 -0.0334
25109W        W40918  16.239   5.924  14.753  0.3814 -0.1466 -0.1787
25110W        W40919   1.786   6.155   3.167  0.0691  0.1359  0.3354
25111W        W40920   5.596   9.853  12.023  0.2900  0.0367 -0.2503
25112W        W40921  14.227  11.450   2.799  0.2208  0.1152  0.0909
25113W        W40922   5.689   4.882   2.295  0.3759  0.0503 -0.0069
25114W        W40923   7.508  10.307   2.316  0.2089  0.1458 -0.0211
25115W        W40924  14.390   0.471  14.313  0.0535 -0.1760 -0.1710
25116W        W40925   6.295  13.247   0.064 -0.0913  0.2272 -0.3517
25117W        W40926  12.821  16.683  13.144 -0.2068  0.3953 -0.2724
25118W        W40927   0.222   1.600   2.101 -0.0186 -0.1725  0.0941
25119W        W40928  13.987  14.367   5.360 -0.0755 -0.0487  0.1479
25120W        W40929   2.142  15.756  12.810  0.2466 -0.2330 -0.2395
25121W        W40930  17.540   6.854   3.820 -0.2196 -0.0865 -0.0771
25122W        W40931  14.730  10.131   1.015  0.0093 -0.1256 -0.2183
25123W        W40932  10.857   6.513   0.984 -0.0521 -0.2479 -0.0499
25124W        W40933   1.532  14.343   5.391  0.1488  0.3441  0.1975
25125W        W40934   9.698   1.062  10.308  0.1400  0.2339 -0.0222
25126W        W40935  13.875  12.030  12.119 -0.2519  0.0026 -0.0142
25127W        W40936  11.598   4.484  12.499 -0.2174  0.3431  0.0148
25128W        W40937   8.895  15.352   5.193 -0.2123 -0.0926 -0.1827
25129W        W40938  12.408   7.697   3.173  0.1515 -0.1839  0.2618
25130W        W40939  16.285   4.317   0.894  0.2665  0.0170  0.3683
25131W        W40940  15.020  12.747  10.782  0.0891 -0.1586  0.1664
25132W        W40941   3.527  17.345   4.964  0.1385 -0.2980  0.1812
25133W        W40942   0.105   3.971  15.068 -0.1467  0.0141  0.0516
25134W        W40943   0.481  14.027  12.650  0.1259 -0.1555 -0.2413
25135W        W40944  16.495  14.891   3.092 -0.1018  0.3291 -0.3330
25136W        W40945  13.764  17.060  15.486 -0.0243  0.2474 -0.1016
25137W        W40946   9.174   5.331   0.913 -0.2180  0.1775  0.1621
25138W        W40947  12.090  14.013  10.623  0.3439  0.1855 -0.1417
25139W        W40948   9.507   1.140   1.313  0.4045 -0.0378 -0.3370
25140W        W40949  15.836   7.260  14.581 -0.3207  0.0283 -0.1911
25141W        W40950   0.650   6.957   4.095 -0.1272  0.1760 -0.1520
25142W        W40951  13.584  10.793  14.148 -0.0386  0.0573 -0.1211
25143W        W40952   9.525   6.855   1.174  0.0786  0.2767  0.2459
25144W        W40953   0.725   8.845   5.188 -0.0305 -0.2379  0.2526
25145W        W40954  14.075   7.765  15.150 -0.2006 -0.0656  0.1520
25146W        W40955   1.657   6.918  14.624  0.0827 -0.0332 -0.2330
25147W        W40956   8.574  11.407   1.696 -0.2348 -0.1446 -0.3456
25148W        W40957   7.657  14.735  14.279  0.0641 -0.1051  0.1616
25149W        W40958  10.326   2.221  12.229  0.2330  0.1233 -0.0651
25150W        W40959  10.164   9.968   2.372 -0.0644 -0.0042  0.1545
25151W        W40960  16.712  10.599   1.486  0.0447 -0.0642 -0.0043
25152W        W40961  15.166   6.576   2.641 -0.0321  0.0333  0.0987
25153W        W40962  17.595  13.802   4.741  0.0328 -0.1333  0.0306
25154W        W40963   5.137   1.021   1.060  0.3014 -0.1468 -0.0532
25155W        W40964  13.226   9.132  11.544  0.0118 -0.0984  0.3161
25156W        W40965   2.967   3.349   4.528  0.1015 -0.3134  0.1105
25157W        W40966  15.504  11.038   3.680  0.2259 -0.1452  0.0169
25158W        W40967  13.124   1.063   0.747  0.0004 -0.1879  0.0460
25159W        W40968   9.090  15.607  14.792  0.0363 -0.0824  0.1405
25160W        W40969  16.217   6.278   4.322  0.0790  0.0466  0.3030
25161W        W40970  13.159  17.347   2.672 -0.1949 -0.2512  0.2212
25162W        W40971  17.844   0.947  10.227  0.2471  0.0479  0.1346
25163W        W40972   0.121   6.417   1.256  0.0149 -0.3613  0.0767
25164W        W40973  14.115   0.924   1.222  0.1085  0.0425 -0.1165
25165W        W40974  11.626  16.957  11.468  0.0030 -0.3080 -0.1810
25166W        W40975   7.658   3.514  12.400 -0.0034 -0.1533 -0.0967
25167W        W40976  12.455   4.090  11.153  0.3367  0.3622  0.0115
25168W        W40977   7.197   4.786   0.163 -0.0431 -0.2245 -0.1215
25169W        W40978   3.036  13.842   4.743 -0.0892  0.0015 -0.0201
25170W        W40979   6.646  14.033  14.353 -0.0191  0.0911 -0.1323
25171W        W40980   5.626   4.812   1.378  0.4509  0.1860  0.3327
25172W        W40981   3.548   0.974  12.261 -0.2154  0.1868  0.3011
25173W        W40982  14.138  11.637   1.775 -0.1727  0.0186 -0.2791
25174W        W40983   1.063  17.156   0.605  0.2540 -0.0814 -0.3774
25175W        W40984  17.916   6.934   4.855 -0.0439 -0.3883 -0.1017
25176W        W40985  14.909   0.916   2.448 -0.0833  0.1656  0.1289
25177W        W40986  12.430  18.045  13.373 -0.1015  0.0895 -0.1216
25178W        W40987   2.935  15.727   1.940 -0.1090  0.1113  0.1021
25179W        W40988   9.768   9.577  14.408 -0.1212  0.3463  0.1190
25180W        W40989  12.855  13.441  12.800  0.3053 -0.2604  0.0627
25181W        W40990  12.525   6.066  10.715  0.0295  0.1888  0.1088
25182W        W40991  16.282   4.240  15.398  0.0157  0.1023 -0.2467
25183W        W40992  13.100   2.114  12.097 -0.1428 -0.0842  0.1529
25184W        W40993   5.268   8.645   0.341 -0.0373  0.1888 -0.0542
25185W        W40994   9.680   6.182   4.748  0.0802 -0.1371 -0.0546
25186W        W40995  12.634  15.013  15.519  0.0230 -0.0742  0.0665
25187W        W40996   2.445   8.024   1.541 -0.0303 -0.1638 -0.1534
25188W        W40997   6.689   0.436  14.789 -0.0581  0.0986 -0.1769
25189W        W40998   4.838   3.105  10.018  0.1421  0.1185  0.0440
25190W        W40999   0.565   8.097   0.491  0.1333  0.1127 -0.1773
25191W        W41000   6.206  14.284   3.539 -0.0809  0.2893  0.1432
25192W        W41001  15.532   1.721  11.706 -0.1945  0.3267  0.3017
25193W        W41002   9.024  16.802  12.358  0.1019 -0.3660  0.0738
25194W        W41003   2.364   9.306   6.133 -0.0049 -0.2529  0.0108
25195W        W41004   9.544   5.659  13.701 -0.1915  0.0384  0.2250
25196W        W41005  17.419  14.203   1.087 -0.0875 -0.1698 -0.1732
25197W        W41006   4.820  14.305   2.758 -0.0386  0.1800 -0.1800
25198W        W41007   5.817   9.604   1.507 -0.0303  0.3144 -0.1041
25199W        W41008  13.990   7.260  11.529 -0.1013 -0.0590  0.3143
25200W        W41009   9.679   7.033   0.719 -0.1433 -0.1943  0.0393
25201W        W41010   7.007  16.452   0.288 -0.1336  0.2058  0.0066
25202W        W41011   9.898   1.555  15.578 -0.2398  0.1672 -0.0697
25203W        W41012   3.986   2.042   4.876 -0.0220  0.0657  0.1314
25204W        W41013   6.429  14.701   4.681  0.1380 -0.1322 -0.1941
25205W        W41014  17.808   5.184   4.548 -0.1090  0.0142  0.1518
25206W        W41015   0.770  17.796   2.386 -0.0050  0.2674  0.0899
25207W        W41016   9.115   2.276  15.048  0.0181  0.2855  0.0444
25208W        W41017   7.482   1.515  12.613  0.0239  0.0099 -0.0710
25209W        W41018  10.300   0.075   3.703 -0.0257 -0.3133  0.1013
25210W        W41019  12.784   1.655   0.889 -0.1309  0.0164 -0.2822
25211W        W41020  10.579  13.808  11.040  0.1349  0.1163  0.0012
25212W        W41021  18.334   3.194  11.200  0.1167  0.2423  0.0745
25213W        W41022   8.695   4.615   3.337 -0.0356  0.2651  0.2972
25214W        W41023   6.511  15.766  10.928  0.2682  0.3943  0.0128
25215W        W41024   7.680   3.313   1.456  0.2561  0.1179  0.0138
25216W        W41025   7.899   7.359  15.610 -0.2010 -0.3825  0.3720
25217W        W41026  16.990   3.364  15.580  0.0746 -0.0302  0.2608
25218W        W41027   5.877   8.379   2.096  0.1464  0.1353 -0.0632
25219W        W41028  11.718   8.655  14.305 -0.0266  0.0239  0.0776
25220W        W41029  12.579   0.113   1.827  0.0447 -0.3646 -0.2900
25221W        W41030   1.634  13.242   2.636 -0.2363 -0.1671  0.1443
25222W        W41031  13.240   2.366  11.408  0.0826  0.0148  0.1229
25223W        W41032   5.910  12.213  10.306 -0.3589 -0.1312  0.0157
25224W        W41033  17.268  14.051   0.077  0.1149 -0.0618 -0.1999
25225W        W41034  13.170   6.935   0.223 -0.0819 -0.1512  0.1341
25226W        W41035  16.846  15.504  13.656 -0.1382  0.1597  0.2138
25227W        W41036  17.964  16.742   5.508 -0.1834  0.1956 -0.1778
25228W        W41037   3.479   2.581  14.588  0.3346 -0.1032  0.1253
25229W        W41038   0.402   0.601  11.974 -0.2993  0.0010  0.1884
25230W        W41039   3.283  13.728  12.640  0.0626 -0.1217  0.0306
25231W        W41040  12.662   3.220   4.228 -0.1780  0.0175 -0.2068
25232W        W41041  13.537   1.073   2.306 -0.0734 -0.1101  0.1436
25233W        W41042   0.509  17.937   4.367 -0.0152 -0.0636  0.0040
25234W        W41043  11.260   3.391  12.262 -0.1430 -0.3044  0.0159
25235W        W41044   4.696  17.460  14.670  0.0360  0.0318 -0.0332
25236W        W41045   0.264  13.243  12.317 -0.2899 -0.1878 -0.0729
25237W        W41046  15.791  16.183  15.603 -0.2269 -0.0068 -0.2192
25238W        W41047  12.572  12.950   2.378 -0.1214  0.1769 -0.0044
25239W        W41048  18.060  12.536   6.063 -0.0538  0.0163 -0.0519
25240W        W41049   8.491  18.335   4.576 -0.1938  0.0287 -0.4032
25241W        W41050   9.268   6.879   6.171  0.0479 -0.2343  0.0539
25242W        W41051   9.718  18.018   2.810  0.0045 -0.0273  0.0801
25243W        W41052  15.083  12.119  12.259 -0.0035  0.0810  0.1872
25244W        W41053   8.451   2.414   4.730  0.3287  0.2419  0.1638
25245W        W41054  16.552  17.656  13.218  0.0480 -0.0164  0.1749
25246W        W41055  12.122  12.210  13.997 -0.0924  0.1666 -0.1546
25247W        W41056   3.980   0.018   1.344 -0.1721  0.0835 -0.0692
25248W        W41057   3.088  15.203  14.443 -0.2149 -0.1240  0.1519
25249W        W41058   3.304  10.418  15.557  0.3241  0.0139 -0.2359
25250W        W41059  13.885   4.188   0.297 -0.2967  0.1923 -0.1419
25251W        W41060   2.362   3.981   4.240  0.0531  0.1805  0.0713
25252W        W41061  17.093   0.962   4.824  0.3107 -0.0228 -0.2792
25253W        W41062   5.108  10.471  13.465 -0.0226 -0.0308  0.1988
25254W        W41063   4.299   7.851   3.102 -0.1505 -0.5638 -0.1191
25255W        W41064   6.630   6.490  12.729 -0.4091 -0.0419  0.0022
25256W        W41065   0.709   5.822   6.223  0.0233  0.2304 -0.2515
25257W        W41066   2.265  15.313  13.664  0.3740  0.0395  0.0658
25258W        W41067   3.097  16.795  15.543  0.0499  0.2481  0.1227
25259W        W41068  15.622  14.884   1.654  0.4192  0.1040 -0.0826
25260W        W41069   9.528   3.846  10.547 -0.0244  0.1215  0.3248
25261W        W41070   3.936   2.405   2.071  0.2792 -0.1476 -0.2345
25262W        W41071  16.745  15.421  14.166  0.1957  0.2557  0.0261
25263W        W41072   7.331  18.423   5.038  0.0115 -0.0999  0.1140
25264W        W41073  11.712  17.320  10.607  0.0175  0.2256  0.1822
25265W        W41074  11.188  12.255  11.761  0.0033 -0.0041  0.0749
25266W        W41075   9.765   9.676  12.186  0.0990 -0.1772 -0.3261
25267W        W41076  16.245  10.040   5.956  0.2013 -0.3102  0.0586
25268W        W41077  11.158   0.952  13.435  0.0561 -0.0482 -0.0529
25269W        W41078   0.905  10.437   2.574 -0.2336 -0.0495  0.4902
25270W        W41079  11.814   5.903  12.909 -0.0412 -0.1491 -0.0618
25271W        W41080   7.964   0.337   0.896 -0.2282 -0.4084 -0.0757
25272W        W41081   9.733   3.748   3.032  0.0746  0.0262  0.3307
25273W        W41082  10.173   8.462  11.796  0.1961 -0.0178 -0.0595
25274W        W41083   9.838   4.343   4.287 -0.1100  0.0048 -0.0927
25275W        W41084   5.356  12.822   3.887 -0.2546  0.0337 -0.0660
25276W        W41085   5.555   4.617  12.359  0.0430  0.3590  0.2308
25277W        W41086  12.730  11.724   2.329 -0.2389 -0.1214 -0.3880
25278W        W41087  15.360  13.919  15.169 -0.0086 -0.1651 -0.0417
25279W        W41088   6.424   3.110  10.759 -0.0581  0.1256  0.0195
25280W        W41089   9.138   2.768  11.033 -0.2545  0.1770 -0.1623
25281W        W41090   5.834  15.861  11.876  0.0442 -0.1884  0.1355
25282W        W41091   3.869   7.462   0.620  0.1146  0.0879 -0.1498
25283W        W41092  11.311   7.155  14.116 -0.1038  0.3357 -0.3622
25284W        W41093   1.721   8.602  13.235  0.1569 -0.1018  0.2847
25285W        W41094   6.672  16.396   1.347 -0.0521 -0.0978  0.1305
25286W        W41095  18.206   6.955  14.484 -0.0321  0.3124 -0.1379
25287W        W41096  14.827  16.987   4.615  0.0343  0.1028 -0.2845
25288W        W41097  14.404   6.644  12.710 -0.1533  0.1443  0.0932
25289W        W41098   2.344   0.734  12.797 -0.1084 -0.1785 -0.0288
25290W        W41099  11.494   9.532  13.635 -0.1571 -0.3197  0.2262
25291W        W41100   6.079   9.552   4.926  0.0130 -0.3083  0.1118
25292W        W41101   2.107   5.744   5.359  0.0467  0.2794 -0.0406
25293W        W41102  10.046  14.814  15.048  0.0992  0.2179 -0.1326
25294W        W41103  16.631   1.387  15.719 -0.1286 -0.0631  0.0979
25295W        W41104   7.292   1.144  11.410  0.0962 -0.3100  0.0079
25296W        W41105  10.225   7.075  14.690  0.1301 -0.0418  0.0655
25297W        W41106  11.291   8.052   4.603  0.1131 -0.1518  0.0208
25298W        W41107  12.442   0.122  15.447  0.0074 -0.1882 -0.2945
25299W        W41108  12.425   8.834   1.786 -0.0959 -0.0428 -0.0086
25300W        W41109  12.159  15.920   3.436  0.0506 -0.0246 -0.1330
25301W        W41110   4.929  16.998  15.476 -0.3991 -0.3941  0.0095
25302W        W41111   2.147  17.094  11.504 -0.1416 -0.2380 -0.1738
25303W        W41112  10.451  15.048   2.998  0.0067 -0.0246 -0.0240
25304W        W41113  14.438  11.313  13.934 -0.2754  0.1526 -0.2515
25305W        W41114   2.015   9.634   2.120 -0.1969 -0.2639 -0.1252
25306W        W41115  16.588  17.469  11.829  0.1222  0.1234 -0.0817
25307W        W41116  17.911   9.701   0.040  0.2455  0.0131  0.1181
25308W        W41117   1.164  16.989   1.939  0.0546  0.0103 -0.1412
25309W        W41118  14.677  14.040   0.645  0.0666  0.0433 -0.0817
25310W        W41119   6.594  10.264   1.295 -0.1300  0.1330 -0.1010
25311W        W41120  17.096   4.224   1.333  0.1883  0.0498 -0.1585
25312W        W41121  16.702   0.622   4.614  0.1519 -0.2807 -0.1969
25313W        W41122   6.665   0.312   1.180  0.1950  0.0123 -0.1335
25314W        W41123  15.763  10.986  14.659 -0.1082  0.1107 -0.0584
25315W        W41124  12.523   6.590   4.829  0.0702 -0.0891  0.0779
25316W        W41125   9.296   8.696   3.929  0.1096 -0.2613  0.1165
25317W        W41126   1.617  10.432   3.702 -0.2239 -0.1173  0.1829
25318W        W41127  13.519   3.354   4.704 -0.1050  0.0116  0.1823
25319W        W41128  14.266  10.903   0.548 -0.1521 -0.1799 -0.2487
25320W        W41129   2.678   4.191  12.459  0.2462  0.2846  0.0477
25321W        W41130   0.235   2.319   1.217 -0.3432  0.1115  0.1293
25322W        W41131  16.559  12.093  12.852  0.1313  0.4685  0.0198
25323W        W41132  13.527   4.323  15.131  0.0218 -0.0955  0.1301
25324W        W41133   2.762   8.960  12.853  0.1999 -0.1563 -0.0859
25325W        W41134   5.349   9.458  13.444 -0.0916 -0.1595  0.2206
25326W        W41135  11.291   5.854   2.491 -0.3540 -0.0517 -0.0915
25327W        W41136   8.662  11.234   0.552  0.0436 -0.3816  0.0164
25328W        W41137   0.193  18.088  12.258  0.1505  0.1349 -0.1065
25329W        W41138   4.467   8.381   4.535 -0.0990  0.0008 -0.0321
25330W        W41139   3.421   6.496   3.167  0.0368  0.0131 -0.1021
25331W        W41140  18.378   1.991   0.519 -0.1939 -0.0515 -0.1492
25332W        W41141   6.919  16.526  11.365 -0.2683 -0.1657 -0.2074
25333W        W41142  10.483   3.384   2.488  0.0069  0.3739  0.2733
25334W        W41143   8.288   7.290  15.279  0.0177 -0.7244  0.1303
25335W        W41144  13.984  15.145  12.861 -0.0864  0.1635  0.0642
25336W        W41145   3.021   9.754   1.685  0.0201 -0.0921 -0.0761
25337W        W41146  13.526  12.661  13.573  0.0698 -0.0981  0.3003
25338W        W41147  16.285   3.313  12.823 -0.0089 -0.2830  0.1997
25339W        W41148   6.637  17.357  12.101  0.5356  0.0473  0.0414
25340W        W41149  17.674   2.875   0.196  0.1255  0.1086  0.0897
25341W        W41150  10.370  12.303  14.973 -0.1442  0.0624  0.3558
25342W        W41151   6.762  15.480   6.111  0.3158  0.3345 -0.0747
25343W        W41152  12.910  16.740   3.235 -0.1818 -0.0746  0.3555
25344W        W41153   6.643   8.839  15.421  0.3816  0.0650  0.1142
25345W        W41154   1.952   9.191   3.556 -0.2603 -0.1193  0.2686
25346W        W41155   0.471   9.188  15.002  0.0413 -0.3503 -0.2993
25347W        W41156   0.640   8.490  11.879 -0.0366 -0.1286 -0.3438
25348W        W41157   8.042  18.516   4.347  0.4134  0.0904  0.1062
25349W        W41158  14.714   9.834  14.396 -0.1692  0.2675  0.1576
25350W        W41159  15.280   9.199  14.938 -0.2278  0.0595  0.1150
25351W        W41160   1.495  17.598  15.485  0.0318 -0.0464 -0.0035
25352W        W41161   4.990   3.531   5.203 -0.1247  0.1447 -0.2310
25353W        W41162   4.400   6.520   3.714  0.1106 -0.3173 -0.0394
25354W        W41163   0.576  18.253  13.854 -0.2288 -0.1798 -0.0136
25355W        W41164   8.581   6.035   4.612 -0.1040  0.2323  0.0138
25356W        W41165  13.247   8.097   3.051 -0.2946 -0.0711 -0.0095
25357W        W41166  17.521   1.734  14.832 -0.3154  0.0434 -0.0120
25358W        W41167   3.469   5.813  10.852  0.2541 -0.1854  0.0210
25359W        W41168   9.188  13.979   2.107 -0.1857 -0.1619  0.1558
25360W        W41169   4.365  15.699  12.304  0.2316 -0.0767 -0.1658
25361W        W41170  12.740   8.381   3.807 -0.0205 -0.0217 -0.1197
25362W        W41171   9.554  11.073  15.325 -0.0602  0.1093  0.1185
25363W        W41172   0.358  17.376  14.192  0.1316  0.2485 -0.0861
25364W        W41173   3.932  16.261  14.297 -0.0450  0.0624 -0.1471
25365W        W41174   6.017   7.403  12.839 -0.0426  0.3919  0.1728
25366W        W41175  16.441  15.929  13.206  0.0012  0.0757  0.1739
25367W        W41176   3.966   5.237  11.421  0.0368 -0.1515 -0.4318
25368W        W41177  15.706   7.172  13.657  0.0094  0.2103 -0.1741
25369W        W41178  17.264   3.901   2.136 -0.1817  0.3055 -0.1203
25370W        W41179   7.726   4.415  11.849  0.0693 -0.0191 -0.3846
25371W        W41180   9.627  10.097  15.388 -0.1064 -0.0651 -0.1205
25372W        W41181  15.197  13.239  15.678  0.0059 -0.0210 -0.2386
25373W        W41182  12.811  11.311  13.751  0.3938  0.2278 -0.1571
25374W        W41183   0.615  10.261  12.252  0.1927  0.0491 -0.0088
25375W        W41184  14.503   7.630   0.091  0.1219  0.0538  0.3070
25376W        W41185   3.369   0.298  11.822 -0.0281  0.0355  0.1314
25377W        W41186  12.906   9.637   1.043  0.0098  0.2407  0.0830
25378W        W41187  14.049   2.974  13.218  0.1374  0.1308  0.0498
25379W        W41188  15.740   6.800   1.154  0.2383  0.0156 -0.4463
25380W        W41189   6.543   0.080  11.714  0.1676  0.2906 -0.2271
25381W        W41190   2.230   8.681   1.857 -0.0015 -0.0013 -0.1809
25382W        W41191  14.312  18.337  11.859 -0.0766  0.1155  0.1390
25383W        W41192  12.183  15.363   0.725 -0.5709  0.1584 -0.3088
25384W        W41193   5.871  10.230  11.835 -0.1351  0.1150  0.0241
25385W        W41194  18.051   5.053  12.253  0.2847 -0.1444 -0.0639
25386W        W41195  12.901  18.528  15.691  0.1868 -0.1432  0.0489
25387W        W41196   3.715  12.642   4.605 -0.2174 -0.1349  0.0764
25388W        W41197   3.888   4.837   4.431  0.1824 -0.5553  0.5643
25389W        W41198  16.789   6.115  12.219  0.0767  0.1904 -0.1543
25390W        W41199   6.486   2.898  14.752  0.2399 -0.4261  0.0425
25391W        W41200  14.293   9.100   1.504 -0.1413  0.1188  0.0739
25392W        W41201  14.737   7.513  14.388 -0.1232 -0.1711 -0.2426
25393W        W41202  14.449   8.079  15.500  0.1252  0.1208 -0.3963
25394W        W41203   1.634  15.995   3.279  0.2914  0.0559 -0.1907
25395W        W41204   2.591  14.017   2.682 -0.1677 -0.0037  0.2971
25396W        W41205  17.945  16.005   2.097  0.0002 -0.0130 -0.2422
25397W        W41206  18.506   7.374   1.047  0.2530  0.0075  0.2676
25398W        W41207   0.756   6.047   3.834  0.3775 -0.2747 -0.0954
25399W        W41208  10.874   7.181  12.945 -0.2250 -0.4535 -0.2866
25400W        W41209  12.766  17.989  11.154  0.0291  0.0992  0.2483
25401W        W41210   9.291  14.067  11.961  0.2322 -0.1435 -0.3203
25402W        W41211  15.433   3.358   5.549 -0.1011 -0.0481 -0.1202
25403W        W41212   0.355   3.645  14.754 -0.1183 -0.0149 -0.1798
25404W        W41213   6.318  17.363  13.679 -0.0998 -0.0425 -0.1906
25405W        W41214  18.580  10.898   2.928 -0.3169 -0.1488 -0.2190
25406W        W41215   1.358   0.694  13.284 -0.4580 -0.0798  0.1588
25407W        W41216  11.774   1.259  11.015  0.1381 -0.4642  0.2091
25408W        W41217  12.531   5.669  13.693 -0.0702  0.2465  0.1665
25409W        W41218  13.558  10.283  11.479 -0.1671  0.0094 -0.2177
25410W        W41219  13.795  10.171   2.107  0.0579 -0.1632  0.0447
25411W        W41220   7.704  11.909  13.925  0.3490  0.0868 -0.0728
25412W        W41221  13.770  12.373   1.890  0.2742 -0.3764 -0.0749
25413W        W41222   1.445  10.722  12.337 -0.2745 -0.3618  0.2443
25414W        W41223  13.840   0.714  15.519 -0.1483 -0.1151  0.0869
25415W        W41224  14.748   0.813  15.679  0.0387  0.3471  0.2126
25416W        W41225   2.532  11.948   6.424  0.0686 -0.0314 -0.0437
25417W        W41226   8.550   3.245   0.954 -0.1390 -0.1726  0.0143
25418W        W41227  12.594   7.498  13.677 -0.3216  0.0798 -0.1765
25419W        W41228   9.184   8.383   4.717 -0.1545 -0.1077 -0.0501
25420W        W41229  16.740   5.058   9.976 -0.2128  0.1080  0.1195
25421W        W41230   3.987   6.347  14.428 -0.2122 -0.0665 -0.0597
25422W        W41231   1.930   8.983   3.025  0.1801 -0.0085 -0.2833
25423W        W41232  18.436  17.356   0.672 -0.0779 -0.0078 -0.2278
25424W        W41233   0.177   0.864   2.649 -0.1777 -0.0057  0.2957
25425W        W41234  18.139  13.069   1.226  0.1342 -0.0979 -0.0003
25426W        W41235  13.101   5.072  13.321  0.2080  0.2727 -0.1589
25427W        W41236   3.376   4.811   1.985 -0.1205 -0.1340  0.2218
25428W        W41237   3.394   4.899   1.130  0.0745  0.3442 -0.2045
25429W        W41238   7.367  16.015  14.204 -0.1454  0.0246 -0.0689
25430W        W41239  15.981  13.872  13.810 -0.1149  0.2077  0.0273
25431W        W41240  18.558  12.764   1.656 -0.0036  0.2161  0.1679
25432W        W41241  14.055   1.427  13.573  0.0275  0.1179  0.0024
25433W        W41242  15.060  14.836  10.005  0.0886  0.1264 -0.1128
25434W        W41243   5.941  12.379   4.424  0.0695 -0.1070 -0.0392
25435W        W41244  14.416  17.957  10.672 -0.2857  0.2451  0.2235
25436W        W41245   2.609  17.377  14.124 -0.1762 -0.0493  0.0286
25437W        W41246  15.102   0.036  15.669 -0.2103 -0.1148  0.2610
25438W        W41247  16.173  13.046  12.672  0.3848  0.0585  0.0359
25439W        W41248   2.315  11.492  14.246  0.1656  0.0657  0.2923
25440W        W41249   3.340   9.767   1.240  0.1763 -0.0506  0.0676
25441W        W41250  13.287  14.290  11.512  0.0868  0.2218 -0.1542
25442W        W41251   7.685   1.408  11.237  0.1350 -0.0003  0.2170
25443W        W41252  12.124  13.553  13.383 -0.0993  0.0680 -0.0290
25444W        W41253   6.113  11.054  10.873 -0.1646  0.0575  0.3900
25445W        W41254  14.341  17.240  14.061  0.1615  0.4403  0.1337
25446W        W41255   6.014  16.955  11.730 -0.1462  0.0058  0.0680
25447W        W41256   2.570   6.000  11.291 -0.3247 -0.1060 -0.2782
25448W        W41257  18.059   8.648  12.628 -0.1355 -0.2087  0.2388
25449W        W41258   4.716   6.548   4.954 -0.4463  0.1376  0.2483
25450W        W41259  13.261   9.237  15.037  0.2788 -0.2213  0.0831
25451W        W41260  14.309  17.034   1.997  0.1413  0.1842  0.1123
25452W        W41261   0.759   4.373   5.006  0.0110 -0.0054 -0.3677
25453W        W41262  11.579  12.767   3.471  0.2739  0.0514 -0.1192
25454W        W41263   6.425  10.221   0.527  0.1785  0.3497  0.0358
25455W        W41264   5.363   6.022  14.013 -0.1262 -0.1143 -0.1659
25456W        W41265  16.068  16.251   9.962 -0.2018  0.4535  0.3391
25457W        W41266  16.136   8.415   1.939  0.1857 -0.0084 -0.1033
25458W        W41267   5.812   8.127   1.145  0.0764 -0.2207  0.1530
25459W        W41268  12.327  17.930  10.231  0.0088  0.3011  0.2117
25460W        W41269  10.096   8.441  14.681  0.0840  0.0779 -0.1917
25461W        W41270   1.881  17.758  12.684  0.2612  0.5088  0.3145
25462W        W41271   9.143   3.557   5.194 -0.0775  0.1192  0.1297
25463W        W41272   6.898   1.673   3.604 -0.0582 -0.0360 -0.0722
25464W        W41273   5.880   1.148   1.893  0.1886 -0.3057 -0.1604
25465W        W41274   8.936   6.902  14.061  0.1420 -0.2319 -0.1492
25466W        W41275  11.375  16.181  15.630  0.0190 -0.2099 -0.1031
25467W        W41276   0.548  13.034  14.094 -0.0549 -0.1172  0.4640
25468W        W41277  12.886  15.194   0.178 -0.1241  0.0165 -0.4103
25469W        W41278  12.879   2.109   1.595  0.3513  0.1219  0.1816
25470W        W41279  12.920   7.159  13.663 -0.1114  0.0414  0.0578
25471W        W41280   2.189   7.904  14.365  0.0282 -0.0742  0.2484
25472W        W41281   0.079   0.316  10.306  0.3197 -0.0078  0.3393
25473W        W41282   4.563  10.181  13.090  0.0906 -0.1773  0.1512
25474W        W41283  13.645   5.729   2.140 -0.1383 -0.1075 -0.1947
25475W        W41284   1.121  13.910   1.038  0.1122  0.2445  0.2386
25476W        W41285   2.975   2.213   3.899 -0.2535  0.1115 -0.0510
25477W        W41286  12.515  13.065  12.662  0.3429  0.1777 -0.4731
25478W        W41287  14.355  18.510  12.959 -0.1155 -0.1777  0.4303
25479W        W41288   5.629   0.518  15.494 -0.1209 -0.1260  0.2862
25480W        W41289   3.568  16.181   4.375 -0.0075 -0.2157  0.0214
25481W        W41290  14.996   8.537   3.378 -0.1398 -0.2669 -0.1226
25482W        W41291  12.108  11.242   1.892  0.0083  0.1578 -0.0136
25483W        W41292   0.345   0.885  13.103 -0.2271  0.3544  0.0829
25484W        W41293  17.056  14.077  15.252  0.2768  0.0096 -0.0805
25485W        W41294   1.851   9.026  11.547  0.0530  0.3922 -0.0263
25486W        W41295  15.377   0.407  11.781 -0.1890 -0.1679 -0.1777
25487W        W41296   6.130   5.968  11.960  0.0370 -0.2736 -0.0261
25488W        W41297  17.350   0.298   4.115 -0.1711 -0.0282  0.0192
25489W        W41298   7.489  17.719  10.590 -0.1831  0.1265  0.1766
25490W        W41299   3.699   3.878   3.050 -0.1292 -0.0671  0.0374
25491W        W41300   8.144  17.272   2.908 -0.0563  0.0018  0.1286
25492W        W41301   9.978   4.314  14.673 -0.2117  0.1690 -0.0177
25493W        W41302   7.408   7.178   3.950  0.2329 -0.1358  0.2234
25494W        W41303   9.069   0.216  11.766  0.1154  0.0205  0.0820
25495W        W41304   3.812  13.299   2.506 -0.0816 -0.1609  0.1359
25496W        W41305  13.774  10.296  11.956 -0.0479  0.0955 -0.1749
25497W        W41306   1.378   5.699   2.499 -0.0911  0.0331 -0.1418
25498W        W41307   3.622  15.515  11.420  0.1684 -0.0669 -0.3808
25499W        W41308   4.696   3.192  11.115 -0.2208  0.1143 -0.2832
25500W        W41309  17.154  11.760   3.063  0.0257 -0.0476 -0.1434
25501W        W41310  12.635  15.902   4.814 -0.1473  0.1294 -0.1320
25502W        W41311  12.077   9.290   1.538  0.0837 -0.2904  0.0764
25503W        W41312  14.352   3.224   5.924  0.1087  0.2371  0.2577
25504W        W41313   0.784  11.717   5.789  0.2638  0.2093  0.2712
25505W        W41314  15.065  15.711   0.255  0.0382 -0.0542 -0.2318
25506W        W41315   6.916  13.021   3.391 -0.2997  0.1888 -0.1680
25507W        W41316   5.999   6.968   0.511 -0.3087 -0.0533 -0.2000
25508W        W41317   7.920  11.768   3.700 -0.1880 -0.0937  0.1489
25509W        W41318  14.618  17.355   2.971  0.1627 -0.0260  0.1428
25510W        W41319   7.141  13.994  14.427  0.0118 -0.0004 -0.0824
25511W        W41320  13.528  14.364   2.281  0.0785 -0.0385 -0.0413
25512W        W41321  16.371   3.080  10.361  0.2476  0.0039  0.0357
25513W        W41322   6.565  16.257  12.185 -0.3047  0.0432  0.0719
25514W        W41323  15.343   1.744   1.061 -0.2489  0.2650  0.0918
25515W        W41324   4.532  14.454  12.591 -0.0809  0.2919  0.1263
25516W        W41325  15.977   4.532   1.308  0.1694 -0.0823  0.2639
25517W        W41326   0.487   8.499   4.001 -0.0074 -0.0242  0.1050
25518W        W41327   7.794   8.153   4.436 -0.1328 -0.0709 -0.3120
25519W        W41328  17.718  16.348   5.250  0.0097 -0.0687 -0.2045
25520W        W41329  10.924   8.067  11.800 -0.1679  0.1528 -0.2749
25521W        W41330  10.577   8.681   3.855  0.2205 -0.2738 -0.2304
25522W        W41331   0.926   5.122  11.355  0.0815  0.1823  0.0395
25523W        W41332  13.768  12.999   4.672 -0.3189 -0.1456 -0.1959
25524W        W41333  18.288   8.245  13.911  0.1487  0.0203 -0.2439
25525W        W41334   6.961  10.862   5.447  0.3193 -0.4121  0.2362
25526W        W41335   9.281   9.556   1.405  0.1034  0.1487  0.0582
25527W        W41336  16.576  13.840   0.364  0.1792 -0.1375  0.2401
25528W        W41337  17.830   8.283  13.625 -0.0545  0.3568 -0.3910
25529W        W41338  13.527  12.532  11.311 -0.4080  0.1294 -0.2641
25530W        W41339  10.381   8.919   5.091  0.2238  0.0536 -0.2058
25531W        W41340   8.138  17.842   5.103 -0.5700 -0.0107 -0.0437
25532W        W41341  15.541   4.905  11.406 -0.2265 -0.0622  0.0466
25533W        W41342  11.178  15.456  13.328 -0.1684 -0.1241  0.0389
25534W        W41343   8.979  14.523  10.705  0.2421 -0.2200 -0.0791
25535W        W41344   0.955   4.625  11.252  0.1451  0.0190 -0.0087
25536W        W41345   6.808   2.295  10.984 -0.2520 -0.2485  0.0446
25537W        W41346   3.735  10.580  15.412 -0.1932  0.0173 -0.2262
25538W        W41347   0.286   0.128  11.837  0.0944  0.2485  0.0353
25539W        W41348   1.832   4.137  11.252 -0.0993 -0.1234 -0.0861
25540W        W41349  17.789   5.026  11.743  0.1901  0.2271 -0.0502
25541W        W41350  18.027   9.041   1.818 -0.1248 -0.1789 -0.1344
25542W        W41351  17.926  12.126   3.109  0.0911  0.0151 -0.0143
25543W        W41352   0.829   0.783  14.445  0.0105 -0.0688  0.1059
25544W        W41353  13.447  10.357  14.400  0.0952  0.0193 -0.2089
25545W        W41354  17.548  18.569   2.385 -0.1865  0.0783 -0.0887
25546W        W41355   4.824  10.374   3.557 -0.0123  0.1512  0.1778
25547W        W41356   5.945  15.440  15.393  0.2004 -0.2785  0.0063
25548W        W41357   8.494   6.156  12.097 -0.2205 -0.0402 -0.1628
25549W        W41358   4.783  10.822   2.435 -0.1564 -0.0736  0.1819
25550W        W41359  18.313  15.574   3.975  0.0800  0.3188 -0.0096
25551W        W41360  15.511  13.489  10.239 -0.1707 -0.1861  0.1108
25552W        W41361  18.066   2.269  11.349  0.1344  0.3805  0.0458
25553W        W41362  15.518   3.745  11.828 -0.1475  0.1388 -0.2727
25554W        W41363  18.366  13.670   4.201 -0.1009 -0.0207 -0.1141
25555W        W41364   6.204   6.893  11.973 -0.1284 -0.1973  0.3868
25556W        W41365  13.846  14.271   1.878 -0.0414 -0.3234  0.0213
25557W        W41366   8.567   4.383   4.956  0.1443  0.1263 -0.0860
25558W        W41367  14.831   4.054   4.647  0.0049  0.1799  0.2942
25559W        W41368  17.097   7.264  15.329  0.3263  0.5023  0.1824
25560W        W41369   4.812  13.977   5.022  0.0563 -0.2329 -0.1722
25561W        W41370  10.157  15.216  13.508  0.0003 -0.1344 -0.0037
25562W        W41371  16.170  14.050  10.329 -0.2102 -0.1687 -0.2293
25563W        W41372  14.926  11.459  13.749  0.2452 -0.0668 -0.1340
25564W        W41373   2.953  18.544   0.247 -0.2697  0.2121 -0.3019
25565W        W41374   5.597  14.345  14.578  0.2981  0.0286  0.0654
25566W        W41375   5.639  12.013  12.482 -0.1548 -0.3213  0.1334
25567W        W41376   2.266   4.104  12.727 -0.1001  0.0686 -0.4467
25568W        W41377  16.469  12.223   2.452  0.2537  0.3045 -0.2329
25569W        W41378   1.956   9.801   3.064  0.2316  0.0786  0.1077
25570W        W41379   8.039   4.763  13.352 -0.0005 -0.1935 -0.3567
25571W        W41380  18.447  12.216  12.415  0.1434 -0.2665 -0.1738
25572W        W41381  16.106  11.864  12.806  0.1821  0.0901  0.0725
25573W        W41382   6.086   7.390  14.047  0.0348 -0.3159  0.2079
25574W        W41383   6.300   5.015   4.478  0.1280 -0.0376 -0.3462
25575W        W41384  10.065   5.159   3.956  0.4157  0.3840 -0.0479
25576W        W41385   1.168  17.351   0.041 -0.2694  0.1272  0.1265
25577W        W41386   4.134   1.728  14.659 -0.0836  0.3136 -0.1699
25578W        W41387   1.575   5.825   0.265  0.1725 -0.0229 -0.2246
25579W        W41388   9.412   2.981   3.042  0.3230 -0.2657  0.0770
25580W        W41389  17.329  17.580   6.108  0.1525 -0.1003 -0.0845
25581W        W41390   8.316  17.000  13.957  0.1612  0.0467  0.3621
25582W        W41391  14.976   8.491  12.786 -0.0753 -0.1168  0.1202
25583W        W41392   7.669   8.123  15.137 -0.1227 -0.0431  0.0650
25584W        W41393   4.542  11.905  15.324  0.0834  0.4112 -0.3481
25585W        W41394  10.080  18.319   2.864  0.1143 -0.2040  0.0486
25586W        W41395  14.893  17.734  12.125  0.0842  0.2439 -0.0580
25587W        W41396  13.227  12.415  15.213  0.1410 -0.2030 -0.1258
25588W        W41397   8.472  11.006   3.138 -0.2890 -0.0900 -0.1793
25589W        W41398  15.038  17.303   0.784  0.0017  0.0878 -0.0468
25590W        W41399   6.646  14.148  11.256 -0.2599 -0.0682 -0.1912
25591W        W41400   0.839   2.589   4.537  0.1571  0.1307 -0.1170
25592W        W41401  10.203  10.589   5.061 -0.1821  0.0860  0.1609
25593W        W41402  16.849   1.584  13.060  0.2821 -0.2066  0.2486
25594W        W41403  14.091   1.759   1.417  0.0208 -0.0721  0.0949
25595W        W41404   5.143   3.336   0.745  0.0316 -0.1368  0.0347
25596W        W41405   1.908   5.656   0.692 -0.0185  0.2023 -0.0032
25597W        W41406   2.725   6.919   2.505  0.1616 -0.3868  0.2872
25598W        W41407   1.000  15.152   0.037 -0.2323  0.4687 -0.2464
25599W        W41408   7.620   4.901  11.060  0.1290 -0.1137 -0.0593
25600W        W41409   0.771   5.025   0.499 -0.1611 -0.0577 -0.1027
25601W        W41410  14.334   2.256   4.909 -0.2188  0.1761  0.0371
25602W        W41411  18.378   4.287  12.075 -0.1944 -0.1804  0.0929
25603W        W41412  18.264   8.877  15.251  0.2003 -0.2168  0.1829
25604W        W41413   0.045   0.524   4.713 -0.2085  0.0446 -0.1024
25605W        W41414   9.806  17.206   0.581 -0.0183  0.1007  0.2450
25606W        W41415   5.695  15.537   3.529  0.1218 -0.0906 -0.3629
25607W        W41416   1.511   4.777   2.926 -0.0907 -0.2810  0.2277
25608W        W41417  12.633  17.773   0.232 -0.3922  0.3954 -0.0664
25609W        W41418   9.967   3.029  11.521 -0.2051 -0.0719  0.0671
25610W        W41419  16.151   1.553  11.141  0.0376  0.0274 -0.0315
25611W        W41420   2.988  14.896  13.188 -0.1828 -0.1437 -0.1942
25612W        W41421   6.559   5.416   2.626 -0.1697 -0.0918 -0.4712
25613W        W41422   2.214   6.701  15.430 -0.0761 -0.0352  0.1642
25614W        W41423   3.494   8.899   2.629  0.0373 -0.0524 -0.3248
25615W        W41424  11.713   0.444   4.221  0.2075 -0.0657  0.0847
25616W        W41425   8.342   7.592  10.881  0.1369  0.0285  0.3341
25617W        W41426   6.522  13.153  13.728 -0.0978  0.0069  0.1649
25618W        W41427  14.269  18.360  13.999 -0.2705 -0.3689 -0.0954
25619W        W41428   0.439  14.637   5.049  0.2258  0.1164 -0.0575
25620W        W41429  18.554   5.877   0.996  0.2010 -0.1758  0.0956
25621W        W41430  12.599  10.778  11.022 -0.0460 -0.0990  0.0822
25622W        W41431  17.473   2.328  14.933  0.1552 -0.1025  0.2438
25623W        W41432  11.297  11.633  15.068 -0.2861 -0.0697 -0.1659
25624W        W41433   0.321  10.990   0.227 -0.1539  0.0217  0.3051
25625W        W41434   3.823   1.416   2.644 -0.3253  0.2500 -0.0814
25626W        W41435   8.584   1.515   0.896 -0.0429  0.1321 -0.2946
25627W        W41436   4.773  14.861   2.084 -0.2350  0.1945  0.3347
25628W        W41437   5.298   5.065   0.598  0.0246  0.0244 -0.1692
25629W        W41438   1.893   0.444  13.124 -0.0415  0.0648  0.0740
25630W        W41439   7.956  12.311   0.891  0.1925 -0.5167 -0.2660
25631W        W41440   0.754   9.456   2.717  0.4727  0.3204  0.3266
25632W        W41441   0.076   8.238   0.781  0.2613  0.0542 -0.1787
25633W        W41442   8.960  10.177   1.844  0.1709  0.0672 -0.1839
25634W        W41443  10.521  17.467  13.991  0.3520 -0.2274  0.0419
25635W        W41444   4.356  16.838  11.768  0.2622  0.2620  0.0114
25636W        W41445   7.237  11.676   4.115  0.0912 -0.1835 -0.1047
25637W        W41446   3.641   4.321  11.299  0.1545  0.2986  0.2235
25638W        W41447   5.412   0.067  15.403  0.2990  0.2002 -0.2093
25639W        W41448  15.016   0.152   1.837 -0.0299 -0.0657 -0.3589
25640W        W41449  18.068   2.434   5.038 -0.0070 -0.0405  0.1368
25641W        W41450   8.815   9.606  11.257 -0.1788  0.2535  0.0722
25642W        W41451   2.387   4.361   3.870  0.2475 -0.1423  0.0994
25643W        W41452   6.355  12.834  10.873  0.2585  0.0963  0.2470
25644W        W41453  18.128  13.742  15.629 -0.1360 -0.3506  0.0019
25645W        W41454   5.743   4.012  13.115 -0.0232 -0.0652 -0.0792
25646W        W41455   0.623   7.395   3.866 -0.1607  0.0049  0.1800
25647W        W41456  13.562  12.977  13.149  0.0606  0.0656  0.0785
25648W        W41457  13.686   1.036  12.041  0.1253 -0.1156 -0.1582
25649W        W41458   8.463   6.610   3.681  0.0833  0.1741 -0.0247
25650W        W41459   9.379  14.697   2.950  0.1580 -0.0529 -0.0450
25651W        W41460   5.794  16.395  10.009 -0.1397  0.0525  0.1619
25652W        W41461   2.229   5.751  12.102  0.0533  0.0539  0.0254
25653W        W41462   2.265  10.890  13.535 -0.0651 -0.0800  0.3237
25654W        W41463   9.216  12.217  13.580  0.0849  0.3692  0.2776
25655W        W41464  10.515   5.362   9.885 -0.0029  0.2240 -0.2508
25656W        W41465   1.115  16.058   3.076 -0.1928  0.0525 -0.0585
25657W        W41466   9.027  10.195  10.422  0.2818 -0.0848  0.0017
25658W        W41467   0.729   3.696  10.467 -0.0472  0.0025  0.0163
25659W        W41468  17.859   5.314  14.623  0.3384  0.0212  0.1677
25660W        W41469   0.439  17.987   2.007  0.2120 -0.0537  0.2748
25661W        W41470   7.183   7.584  15.724  0.1678 -0.0085 -0.0996
25662W        W41471   7.003   1.448  11.086  0.5536 -0.2737  0.2384
25663W        W41472  16.920   6.650  12.072  0.1436 -0.0732  0.0543
25664W        W41473  17.622  15.073   4.141  0.1294  0.2655 -0.0049
25665W        W41474  17.658  12.769   2.196 -0.3825 -0.2989 -0.0784
25666W        W41475  11.200  16.384   5.629 -0.1058 -0.0028 -0.2118
25667W        W41476   1.294  13.825   5.520  0.0198  0.0520  0.0879
25668W        W41477  14.923   7.992  12.313  0.1128  0.2012 -0.1673
25669W        W41478  11.163   3.937  15.250  0.0259 -0.1641 -0.0222
25670W        W41479  18.468   1.845   4.226 -0.2202 -0.0900 -0.0146
25671W        W41480   4.007   1.408   0.744  0.1085  0.1738  0.4797
25672W        W41481   3.193   0.787  11.792  0.1321 -0.1957 -0.1407
25673W        W41482   5.301   1.536   2.566 -0.0669  0.0514  0.1201
25674W        W41483   6.342   5.248   0.228 -0.0669  0.0229  0.1733
25675W        W41484  17.397  12.454  11.461 -0.2336  0.0905 -0.0684
25676W        W41485   8.103  18.042   4.650 -0.0915  0.0342 -0.4149
25677W        W41486   5.274  13.975  14.334  0.3259 -0.0084  0.0146
25678W        W41487   4.724   3.101   5.443  0.0822 -0.1067  0.0214
25679W        W41488   9.691  17.438  12.093 -0.1242  0.1304  0.3434
25680W        W41489   8.840   6.218  14.536  0.3663  0.2045 -0.2906
25681W        W41490   0.612   3.754   0.676  0.2916 -0.1775  0.0437
25682W        W41491  18.412  12.552   0.437 -0.0089 -0.2028  0.0124
25683W        W41492   3.000   7.264   1.831 -0.1370 -0.2720  0.1626
25684W        W41493   5.058   7.002   4.650  0.0277  0.0318  0.2086
25685W        W41494   5.283  17.674   1.788  0.0816  0.0316  0.1346
25686W        W41495  10.665  12.664  15.326 -0.2675 -0.0257  0.1816
25687W        W41496  12.636   6.555  13.984 -0.1192  0.0783 -0.1432
25688W        W41497  17.199   8.734   5.101 -0.0846 -0.1293 -0.0851
25689W        W41498   5.757  17.981  11.426  0.2068  0.0069 -0.2230
25690W        W41499   7.477   4.023  13.360  0.0893 -0.1735  0.0200
25691W        W41500  13.609   7.007   1.633  0.0794 -0.1029 -0.1284
25692W        W41501   9.585   3.059   5.179 -0.0727  0.0019 -0.3317
25693W        W41502  11.150   5.762   0.890  0.2641 -0.1443  0.1370
25694W        W41503  15.269  10.506   3.832  0.1804  0.1447 -0.1457
25695W        W41504  17.932  11.726   4.405  0.3081 -0.1015  0.0638
25696W        W41505   3.925  17.210  11.891 -0.3296 -0.1012  0.0348
25697W        W41506  17.187   4.025  10.718 -0.1840 -0.0203  0.2503
25698W        W41507   5.888   8.923   2.174  0.2197  0.0948 -0.0375
25699W        W41508  10.233  17.714  15.239  0.1784  0.1688 -0.0119
25700W        W41509  12.746   5.059  11.669 -0.2812  0.0108 -0.0096
25701W        W41510   1.246  17.363  14.616  0.1210  0.1426  0.3550
25702W        W41511   2.097   2.158   0.878  0.3245  0.1877 -0.1132
25703W        W41512   0.157   2.393  11.806  0.0499 -0.1092 -0.0657
25704W        W41513  10.119  18.441  14.160  0.0502  0.0869 -0.0899
25705W        W41514  11.556   0.166  11.982 -0.0958 -0.4619  0.1019
25706W        W41515   6.105  15.171   4.058  0.1510 -0.2525 -0.2072
25707W        W41516   1.576   8.533   5.561 -0.1326 -0.0933  0.2431
25708W        W41517  13.179  10.984  10.565 -0.2545  0.3030 -0.1139
25709W        W41518  11.967   0.589   5.139 -0.2993  0.0854  0.1615
25710W        W41519  13.025  16.676   4.867  0.0706 -0.0228  0.5423
25711W        W41520   3.882   2.918   3.141 -0.0994 -0.1070  0.2240
25712W        W41521   6.243   1.225  13.057  0.1092  0.0812  0.2177
25713W        W41522   0.481  11.893   5.183  0.2727 -0.0184 -0.4494
25714W        W41523   7.307  15.558   4.277 -0.0097 -0.1053 -0.0894
25715W        W41524   7.190   7.424   0.500 -0.0678 -0.0981 -0.1245
25716W        W41525   8.052  13.045  11.519  0.1040 -0.1673 -0.1064
25717W        W41526   8.397   1.237  15.632  0.0293  0.1502 -0.1370
25718W        W41527   8.083   8.799   1.099 -0.0187  0.0906  0.1040
25719W        W41528  16.958  12.578  12.921  0.1437  0.1204  0.1099
25720W        W41529   6.701  15.474  15.579  0.3135 -0.0297 -0.2713
25721W        W41530   3.818   4.510  12.478  0.1522  0.0271 -0.0048
25722W        W41531  16.370   7.586   6.036  0.2454 -0.0153  0.1268
25723W        W41532   6.772   0.542   4.013 -0.0741  0.3824  0.0451
25724W        W41533   7.282   8.006  12.245  0.2437  0.0450  0.1428
25725W        W41534   4.680  18.213   2.272 -0.0175  0.1140  0.0764
25726W        W41535  15.714  13.887  12.395  0.0882 -0.0418 -0.0632
25727W        W41536  11.414  17.927  14.839  0.0575  0.1185 -0.3200
25728W        W41537  10.040   7.427   4.426  0.2669  0.2667 -0.0658
25729W        W41538   4.589   4.504  12.855 -0.3210  0.0914  0.2216
25730W        W41539   5.397  15.929   2.787 -0.1043 -0.3538  0.1581
25731W        W41540   1.641   8.062  12.878  0.0876  0.3970 -0.1494
25732W        W41541  17.349   2.423   3.488  0.1591  0.1940  0.1737
25733W        W41542   6.749  12.027   0.369 -0.1443  0.2635 -0.0183
25734W        W41543  12.590   1.719   0.413  0.2110 -0.1993 -0.0093
25735W        W41544   6.396  15.698   4.623 -0.0778 -0.2687 -0.0689
25736W        W41545   0.582   6.412   0.443  0.2814 -0.5518 -0.2906
25737W        W41546  16.185  16.970   4.398  0.0938 -0.3605  0.0730
25738W        W41547  11.012  14.496  12.403  0.0160 -0.2915  0.1211
25739W        W41548   6.940  18.549   1.104  0.0865 -0.2698  0.2901
25740W        W41549  14.679   2.377  10.117 -0.0274  0.0572 -0.3252
25741W        W41550   2.753  10.398  15.646 -0.0297 -0.1971 -0.0514
25742W        W41551  13.758   7.269   3.040 -0.1499 -0.2279  0.3191
25743W        W41552   5.547   1.095  14.097 -0.2118  0.1194 -0.2827
25744W        W41553   2.220   3.132   0.145  0.2949  0.0832 -0.0108
25745W        W41554   0.923   0.638   4.805 -0.1490 -0.1210  0.1404
25746W        W41555  15.615   3.354   1.655 -0.1595 -0.0065 -0.4581
25747W        W41556  17.614   9.647  15.390 -0.1544 -0.0850  0.0139
25748W        W41557  13.372   3.211  13.428  0.1607 -0.0814 -0.0363
25749W        W41558  14.556  15.925   1.935  0.0892  0.4397 -0.2120
25750W        W41559  15.166   5.258  12.051 -0.0983  0.1652  0.1164
25751W        W41560   2.199   4.387  14.353  0.2775  0.0284  0.1200
25752W        W41561  14.146  17.563   4.807 -0.0506 -0.4106  0.4373
25753W        W41562  13.369   4.855   0.902  0.1073 -0.1541 -0.0706
25754W        W41563   1.112  13.106  11.752 -0.1337 -0.2084 -0.0801
25755W        W41564   4.246   7.768   5.030  0.0254 -0.1706 -0.0763
25756W        W41565   2.217   5.200  15.081 -0.0327 -0.0331  0.0327
25757W        W41566  17.603   3.968   3.859 -0.0922  0.3875 -0.0134
25758W        W41567   6.924  11.934  15.459  0.1342 -0.0593  0.2218
25759W        W41568   9.270   7.841   4.480 -0.5224  0.2266 -0.0429
25760W        W41569   6.202   2.183  13.108  0.0720 -0.1114 -0.1915
25761W        W41570   7.028   0.904  12.255  0.0555  0.1831  0.0106
25762W        W41571   6.004   9.437   4.122 -0.3647  0.3387  0.3842
25763W        W41572   7.999   8.589   4.580  0.0045 -0.6757 -0.1495
25764W        W41573   4.595  10.492  11.753  0.2526 -0.1353 -0.0613
25765W        W41574   5.683  17.019   4.381  0.0232 -0.0298 -0.1683
25766W        W41575  10.224  10.764  11.544  0.3462 -0.1494  0.0429
25767W        W41576  18.312   0.923  12.794  0.0034 -0.2569 -0.0517
25768W        W41577   3.229   5.529   4.204 -0.0356 -0.0757  0.3741
25769W        W41578  15.917   1.902  15.653 -0.1150 -0.3489  0.1288
25770W        W41579   1.168   4.389  11.703  0.0350 -0.0050  0.3302
25771W        W41580   2.922   0.924   5.739 -0.1896 -0.3040  0.0554
25772W        W41581  17.350   8.099   5.893 -0.2454 -0.1479 -0.0980
25773W        W41582   0.336   8.634   0.621  0.1200  0.0479  0.1411
25774W        W41583   3.618   0.173   2.001 -0.2244  0.2074  0.1028
25775W        W41584   4.370   5.723   1.581  0.2848 -0.0867  0.1575
25776W        W41585  13.059   6.907  11.933  0.2973 -0.3336 -0.1927
25777W        W41586  10.055  14.602  12.285  0.2082  0.1531  0.0423
25778W        W41587   6.186   8.694  14.282  0.0486  0.0174  0.1430
25779W        W41588  11.932  10.159  15.062  0.0614  0.1505 -0.0616
25780W        W41589  16.889   3.911  12.288  0.2740  0.1081 -0.0546
25781W        W41590  14.421   6.772  10.828 -0.1696  0.0472 -0.0508
25782W        W41591   8.524   3.525  14.262  0.0247 -0.0009 -0.0125
25783W        W41592   2.082  13.512  14.292 -0.0363 -0.0265  0.3186
25784W        W41593   8.174   3.763  12.429 -0.2913  0.0042 -0.0141
25785W        W41594  17.107   2.822   1.481 -0.0777 -0.1054 -0.1643
25786W        W41595   7.325  14.746  11.032  0.0167  0.1752 -0.0749
25787W        W41596  13.347   8.748   1.367  0.1926 -0.2841  0.5284
25788W        W41597   0.378  11.234  14.456  0.2145 -0.0953  0.0212
25789W        W41598  11.523   5.887  15.173  0.1209  0.0283  0.1671
25790W        W41599  11.144  11.581  14.515 -0.2652  0.1262  0.1542
25791W        W41600  18.444  13.741   2.653 -0.4147  0.1642  0.0776
25792W        W41601  14.511   1.742   2.215 -0.1590 -0.1548 -0.2465
25793W        W41602   5.237   9.030  15.701 -0.0786  0.0226  0.0225
25794W        W41603   0.718  12.330  13.297  0.0863 -0.0980  0.1124
25795W        W41604  16.679   5.577   3.930  0.0500 -0.2444 -0.1157
25796W        W41605   9.347  11.239   2.778 -0.0783 -0.2562 -0.1089
25797W        W41606   3.436  18.178   4.921 -0.2397  0.1485  0.1528
25798W        W41607  11.331   1.732  13.901 -0.2311  0.1151 -0.2211
25799W        W41608  11.930  18.293   4.328  0.0780  0.1113  0.3204
25800W        W41609   8.414  12.152   0.597 -0.0622  0.0673  0.2695
25801W        W41610  13.255   0.058  11.071 -0.0265 -0.0836  0.0371
25802W        W41611   2.329   9.824   0.805  0.1232  0.3354  0.1803
25803W        W41612   9.719  14.749   5.470 -0.2499 -0.0509  0.1095
25804W        W41613   6.615  16.112   4.091  0.0402 -0.1880  0.0069
25805W        W41614   5.283   6.688   3.683 -0.0831 -0.1383 -0.0130
25806W        W41615  10.721   6.479  15.150 -0.1154  0.3829  0.1746
25807W        W41616  15.228  11.610   5.280  0.1491  0.0627  0.2058
25808W        W41617   2.979   4.543  12.088 -0.1207 -0.4874  0.0709
25809W        W41618  13.631   4.317  11.416  0.1402  0.2036 -0.0821
25810W        W41619  16.130   3.408  10.739  0.0620  0.0072 -0.0435
25811W        W41620   1.885  14.184  12.256 -0.2226 -0.0207  0.1079
25812W        W41621  16.293   5.022  13.873 -0.2118  0.0445 -0.0034
25813W        W41622   8.410   1.525  10.659  0.1348  0.0516  0.2619
25814W        W41623   3.000   0.237   2.384 -0.1540 -0.2707 -0.0853
25815W        W41624  14.869  11.423   4.671 -0.0403 -0.1768  0.0636
25816W        W41625   8.694   2.404  12.206  0.1438  0.3510 -0.1788
25817W        W41626   3.207   7.878   1.265  0.1212 -0.0853 -0.0070
25818W        W41627   1.754   9.670  15.024  0.2245  0.3498  0.1045
25819W        W41628   5.700  13.605   3.983 -0.3352  0.2127  0.2367
25820W        W41629  14.226  10.892   4.790 -0.1680  0.1283  0.4422
25821W        W41630   1.987  15.806   2.487 -0.2016  0.1433  0.2195
25822W        W41631   9.269  14.135   5.083 -0.2130 -0.0479 -0.0663
25823W        W41632  11.925  11.759  11.357  0.2218  0.0454  0.3215
25824W        W41633   9.093  12.141   2.760 -0.0617 -0.0444  0.1967
25825W        W41634   1.763   9.842  13.764  0.0903  0.4418  0.1466
25826W        W41635   4.775   8.229   2.355  0.0057  0.3500 -0.1445
25827W        W41636   4.601  15.901  12.779  0.3186  0.3135 -0.2237
25828W        W41637  13.569  14.103  14.808  0.1682 -0.0800  0.4159
25829W        W41638   0.828   8.639   1.518  0.2520  0.0800 -0.4271
25830W        W41639  10.521  12.263  10.806  0.0425 -0.4013  0.2688
25831W        W41640   8.989   8.128  12.719  0.0088  0.0495  0.0962
25832W        W41641   0.314   2.093   4.316  0.2670  0.1750  0.1735
25833W        W41642  17.807   8.114  14.160 -0.0139 -0.2000 -0.1214
25834W        W41643   6.979   1.655   3.054 -0.0634  0.0227 -0.0852
25835W        W41644  15.009   6.172   5.534 -0.0646  0.2694 -0.0785
25836W        W41645   9.325   2.604   4.496  0.3362 -0.2173 -0.0680
25837W        W41646  15.587   4.678  14.699  0.2468 -0.2223 -0.3206
25838W        W41647  17.067   5.643   5.204  0.3851  0.0713 -0.1119
25839W        W41648   2.147  14.482   1.456  0.2235  0.2575 -0.0842
25840W        W41649   0.536   4.319   2.852 -0.1196  0.0719 -0.1609
25841W        W41650  16.502  13.940   5.810  0.0490 -0.1202  0.2089
25842W        W41651   7.948   5.711  14.914  0.0237  0.0145  0.0469
25843W        W41652  11.180  16.710  11.163 -0.3583 -0.2409 -0.0697
25844W        W41653  13.306  14.421   1.799  0.1292  0.0002 -0.1233
25845W        W41654   9.009  17.331   2.953 -0.1540 -0.2119  0.0051
25846W        W41655  14.723  11.683   0.359  0.0494 -0.1920 -0.0011
25847W        W41656  15.752   4.343  15.607  0.0291  0.0638 -0.4516
25848W        W41657   5.468   4.871   3.900  0.1884 -0.0940  0.1167
25849W        W41658   5.260   0.029  13.407  0.1214  0.1788 -0.0280
25850W        W41659   6.165   7.993  13.783 -0.1868 -0.0373  0.0214
25851W        W41660  12.301  16.229   2.497 -0.1612 -0.1653  0.0826
25852W        W41661  12.458   9.965   4.535  0.1022 -0.3531  0.4866
25853W        W41662  11.678   3.806  13.431  0.0674  0.1797 -0.0777
25854W        W41663  12.889   4.461   0.045 -0.3007 -0.1006  0.0781
25855W        W41664   7.898   8.761   3.642  0.2101  0.1679 -0.1539
25856W        W41665   1.095  17.202   4.423  0.1553  0.2116  0.3483
25857W        W41666  13.225   2.330  12.533 -0.4146  0.0189 -0.1857
25858W        W41667  13.885  18.043   9.912 -0.0668 -0.0649 -0.0120
25859W        W41668  13.708   0.154  10.304  0.0002  0.0429 -0.0574
25860W        W41669   7.883  12.492   4.162 -0.2321  0.2782  0.1666
25861W        W41670   7.353  13.735  13.978 -0.0393  0.1258  0.1451
25862W        W41671  10.629   2.969  15.032 -0.2619 -0.1516 -0.0241
25863W        W41672  11.116  16.859   3.383 -0.3378  0.0910  0.1211
25864W        W41673  12.289  10.193   4.085 -0.1079 -0.1200  0.3472
25865W        W41674  14.181   8.848  14.185 -0.0146  0.0563  0.2004
25866W        W41675  10.711   3.844  15.701 -0.1954  0.0428 -0.3331
25867W        W41676   3.174   0.181  12.313 -0.3443  0.1133 -0.3245
25868W        W41677  11.740  16.408  13.002  0.2278  0.3959 -0.0502
25869W        W41678   9.840   8.646   0.473  0.2288 -0.2239  0.1146
25870W        W41679  11.866  12.488   4.703 -0.0487 -0.0538 -0.0759
25871W        W41680  17.335  17.902  14.330  0.2595 -0.1894 -0.1021
25872W        W41681   1.293   4.860  11.776 -0.1430  0.2668 -0.0833
25873W        W41682  16.019  11.879   4.773 -0.0321  0.0921 -0.0276
25874W        W41683   2.162  11.913  13.563 -0.1616  0.0049  0.1263
25875W        W41684  12.996  11.805   2.755  0.1591 -0.1695 -0.1869
25876W        W41685  17.676  14.190   2.059  0.1200 -0.0512 -0.3299
25877W        W41686   0.522   6.229   5.497 -0.2085  0.2965  0.0932
25878W        W41687   7.835   6.156  12.030  0.0631  0.0839  0.2129
25879W        W41688   5.424   2.203   2.588 -0.0442  0.2621 -0.2041
25880W        W41689   1.902   9.687   5.087  0.1117 -0.1276  0.2273
25881W        W41690  18.509  12.446   4.654 -0.2591 -0.4237 -0.3015
25882W        W41691   9.341   1.844  14.789  0.0354  0.1730  0.1759
25883W        W41692   1.782   5.053  11.657 -0.2959 -0.0558  0.1252
25884W        W41693  13.961   7.484  14.289 -0.0454  0.0800 -0.1802
25885W        W41694  13.463   0.777   2.679  0.1449 -0.0243 -0.0706
25886W        W41695   8.716  10.294   5.984  0.1251  0.0914  0.0294
25887W        W41696  15.473  18.601  11.673  0.0354  0.2707  0.3582
25888W        W41697   3.361  15.664  14.576  0.1614  0.0390  0.2991
25889W        W41698  15.263  14.527  13.612 -0.1049 -0.0133 -0.1882
25890W        W41699   6.493  10.095   2.280 -0.2019 -0.0744  0.0213
25891W        W41700   2.625  13.517   4.848  0.2324  0.0664 -0.0073
25892W        W41701   2.162  12.519   3.768 -0.4138 -0.1524 -0.2449
25893W        W41702  14.518  12.722  14.621 -0.1849  0.1849  0.1288
25894W        W41703   0.069   0.572  11.578 -0.2707 -0.1474  0.2904
25895W        W41704   8.144  15.322   3.847 -0.0068  0.0861 -0.0025
25896W        W41705   3.046   6.344   0.297 -0.2851 -0.0066  0.0350
25897W        W41706   8.057  16.406  10.576 -0.0344 -0.2964  0.1629
25898W        W41707   4.322   8.620  11.123  0.0319  0.0590 -0.1468
25899W        W41708   8.384   9.525   2.193 -0.0229  0.1208  0.0172
25900W        W41709  11.843   0.949  14.039 -0.2452 -0.0605 -0.0620
25901W        W41710  10.102   0.572   4.996 -0.1113  0.2557 -0.0265
25902W        W41711  18.650  10.265  14.274 -0.0081  0.0784  0.1269
25903W        W41712  13.335   0.743   0.512 -0.4145  0.1768 -0.1979
25904W        W41713  14.320  17.749   3.900 -0.1555  0.0883  0.3327
25905W        W41714   2.092   8.646   5.543  0.1382  0.1746 -0.3951
25906W        W41715   9.385   6.971   4.933 -0.0091  0.1497  0.0353
25907W        W41716  13.504   3.892   3.260  0.5787  0.0371 -0.0770
25908W        W41717   6.449   0.091  13.879 -0.2296  0.2037 -0.0400
25909W        W41718   7.863  17.216  13.839 -0.2033 -0.0967 -0.5290
25910W        W41719   2.909   2.193   2.020  0.2732  0.0279 -0.0869
25911W        W41720  11.009  13.496   0.882  0.1070 -0.1606  0.1762
25912W        W41721   3.239  14.832   5.295 -0.0131 -0.3062 -0.3731
25913W        W41722  11.460   0.583   1.685  0.1473 -0.1102  0.1675
25914W        W41723   7.884   3.038  13.870 -0.2003 -0.0824  0.1582
25915W        W41724   3.030   6.155   2.590 -0.2213 -0.2272 -0.0014
25916W        W41725  12.540   4.699   1.937  0.0051  0.1274 -0.0525
25917W        W41726  18.396   6.225  15.571 -0.1229  0.1035  0.0785
25918W        W41727  16.521   7.708   1.704  0.1722 -0.0742 -0.2156
25919W        W41728   8.300  15.156   4.340  0.1145 -0.1485  0.1351
25920W        W41729  13.032  16.228   5.151 -0.0449  0.0885  0.0993
25921W        W41730  12.598  16.113   1.989  0.1695  0.1105 -0.2384
25922W        W41731  11.574   7.358   4.214 -0.1303 -0.3762  0.0768
25923W        W41732   9.032   0.259  12.771  0.4653  0.0914  0.1802
25924W        W41733  10.938  11.791   4.222  0.0141 -0.3491  0.1587
25925W        W41734  13.381   9.010   2.309 -0.1105  0.0894 -0.0273
25926W        W41735   2.821  16.707   2.068 -0.1429  0.1560 -0.0022
25927W        W41736   1.747  15.854  15.606 -0.1059 -0.0176 -0.7271
25928W        W41737  12.582   8.508  11.766 -0.0162  0.2910 -0.6839
25929W        W41738   7.087  14.082  13.810 -0.0730  0.2893 -0.0979
25930W        W41739   8.645  15.164  11.428 -0.0499  0.3127  0.2324
25931W        W41740   3.103  11.704  13.514 -0.1476 -0.0052  0.2525
25932W        W41741   5.787   2.156  12.204  0.1886 -0.0735  0.0334
25933W        W41742   3.172   8.008  14.604  0.1433  0.3451 -0.0062
25934W        W41743  15.224   3.791  10.630  0.0820 -0.1915 -0.3558
25935W        W41744  10.817  11.035  11.778 -0.0383  0.1522 -0.0307
25936W        W41745   4.464   1.037   0.941  0.2175  0.1221 -0.3266
25937W        W41746  12.562  13.199  14.090  0.1306 -0.1962  0.1130
25938W        W41747  14.724   8.487   0.664 -0.0178  0.1299 -0.0330
25939W        W41748  15.254   5.407   1.532 -0.1657  0.1780  0.4825
25940W        W41749   0.142  10.652   0.663 -0.1575  0.2519  0.0084
25941W        W41750  13.436  12.474  14.060  0.1847  0.0447  0.2479
25942W        W41751   3.596   4.134  14.916 -0.0801 -0.8199 -0.0387
25943W        W41752   5.506  11.740   1.724  0.2444 -0.1049 -0.2832
25944W        W41753  13.288  10.354   4.320 -0.0215 -0.1928 -0.0264
25945W        W41754  10.015   2.695   2.126 -0.1460 -0.2855 -0.0731
25946W        W41755   7.217   0.883   4.106 -0.0482 -0.0163 -0.0445
25947W        W41756   5.343  16.985   0.557 -0.0830  0.1011  0.1340
25948W        W41757   8.127   4.676   4.798  0.1253  0.1523  0.0263
25949W        W41758  16.323  18.168   3.370 -0.3341  0.0922 -0.1607
25950W        W41759  14.922  17.571  10.355 -0.0666 -0.4044  0.0430
25951W        W41760   9.335   4.317  12.129  0.0052  0.2023 -0.1212
25952W        W41761   4.214   8.034  11.955 -0.0110 -0.4044 -0.0946
25953W        W41762  14.424   2.905  15.614 -0.0167  0.0832 -0.0152
25954W        W41763  17.251  10.032  14.746  0.2157  0.0674 -0.1043
25955W        W41764  14.959   3.718  11.473  0.1344 -0.2625 -0.1449
25956W        W41765  18.059  10.861   0.127  0.1900  0.2300  0.1633
25957W        W41766  10.600  14.634  14.053  0.1796 -0.1024 -0.2547
25958W        W41767  11.512   1.601  14.968 -0.1829  0.0925  0.3316
25959W        W41768   6.296  13.537  12.496 -0.2299  0.0785 -0.0382
25960W        W41769  16.379   6.539  14.840 -0.0739  0.1007 -0.0548
25961W        W41770  15.996  14.181  11.793  0.3156 -0.0966 -0.1859
25962W        W41771   9.506   3.025   1.316 -0.0440 -0.0766 -0.0979
25963W        W41772   3.982  15.754  15.238 -0.5080  0.1966  0.0994
25964W        W41773  15.887  17.649   1.040 -0.0188 -0.2030 -0.0266
25965W        W41774   0.286   7.528  13.277 -0.0584 -0.0980  0.0016
25966W        W41775   4.998   2.757  11.286  0.3850 -0.0053  0.0895
25967W        W41776  13.246   9.614   4.335  0.3697  0.0000 -0.2438
25968W        W41777   0.578   1.639  10.548  0.3815 -0.3379  0.0629
25969W        W41778  10.825   4.398  10.646 -0.1819 -0.0181 -0.2505
25970W        W41779   3.050   0.703  15.254 -0.4463 -0.0379  0.0922
25971W        W41780  15.771  15.425   2.539 -0.1119 -0.0992  0.2728
25972W        W41781   9.283  15.136  14.728 -0.1852  0.1122 -0.1178
25973W        W41782   6.724   4.612   2.972  0.1296 -0.0624 -0.1533
25974W        W41783   7.626   5.684   1.754 -0.2848  0.0331 -0.1495
25975W        W41784  13.718  11.275   4.290 -0.0009  0.0085  0.0580
25976W        W41785   9.191  13.381   5.625  0.1805 -0.3656  0.1085
25977W        W41786   3.959   9.806   2.776 -0.1782 -0.0226  0.1615
25978W        W41787  17.403  10.478  11.324  0.1250  0.3499  0.0115
25979W        W41788   0.829   2.752   0.394 -0.2823  0.0609 -0.0095
25980W        W41789   0.860   3.363  12.564  0.0507  0.1753 -0.2185
25981W        W41790   8.795   2.830   4.758  0.0396  0.0331 -0.2048
25982W        W41791  14.261  11.064   3.077 -0.1984 -0.0890  0.0005
25983W        W41792   1.173   1.146   1.945  0.0613  0.4599  0.0768
25984W        W41793   4.965   2.434   1.265  0.1980  0.1962 -0.2632
25985W        W41794  11.598  18.489  10.473  0.0324 -0.1976 -0.2001
25986W        W41795   1.892  18.141  13.067 -0.1658  0.2116 -0.0465
25987W        W41796  13.092  12.653  12.504 -0.2383  0.0993  0.2436
25988W        W41797  16.014  15.509  10.551  0.0109  0.0386  0.0639
25989W        W41798  14.221  13.381   0.058  0.2217 -0.3269 -0.0937
25990W        W41799  12.971  16.828   1.380 -0.0020  0.0150 -0.0855
25991W        W41800   2.599   7.237  14.642 -0.1630 -0.3534  0.0000
25992W        W41801  11.866   3.644  12.730 -0.0639  0.0247  0.0049
25993W        W41802  13.274  15.762  14.138  0.0985 -0.0810  0.0160
25994W        W41803  16.039   5.416  13.941 -0.1361 -0.1908 -0.1648
25995W        W41804   1.580   1.520   2.088 -0.0883 -0.2304  0.3449
25996W        W41805   5.741  11.524  12.477 -0.1183 -0.2114  0.0536
25997W        W41806  13.003   7.109  15.429 -0.0370 -0.2764  0.2152
25998W        W41807   1.964   8.078   3.290 -0.0890 -0.0555 -0.2471
25999W        W41808   0.129  17.130  14.588  0.1718 -0.0817 -0.2415
26000W        W41809  11.248  17.523   4.787  0.2042  0.2935 -0.2392
26001W        W41810   4.198  17.455  15.140 -0.0354 -0.0616  0.1599
26002W        W41811   3.865   8.322  10.914 -0.2733 -0.0620  0.2411
26003W        W41812  11.625   3.176  14.054 -0.0770  0.0273 -0.0261
26004W        W41813  12.078   8.345   0.953  0.1568  0.1189  0.0777
26005W        W41814   1.003  15.171   4.121  0.0036  0.2605  0.0705
26006W        W41815  11.578  11.007  11.687 -0.0145  0.0188  0.0511
26007W        W41816  18.036   7.512   1.004  0.1069 -0.2931  0.0132
26008W        W41817  13.113  16.420  12.802  0.3858  0.1261 -0.0528
26009W        W41818   9.774   9.127   3.733  0.2528 -0.1602  0.2411
26010W        W41819  16.215  14.732   0.860  0.0921 -0.1299  0.2985
26011W        W41820  10.842   7.567  14.967 -0.0645  0.2134  0.0678
26012W        W41821  13.772   9.121   1.268  0.0156 -0.2658 -0.1314
26013W        W41822   6.948   5.135  12.312  0.1195  0.1835  0.1269
26014W        W41823  18.620  14.723   4.893 -0.1164 -0.3043 -0.0549
26015W        W41824  16.767  13.961   1.724 -0.1424  0.2460  0.2336
26016W        W41825  12.236   4.278  11.695 -0.3446 -0.1626 -0.1491
26017W        W41826   4.003  11.716  15.334  0.0508 -0.3682 -0.1517
26018W        W41827  16.669  17.253  12.836  0.2683 -0.0613 -0.1654
26019W        W41828  17.081  15.191  12.813  0.0316 -0.0150 -0.1293
26020W        W41829   8.990   3.442  12.477 -0.2295  0.0558  0.1192
26021W        W41830   5.386  13.139  11.359 -0.2436 -0.0798  0.5386
26022W        W41831  13.691  16.762  14.875  0.1479 -0.1318  0.0320
26023W        W41832  16.358  16.823   5.481  0.1174 -0.0108  0.1864
26024W        W41833   6.060   5.922   1.599 -0.1434  0.2410  0.1565
26025W        W41834  17.409  14.697   2.683  0.0745  0.1271  0.0473
26026W        W41835  10.066  17.825  11.020  0.3920  0.0514  0.0293
26027W        W41836   5.882   7.665  15.614 -0.0638 -0.1811  0.1870
26028W        W41837   5.807   3.943   1.635 -0.2714  0.2427 -0.1671
26029W        W41838   1.805  16.757   1.106  0.0497 -0.0288  0.2979
26030W        W41839  12.655  14.730   0.263 -0.0215 -0.0277  0.1065
26031W        W41840  11.407  10.726   0.397  0.2321 -0.0427 -0.0876
26032W        W41841   3.943   4.846   2.028 -0.2914 -0.0498  0.0358
26033W        W41842  17.872   4.114  11.259 -0.1049  0.1517  0.0679
26034W        W41843   1.809  11.355   4.673 -0.0338 -0.0280  0.2239
26035W        W41844   3.391  10.229   1.625  0.1105  0.0425  0.1554
26036W        W41845   2.950   8.190   1.589 -0.0311 -0.0351 -0.1449
26037W        W41846   9.470   3.206  11.605  0.0169 -0.0685 -0.1840
26038W        W41847  14.551   5.895   4.083 -0.0101 -0.4058  0.0848
26039W        W41848   2.377   7.511  12.488  0.0793  0.0639  0.2971
26040W        W41849  12.534  17.585  14.243 -0.2819  0.0612 -0.1327
26041W        W41850   1.196  10.739  14.388 -0.3445  0.0081 -0.0685
26042W        W41851   8.339   1.639  15.045  0.0242 -0.4323 -0.2150
26043W        W41852  17.919  15.370  10.104  0.1227 -0.1595 -0.5512
26044W        W41853  16.299   3.818   1.096  0.0237 -0.0635  0.0519
26045W        W41854   3.188   7.415   5.656  0.2085 -0.3194  0.2940
26046W        W41855   1.750   8.414   0.757 -0.1376 -0.0278 -0.0012
26047W        W41856   4.431   6.589  10.671  0.1982  0.2855  0.2834
26048W        W41857   3.989  17.030   1.226 -0.1764  0.1555 -0.1860
26049W        W41858  10.239   6.187   2.323 -0.2121 -0.1598  0.0646
26050W        W41859   0.599   6.808   2.486  0.1513 -0.1588 -0.0112
26051W        W41860   4.614  11.440   4.260  0.0509 -0.0432  0.0029
26052W        W41861  15.292  14.966  12.702  0.1458  0.0468  0.2637
26053W        W41862   2.179  10.478  13.797  0.3455 -0.1186  0.0211
26054W        W41863  11.440  16.528   9.727  0.1195  0.0482 -0.1764
26055W        W41864  11.235   5.339   2.255 -0.0679 -0.0526 -0.1454
26056W        W41865  13.157   7.854   2.510  0.0756 -0.3364  0.0803
26057W        W41866  13.031   4.829   1.692  0.0608 -0.0909  0.1430
26058W        W41867   9.926   7.078  11.396 -0.1013 -0.1860 -0.2815
26059W        W41868  17.401  17.383  14.470  0.0261 -0.0800  0.2554
26060W        W41869   0.858   3.400   3.050 -0.0166 -0.1629 -0.1679
26061W        W41870   5.908   1.532  12.854 -0.1191 -0.2679  0.0311
26062W        W41871  13.287  11.952  14.265  0.0942  0.0628  0.1119
26063W        W41872  15.743  12.722   4.237 -0.1779 -0.1446  0.0723
26064W        W41873  17.508  14.711   4.790 -0.0102  0.1988  0.1652
26065W        W41874   1.230   5.315   4.327  0.1753  0.0758  0.2824
26066W        W41875   5.225   3.271  11.266  0.1183 -0.0585  0.0591
26067W        W41876  11.956  14.712  11.912 -0.1684 -0.0605 -0.0425
26068W        W41877   0.767   7.095   4.799 -0.2981 -0.0603 -0.0423
26069W        W41878   1.096  14.397   3.645 -0.2322  0.2701  0.0351
26070W        W41879  13.748   2.415  10.385 -0.1584 -0.1661 -0.0737
26071W        W41880  14.042   3.259   2.838 -0.3383 -0.2945 -0.2085
26072W        W41881   5.674  17.873   4.919  0.2742 -0.1188  0.0588
26073W        W41882   7.182   4.207  14.937  0.0729 -0.2214  0.0150
26074W        W41883  12.412   1.433   1.696 -0.2909  0.0510  0.0172
26075W        W41884  14.759  14.641   3.033 -0.2317 -0.1734  0.0235
26076W        W41885  17.242  13.198  11.369  0.1526 -0.1633 -0.1080
26077W        W41886  15.122  18.165  11.765 -0.0797 -0.2365  0.0405
26078W        W41887  18.409   5.773   2.773 -0.1035 -0.1209 -0.0960
26079W        W41888   4.770  17.455  12.150  0.3438 -0.0889  0.1198
26080W        W41889  11.115   9.311   2.711  0.1026  0.4075 -0.2743
26081W        W41890   6.925   8.762   4.659 -0.1132 -0.3622 -0.2189
26082W        W41891   9.930   0.368  14.698 -0.5193  0.0962  0.0280
26083W        W41892   7.567  13.837   4.218  0.0861 -0.2817 -0.1153
26084W        W41893   7.086   2.694  11.108  0.1588  0.0234 -0.2642
26085W        W41894   3.453   8.125   3.047 -0.1659 -0.1031  0.0450
26086W        W41895   8.703   0.159  14.268  0.3604 -0.0086 -0.1173
26087W        W41896  10.179  10.391  14.764  0.0707  0.0215 -0.1038
26088W        W41897  14.877  13.572  14.987 -0.3449 -0.0353 -0.0649
26089W        W41898  14.568   5.196  12.246  0.0104  0.0378 -0.0552
26090W        W41899   0.645  11.498  15.728  0.1458 -0.2005  0.2507
26091W        W41900   9.115  10.388   9.668 -0.1196 -0.0319  0.1198
26092W        W41901  16.719  15.882  10.442 -0.2047 -0.1340 -0.1400
26093W        W41902   3.407  18.440  13.642 -0.0897 -0.1347 -0.2735
26094W        W41903   5.561   7.777   5.597  0.0768  0.0895  0.2977
26095W        W41904  14.381  13.252   3.548  0.2135  0.0751  0.2914
26096W        W41905   1.421  14.984   1.836 -0.1907 -0.0205 -0.1202
26097W        W41906   2.854   3.121   1.064  0.1588  0.1706  0.4899
26098W        W41907   1.256  10.910  13.913 -0.1006 -0.1092  0.0260
26099W        W41908  12.450   7.645   0.341 -0.0859 -0.0356 -0.0410
26100W        W41909  16.379  17.853  10.926  0.0615  0.1975 -0.1099
26101W        W41910  15.364   9.029  11.771 -0.0661 -0.1178 -0.0119
26102W        W41911  14.716  13.497   3.807  0.1609 -0.0851 -0.2120
26103W        W41912   1.647  15.985   3.818  0.3277  0.1184 -0.0059
26104W        W41913   1.600   5.831  12.387  0.1720 -0.2099  0.1005
26105W        W41914   4.554  12.708   4.445 -0.1961 -0.0190  0.1374
26106W        W41915   6.249   5.014   3.481  0.1984 -0.5735 -0.0811
26107W        W41916  13.156  10.712  12.333 -0.1069 -0.4017 -0.2771
26108W        W41917   6.744   6.747  12.269 -0.0021 -0.2667  0.2898
26109W        W41918   2.496   9.779  13.944 -0.1144 -0.3553 -0.1990
26110W        W41919  18.172   4.153  12.924  0.0101 -0.2593 -0.4213
26111W        W41920   8.639  18.452  13.737 -0.4143 -0.0089  0.2096
26112W        W41921   8.673   7.648   4.680  0.1132 -0.0389  0.2156
26113W        W41922   2.793   1.395  12.470  0.1628  0.4776 -0.0511
26114W        W41923  15.770  17.096  11.528  0.0647 -0.0687 -0.1474
26115W        W41924  10.937   2.457  15.739 -0.3269  0.0495  0.2398
26116W        W41925   6.488  12.932  11.715  0.2399  0.1312 -0.0852
26117W        W41926   4.806  15.051   4.262 -0.3883 -0.1811 -0.0844
26118W        W41927  17.187  12.100  14.796  0.1686  0.0297 -0.0169
26119W        W41928   9.256   6.838   3.307  0.3102 -0.0734 -0.1972
26120W        W41929   2.441   7.876   3.406 -0.5201 -0.1785 -0.2746
26121W        W41930  10.455  14.984  14.793  0.0754 -0.0573  0.0382
26122W        W41931   3.508  11.305   2.494  0.0785 -0.0846 -0.3628
26123W        W41932   8.163   4.980   0.362 -0.2055 -0.1869  0.1072
26124W        W41933  17.576  16.438  15.002 -0.1416  0.4084 -0.2277
26125W        W41934  12.823   1.573  13.013 -0.0509  0.1119 -0.2197
26126W        W41935   2.883  17.077  11.770 -0.0340 -0.1500 -0.0712
26127W        W41936   0.141  17.958  12.831  0.1024  0.1185  0.0498
26128W        W41937   1.092   3.579   4.569  0.1387  0.0677  0.1072
26129W        W41938  16.793   2.439  14.794  0.2620  0.0195 -0.1557
26130W        W41939   1.914   3.055  15.285  0.3811  0.0309  0.2372
26131W        W41940   8.484   7.095  11.675  0.0047  0.1005  0.2412
26132W        W41941   9.085  13.290  14.275 -0.1139 -0.2134  0.0565
26133W        W41942  12.089  11.896  12.966  0.1619 -0.2582  0.3384
26134W        W41943  14.949   7.455   1.865 -0.1228  0.0593  0.2150
26135W        W41944  18.488  16.015   5.661 -0.4032 -0.0979  0.3227
26136W        W41945   7.916  15.497  10.858 -0.1371  0.4248 -0.2761
26137W        W41946   1.347  12.238   5.061 -0.0457 -0.0096 -0.1980
26138W        W41947   2.808  14.552   4.068  0.1728  0.0245 -0.0072
26139W        W41948   6.343  14.726  12.168 -0.0997 -0.3791 -0.3695
26140W        W41949   8.065   0.680   2.192 -0.1298  0.2764 -0.1422
26141W        W41950   1.080  18.414   5.055  0.1719  0.3184 -0.1673
26142W        W41951  12.230  14.275   1.146 -0.0657 -0.2216 -0.0529
26143W        W41952  11.389  13.058   1.162  0.1923 -0.1030  0.0909
26144W        W41953  15.699  11.095  11.582  0.1314 -0.0739 -0.0933
26145W        W41954   7.174  13.944   2.414 -0.0390  0.0102  0.0487
26146W        W41955   4.870  17.781  12.842  0.0711 -0.0560 -0.0360
26147W        W41956  16.868   1.485   1.364  0.1878  0.0184 -0.4835
26148W        W41957   0.062   0.316   5.988  0.1980  0.0625 -0.0230
26149W        W41958  17.644  17.034   4.841 -0.0770 -0.1701 -0.4793
26150W        W41959   0.762  13.555   2.452 -0.0416 -0.2098 -0.3229
26151W        W41960   6.171   6.815   0.031  0.2228 -0.0499  0.2007
26152W        W41961  16.375  14.081   1.449 -0.0615 -0.1372  0.0563
26153W        W41962   8.986  12.600  11.479  0.0461 -0.1659  0.0024
26154W        W41963   9.622  12.547  14.338 -0.2449 -0.0176 -0.0852
26155W        W41964   8.749   3.106   3.754  0.0354  0.2025  0.0446
26156W        W41965  16.044   6.278   4.870 -0.0235  0.0261 -0.0117
26157W        W41966  10.372   1.491  11.642 -0.0602 -0.1211 -0.1273
26158W        W41967   1.582   8.310  14.720 -0.0358 -0.1815  0.2094
26159W        W41968  10.794   5.478  11.118 -0.1506 -0.3555 -0.1413
26160W        W41969  17.977   2.825  13.410 -0.2165  0.1490  0.0719
26161W        W41970  17.228   8.379  12.366 -0.2276 -0.1740  0.0059
26162W        W41971   4.679  17.970   3.792 -0.1296  0.0136 -0.0863
26163W        W41972   7.664  13.567  12.909  0.2953  0.4183 -0.4291
26164W        W41973  17.526   5.332  13.424  0.1904 -0.0438 -0.0953
26165W        W41974   4.954   8.544   4.339  0.0550 -0.2759  0.2825
26166W        W41975   0.902   2.202   0.362  0.2848 -0.4325  0.3499
26167W        W41976  12.416   7.035  13.461 -0.1397 -0.0318 -0.0327
26168W        W41977   0.457  16.382  12.470  0.2463 -0.1677  0.0841
26169W        W41978   5.960  12.882   1.750 -0.2707 -0.2225  0.2042
26170W        W41979   9.688   9.524  13.855 -0.4054  0.2517 -0.1126
26171W        W41980   8.430  10.319   1.899 -0.0208  0.0692  0.1642
26172W        W41981  11.632  11.887   3.435  0.1171 -0.2872  0.0929
26173W        W41982   9.046   0.699   0.400 -0.1217 -0.1001 -0.0642
26174W        W41983   4.641   0.487  12.152  0.0476 -0.2256 -0.2058
26175W        W41984  11.687  18.461   2.999  0.0125 -0.0886 -0.3931
26176W        W41985  16.794   8.057  15.056  0.0568  0.2782 -0.0428
26177W        W41986   2.748  11.689  14.221  0.0935 -0.1466 -0.1404
26178W        W41987  14.586   5.466   3.831  0.2009 -0.2014 -0.1047
26179W        W41988   9.399  17.498  11.729 -0.0523  0.1291  0.1312
26180W        W41989  14.784   3.561  13.166  0.2026  0.1384  0.0232
26181W        W41990   7.658  17.272  10.426  0.2535  0.2232  0.2057
26182W        W41991   8.859  14.092  14.591  0.1290 -0.1493 -0.0900
26183W        W41992  11.476   8.195  11.390 -0.0882  0.1508  0.0093
26184W        W41993  16.243   1.763   0.734  0.0906  0.2411 -0.1996
26185W        W41994  11.432   0.125  13.846 -0.1039 -0.1228  0.1858
26186W        W41995  16.553   6.592   2.824 -0.2624  0.1606  0.1134
26187W        W41996   5.277  15.181   0.761  0.0391 -0.1813 -0.0117
26188W        W41997   2.700   7.612  14.128 -0.1709 -0.2715 -0.0252
26189W        W41998   4.287  15.204  15.516 -0.0284 -0.0087  0.1204
26190W        W41999   3.979  16.258   4.998 -0.0478  0.0738  0.0987
26191W        W42000   5.377  18.190   4.687 -0.3835  0.0563 -0.0135
26192W        W42001   2.674   7.764   0.044 -0.0440 -0.0467 -0.3712
26193W        W42002   4.128  18.050  10.913  0.4249  0.1758 -0.0999
26194W        W42003   3.437   8.333   1.573  0.0739 -0.1498  0.1980
26195W        W42004   5.333  17.730  13.723 -0.5093 -0.0435  0.1277
26196W        W42005  18.216   0.604  10.693 -0.1366  0.0671  0.0380
26197W        W42006   2.859   0.807  10.689  0.2261 -0.2848 -0.0679
26198W        W42007   0.541  17.805   0.648  0.1332 -0.1473  0.2299
26199W        W42008  14.889   8.774   3.858  0.1610 -0.0069 -0.0070
26200W        W42009  18.663  12.307  13.740  0.1123  0.2733 -0.3429
26201W        W42010   4.624   6.852  13.892  0.0709 -0.0930 -0.1305
26202W        W42011   2.905  10.931  14.708 -0.0627 -0.1535  0.2734
26203W        W42012   0.867   5.728   4.307  0.0695 -0.1369 -0.0321
26204W        W42013  18.186   9.036   3.900  0.2554 -0.0871 -0.3605
26205W        W42014   7.995   7.546   4.170 -0.0081  0.1619  0.0149
26206W        W42015  15.216  18.234   2.393 -0.1732  0.0300  0.0570
26207W        W42016   5.310   9.018   5.126  0.0796 -0.3558  0.0290
26208W        W42017  17.916   6.104  12.940  0.1320  0.1805  0.1395
26209W        W42018   3.397   7.144  11.361  0.2538 -0.1740  0.2295
26210W        W42019   9.586   7.522   0.769 -0.2375 -0.1364  0.1565
26211W        W42020   8.817   9.580   1.753 -0.0386 -0.1793  0.0309
26212W        W42021   2.435   9.096   1.449  0.1918 -0.1424 -0.3510
26213W        W42022   6.230   9.723  15.452  0.0971 -0.2144 -0.2515
26214W        W42023   9.946   0.567  12.940  0.2753  0.2770  0.0502
26215W        W42024   1.154   2.769   4.937 -0.0101 -0.0248 -0.1080
26216W        W42025  12.197  17.003   9.603  0.2127  0.3052  0.0555
26217W        W42026  12.392  14.531   0.760  0.0160 -0.1987  0.0176
26218W        W42027  10.286  17.351   3.460 -0.0482  0.1593  0.2381
26219W        W42028  14.294  10.963   0.038  0.2727 -0.3387 -0.1159
26220W        W42029   7.544   6.025   3.639  0.1519 -0.0197  0.0649
26221W        W42030  11.941   8.577  10.682 -0.0369 -0.1982 -0.1121
26222W        W42031   4.205  14.955   2.119  0.0357  0.2369  0.1127
26223W        W42032  14.904   4.409   4.217 -0.0295  0.2034  0.0997
26224W        W42033   9.287   4.943   1.994 -0.1545 -0.0248 -0.0892
26225W        W42034   6.001  17.222   1.168 -0.0305  0.0888 -0.1600
26226W        W42035   8.010  10.894   1.073  0.0831 -0.1388 -0.2147
26227W        W42036   9.727   6.767   3.568  0.2720  0.2264 -0.3600
26228W        W42037   3.348  14.540  14.132 -0.0409 -0.0744 -0.2046
26229W        W42038  14.811  11.780  14.696  0.0211 -0.1848 -0.1392
26230W        W42039   0.979   2.882  15.633 -0.3515  0.3123  0.2977
26231W        W42040   5.443  10.509   0.468 -0.2704  0.2754  0.1020
26232W        W42041   8.492   1.276   0.403 -0.2335  0.1031 -0.0226
26233W        W42042   8.077   5.487   1.955 -0.2736 -0.0413  0.0395
26234W        W42043   9.712  10.563  10.648 -0.2000  0.2750  0.3218
26235W        W42044  11.026  11.617   2.624  0.1874  0.0170  0.0854
26236W        W42045   2.018  11.318  12.848 -0.1579 -0.0227 -0.1408
26237W        W42046  16.367   7.128   2.887 -0.2507  0.4461  0.0633
26238W        W42047   6.444  12.372   4.259 -0.2184 -0.0116  0.3415
26239W        W42048  12.978   0.458  12.975  0.1400 -0.1732  0.1049
26240W        W42049  13.037  16.957   0.501 -0.0025  0.0716 -0.0094
26241W        W42050  17.858   4.527  15.165  0.2149 -0.2516  0.2808
26242W        W42051  12.839   0.856   3.449 -0.0119  0.1578 -0.1218
26243W        W42052  13.116   3.237  15.159  0.0410 -0.0539 -0.1188
26244W        W42053  17.812  11.417  11.178  0.2033 -0.0366 -0.0443
26245W        W42054  15.367  11.264  12.951 -0.1185  0.0150 -0.0629
26246W        W42055  17.727   9.251  11.686  0.2137  0.1585  0.0386
26247W        W42056  16.008  15.319  15.663  0.0328  0.1064  0.3171
26248W        W42057  17.970   5.728   4.156  0.1195 -0.0684 -0.2963
26249W        W42058   7.242  10.263  12.190  0.2605 -0.0944  0.0493
26250W        W42059  10.558   0.084  14.081 -0.0910 -0.4573 -0.0424
26251W        W42060   8.728   6.811   3.097 -0.2094 -0.3425 -0.1671
26252W        W42061   7.202  17.588   0.814 -0.0540  0.0880  0.0657
26253W        W42062  16.209  18.200   2.375  0.3346 -0.0914  0.3668
26254W        W42063   9.511   6.218  10.316  0.1816  0.3636 -0.0418
26255W        W42064   4.638  18.367  11.948  0.0096  0.0210 -0.3410
26256W        W42065   3.813   2.653   5.388 -0.1433 -0.0493 -0.3028
26257W        W42066  12.180   5.467  13.311 -0.0026 -0.0042 -0.3745
26258W        W42067  13.563  13.884  13.353 -0.5282 -0.3792 -0.1342
26259W        W42068  10.870   1.889  14.056 -0.0338 -0.4066 -0.1520
26260W        W42069   7.092  18.432  14.721  0.0567  0.2682  0.2597
26261W        W42070   5.301   7.817  12.792  0.0146 -0.1431 -0.0888
26262W        W42071   3.260   2.084  14.523  0.2194  0.1670  0.4406
26263W        W42072   2.565   8.024  12.989  0.1461  0.1153  0.2208
26264W        W42073   9.619   0.637  14.937  0.2147 -0.1118  0.2039
26265W        W42074   7.666   1.993   4.705 -0.1803  0.2940 -0.3364
26266W        W42075  18.625   2.350   1.664 -0.0692 -0.0785  0.1285
26267W        W42076   2.677   2.784   2.850  0.1395  0.2939  0.1182
26268W        W42077   8.222   3.059   3.558 -0.0531 -0.0659 -0.2726
26269W        W42078  18.561   7.251  12.569 -0.0774  0.0714 -0.1716
26270W        W42079  12.010   3.397  12.296 -0.1611  0.1508 -0.2231
26271W        W42080  14.327   3.892   3.047 -0.0230  0.2212 -0.1731
26272W        W42081   0.875  11.786  13.757  0.0828 -0.1444 -0.0704
26273W        W42082  14.299  15.475   3.181 -0.2120 -0.0513 -0.0616
26274W        W42083   5.010  10.568  14.561 -0.0724  0.1166 -0.1577
26275W        W42084   2.325  14.780  11.045  0.1851  0.0130  0.0247
26276W        W42085   1.814  17.281  12.291  0.1367 -0.1130  0.2809
26277W        W42086   1.193  12.213  13.508  0.0197 -0.0646  0.1597
26278W        W42087  12.926  13.625  14.187  0.2573 -0.2506  0.0975
26279W        W42088  12.847  13.709  10.201 -0.0197 -0.2534  0.2329
26280W        W42089   8.980  15.363  11.142 -0.0863 -0.1759  0.0167
26281W        W42090   0.215   0.296   9.632 -0.0848 -0.2212  0.2116
26282W        W42091  13.242  17.910  14.298 -0.3840  0.0452  0.0123
26283W        W42092   1.647  17.066  15.697  0.1681 -0.0226  0.0184
26284W        W42093   1.299   1.740  14.624 -0.0224  0.1910  0.2515
26285W        W42094   7.393   8.216  11.574 -0.0181 -0.3143 -0.0331
26286W        W42095  16.392   3.588   3.179  0.2023 -0.0125  0.0172
26287W        W42096   4.470  18.561  10.953 -0.0544 -0.0471 -0.1772
26288W        W42097  13.972  13.936  10.311  0.0465 -0.0101  0.0646
26289W        W42098   9.897  11.667   0.652 -0.0711  0.1518 -0.3557
26290W        W42099   3.969   0.040  12.563  0.0652 -0.0015  0.5958
26291W        W42100  16.522   7.431  13.935  0.3811 -0.1109 -0.2732
26292W        W42101   3.709   0.355   4.790 -0.0398  0.1027 -0.0435
26293W        W42102   7.828   7.229   4.971 -0.2488 -0.0536 -0.0383
26294W        W42103   1.365  14.809   0.190  0.2394 -0.0249 -0.1013
26295W        W42104  16.870   3.724  10.982 -0.0590  0.1663  0.3200
26296W        W42105  16.771   2.072   4.794 -0.0972  0.0744  0.0480
26297W        W42106  12.095   6.328   3.665  0.1046  0.0984 -0.3758
26298W        W42107   3.181   7.053   2.242 -0.2368 -0.1229  0.3154
26299W        W42108   2.530   6.249   1.217 -0.2592 -0.3319  0.0782
26300W        W42109  14.880   0.604   1.510  0.0432  0.0482 -0.1205
26301W        W42110   8.642   6.680   0.135 -0.2565  0.3235 -0.0536
26302W        W42111   0.440  17.038   4.989 -0.2568 -0.1739 -0.0545
26303W        W42112   9.184   9.623   4.258  0.0318 -0.1452  0.4810
26304W        W42113  16.707   9.860   4.494 -0.1567  0.3815  0.1073
26305W        W42114  14.655   2.614  11.084 -0.0654 -0.0604  0.0009
26306W        W42115  15.408  17.815  10.398  0.1236  0.0894 -0.2005
26307W        W42116   5.299   3.709  11.022 -0.2149 -0.0817 -0.1915
26308W        W42117   3.921   4.175   3.696 -0.2506 -0.0816 -0.1195
26309W        W42118  10.352   9.289  12.281  0.1953  0.2379  0.2303
26310W        W42119  17.753  16.650  11.333 -0.2419  0.0015 -0.3417
26311W        W42120   7.425   6.886  14.997 -0.3593 -0.0281  0.2905
26312W        W42121   1.601   9.471  13.518 -0.0623  0.3696  0.2332
26313W        W42122  11.967  10.889  13.603  0.1825 -0.1287 -0.0179
26314W        W42123  15.558  14.110  13.703 -0.1547 -0.1269 -0.0195
26315W        W42124   9.542  13.082  13.642 -0.0990  0.0290  0.2281
26316W        W42125  14.639   7.173   0.464 -0.2563  0.0217  0.1333
26317W        W42126   9.588  11.502   4.952  0.3320  0.0643  0.0249
26318W        W42127   7.738   3.005   0.578 -0.0370  0.0407 -0.2956
26319W        W42128  17.904  14.197   0.854 -0.0751 -0.2267  0.1458
26320W        W42129   0.506   2.777   3.731  0.0240  0.0869 -0.3171
26321W        W42130  12.217  10.421   3.594  0.0656 -0.0464 -0.0738
26322W        W42131  12.436   7.215   9.411  0.3728  0.1463 -0.1019
26323W        W42132   1.353  17.479   4.985 -0.1618 -0.0095  0.1114
26324W        W42133  15.354  11.870  15.287  0.2318  0.0420 -0.2085
26325W        W42134   2.885   1.621  10.857 -0.3926  0.1113  0.2596
26326W        W42135   0.962   9.679   1.305  0.1949  0.3993 -0.0453
26327W        W42136  10.365   6.906   5.139  0.0822  0.4717  0.1999
26328W        W42137   5.394  14.463   2.625  0.2427  0.0385  0.1769
26329W        W42138   5.802   2.962   4.219  0.1559 -0.0438 -0.1214
26330W        W42139  13.266  13.884   0.600 -0.1558 -0.0936  0.2386
26331W        W42140  14.597  10.393  13.180 -0.0505  0.2212 -0.2212
26332W        W42141   7.294   9.940  10.348  0.1218  0.1199  0.0072
26333W        W42142   3.224   3.681   0.336  0.2285  0.1520 -0.2489
26334W        W42143   5.720   6.963  12.817 -0.1129  0.1003 -0.0942
26335W        W42144   5.643   8.690  13.767 -0.0471 -0.0745  0.0943
26336W        W42145   3.504  17.160   0.355 -0.1801  0.0818 -0.1003
26337W        W42146   9.686  16.990  15.081 -0.3638 -0.0115 -0.1478
26338W        W42147  11.819   9.544  11.117  0.1430  0.0631  0.0061
26339W        W42148   9.523  14.540  10.668 -0.1140 -0.0344  0.0291
26340W        W42149   7.793   6.580  11.346 -0.0133  0.1412 -0.2446
26341W        W42150  11.246   5.844   5.309 -0.2346 -0.0706  0.0793
26342W        W42151   1.727  17.375  10.771 -0.1333 -0.1276  0.0707
26343W        W42152  15.748   9.926   0.601  0.1586  0.2828  0.1086
26344W        W42153   6.560  16.194   0.449  0.0326  0.2481 -0.2099
26345W        W42154  11.905  14.142   3.480  0.1680  0.1368  0.0816
26346W        W42155  12.169  11.203  13.927 -0.2029  0.0023  0.1742
26347W        W42156  13.146   7.432   3.797  0.2588 -0.0704  0.0118
26348W        W42157  12.871   5.022  12.869 -0.0472  0.1922 -0.2550
26349W        W42158  13.343  13.392   4.387 -0.0590 -0.1203 -0.0811
26350W        W42159   1.315   1.385  13.086 -0.2742 -0.2017 -0.1289
26351W        W42160   1.623  10.834   3.358 -0.1290  0.3165  0.1935
26352W        W42161  15.634  18.397  11.040 -0.1710  0.1086  0.0535
26353W        W42162   1.256   1.042   4.793  0.1072  0.2296  0.0993
26354W        W42163   0.045  12.072   5.068 -0.0036 -0.1864 -0.0034
26355W        W42164   4.142  11.756  14.428  0.0080  0.1448 -0.0787
26356W        W42165   6.041  14.671   0.614  0.0684  0.0476  0.0905
26357W        W42166  18.230   8.224  10.846 -0.0104  0.3560  0.1040
26358W        W42167  15.114  15.481  13.619  0.0356 -0.3722 -0.2517
26359W        W42168  12.916   0.588  11.631 -0.0816 -0.0623  0.1450
26360W        W42169  11.648  16.240  10.491  0.0574 -0.2103 -0.2784
26361W        W42170   0.814  10.243  13.431  0.2044 -0.0175 -0.1255
26362W        W42171   6.385  17.075  13.217 -0.0766 -0.4379 -0.2320
26363W        W42172   7.404  11.784  15.612  0.1220 -0.0919 -0.1870
26364W        W42173   5.715   3.380   3.104  0.0661 -0.2266 -0.0876
26365W        W42174   4.479  13.923   0.390 -0.0978 -0.2080  0.4017
26366W        W42175   0.662   9.947  11.449 -0.1346 -0.1757  0.0357
26367W        W42176   1.311  15.372   3.172 -0.0608  0.1846 -0.0966
26368W        W42177   1.516   3.995   3.904  0.1111  0.0159  0.2224
26369W        W42178   3.977   5.974   3.042 -0.0646 -0.0278  0.1877
26370W        W42179   5.568  17.185  11.674 -0.1331 -0.1062 -0.0773
26371W        W42180  15.292   0.556   2.051  0.0306 -0.0383 -0.0058
26372W        W42181   3.014  16.249  15.613 -0.1847  0.0406  0.1453
26373W        W42182  14.271  10.574   2.924  0.2409  0.1042  0.0617
26374W        W42183   7.132   3.507  13.955  0.0772  0.1482  0.3440
26375W        W42184  11.409  14.241   1.190 -0.0547  0.1298  0.0176
26376W        W42185   9.388  14.848  12.657  0.2784  0.2421 -0.0543
26377W        W42186   7.694   5.542  13.959 -0.0116 -0.0945 -0.0975
26378W        W42187  17.639  18.388  10.346  0.1264  0.0031  0.1606
26379W        W42188  17.015  14.311   3.967 -0.2719 -0.4787  0.4078
26380W        W42189   7.754   1.066   1.621 -0.1338 -0.2433 -0.2547
26381W        W42190  13.053   5.519  12.966  0.0283  0.0466 -0.3161
26382W        W42191  18.373   3.905   4.201 -0.2508 -0.0245 -0.1390
26383W        W42192  17.262   7.072  11.960 -0.0537 -0.5138  0.2429
26384W        W42193   4.744   5.229   5.105  0.0083 -0.1551  0.2149
26385W        W42194  14.881   5.659   2.394 -0.2953  0.3298  0.2106
26386W        W42195   5.026  10.788   3.288 -0.0585  0.1167  0.5068
26387W        W42196  13.522   5.571  13.064  0.0071 -0.3669  0.1586
26388W        W42197  10.212  17.734   5.258 -0.1172  0.1202  0.3507
26389W        W42198   8.387   1.440   2.386 -0.2002 -0.1461 -0.1064
26390W        W42199  12.074   0.008  11.481  0.2579 -0.0678 -0.1809
26391W        W42200   1.196  14.847  13.932 -0.0415 -0.2217 -0.0086
26392W        W42201   2.312   1.692   0.721 -0.0790 -0.1040  0.0868
26393W        W42202  16.566   0.720   5.158 -0.0369 -0.1599 -0.1095
26394W        W42203  16.407  10.185   4.269  0.0173 -0.1370 -0.1363
26395W        W42204  11.046  15.736   0.771 -0.0746 -0.4247  0.0344
26396W        W42205   3.313   8.713   3.627  0.0732 -0.0007 -0.0025
26397W        W42206   6.475   0.240  15.615 -0.1414  0.0473  0.2283
26398W        W42207   7.946   9.549  11.380 -0.2454  0.1502  0.1333
26399W        W42208  16.084  10.210  12.166  0.1073  0.1281  0.0587
26400W        W42209  11.842   6.393  13.768 -0.1275  0.0450 -0.0190
26401W        W42210  18.595  15.380  12.443 -0.3258  0.0915  0.0435
26402W        W42211   1.461  18.153  14.227 -0.3058 -0.1873 -0.0707
26403W        W42212   9.778   4.784   3.018 -0.0758  0.1013  0.2721
26404W        W42213   1.184   0.464  14.199  0.1784 -0.1281  0.0845
26405W        W42214  15.713   1.139  15.428  0.0748  0.1017  0.2400
26406W        W42215  15.531   9.263   2.851  0.4384 -0.0730  0.0267
26407W        W42216   8.876  16.027   2.290 -0.1812  0.3711  0.0194
26408W        W42217  12.579  11.171  11.356 -0.2347  0.1326  0.0849
26409W        W42218   1.117   1.778  13.802 -0.1391 -0.0344 -0.3222
26410W        W42219   3.087   2.626   2.511  0.0031 -0.0363  0.0475
26411W        W42220  15.462   0.722  12.785  0.2253  0.1587  0.1190
26412W        W42221   4.882   1.715   4.408 -0.1440  0.3283 -0.1249
26413W        W42222   2.928  15.518  14.817  0.1185 -0.1436  0.1120
26414W        W42223   8.877   8.075  11.679 -0.2631 -0.1733  0.2161
26415W        W42224   1.080   8.028   2.990 -0.0466 -0.0480  0.1056
26416W        W42225  17.873   4.451   4.718 -0.3306  0.3517  0.1058
26417W        W42226   2.825  12.244  14.911  0.0487  0.0508 -0.0107
26418W        W42227   3.104   0.971  11.265 -0.0529  0.3927 -0.2724
26419W        W42228  15.159  14.238  14.124  0.0558 -0.2276 -0.1712
26420W        W42229   8.227   9.046  11.100 -0.2056  0.1500  0.5130
26421W        W42230  15.140  13.401   2.655 -0.3527 -0.2146  0.1048
26422W        W42231   0.064   3.296  14.481 -0.1557 -0.0612 -0.1844
26423W        W42232   2.141   7.029   1.407 -0.0074 -0.3797 -0.2417
26424W        W42233   4.258   7.790  15.579  0.2068  0.2968  0.1563
26425W        W42234  13.531   1.595   3.253 -0.0910  0.0912 -0.1968
26426W        W42235  12.592   6.230   2.000 -0.0367 -0.0060  0.0586
26427W        W42236   6.439  13.200  12.921 -0.0529  0.0429  0.0177
26428W        W42237   5.567  10.841  12.351  0.1021  0.0187  0.1714
26429W        W42238  14.332  15.530   1.673 -0.1537 -0.0313  0.1160
26430W        W42239  15.435   0.588   5.409  0.1572 -0.6565 -0.2341
26431W        W42240  12.214  17.960   1.367  0.2393  0.0089  0.0760
26432W        W42241  10.393  13.235  13.072 -0.0784  0.1782 -0.2227
26433W        W42242   6.554   4.834   5.017  0.0535  0.3216  0.1357
26434W        W42243  16.202  10.893  13.758 -0.1821  0.1172  0.5663
26435W        W42244  11.970   5.507  11.297  0.0823 -0.0284 -0.1144
26436W        W42245   9.090  15.840   5.045  0.0231 -0.3619 -0.1941
26437W        W42246  14.437   5.868  12.037 -0.2088  0.1677 -0.1577
26438W        W42247   6.176  15.979   3.671 -0.3017 -0.0280 -0.1526
26439W        W42248  11.790   5.897  12.047 -0.1859 -0.2065 -0.0148
26440W        W42249   1.006  12.864  12.247 -0.0660  0.3036  0.0200
26441W        W42250  14.467  13.693   3.329  0.2547 -0.1823 -0.1171
26442W        W42251  17.762  14.990   1.698 -0.0652  0.1118  0.1003
26443W        W42252  10.003  15.573   4.879 -0.0131 -0.0634 -0.0086
26444W        W42253   8.961  17.882  10.887  0.0448 -0.1023  0.3672
26445W        W42254   1.195  17.085  13.386  0.0539 -0.0775 -0.0093
26446W        W42255   1.622  13.523  12.502  0.0397 -0.1802  0.0183
26447W        W42256  15.240  17.770  15.066  0.0467 -0.1131  0.0952
26448W        W42257   4.350   7.426  11.054  0.0529 -0.3932 -0.1290
26449W        W42258   1.237  11.307  14.342 -0.2322 -0.3433  0.1384
26450W        W42259  10.078  18.283   0.690 -0.2632  0.1462  0.0784
26451W        W42260  18.462  15.427   2.093  0.0004 -0.0723 -0.0863
26452W        W42261  13.320  11.547   0.817 -0.0031  0.2280 -0.1214
26453W        W42262   2.623  12.516  13.873 -0.1708 -0.2087 -0.0617
26454W        W42263   0.800   9.968   2.539 -0.3685 -0.0157  0.0763
26455W        W42264   9.633   1.055  13.596 -0.0449 -0.1664 -0.0014
26456W        W42265  10.880  10.337  12.621 -0.0241  0.1790  0.0652
26457W        W42266  16.432   7.854  13.519 -0.1499  0.0067  0.0044
26458W        W42267  13.496  17.154   2.311 -0.0495 -0.0301  0.0658
26459W        W42268  15.943  11.677  13.243 -0.0915  0.0271 -0.2295
26460W        W42269   4.494  13.008  12.780 -0.1859 -0.1766  0.0882
26461W        W42270  12.404   0.531   3.587 -0.2156 -0.0387  0.1817
26462W        W42271  14.580  15.359  11.731 -0.1351  0.0781 -0.1323
26463W        W42272   0.727   3.944   4.516 -0.2232  0.0059  0.0381
26464W        W42273  13.355  16.105   0.155  0.2321 -0.0376 -0.1105
26465W        W42274  14.629  14.277   2.264  0.0652  0.0496 -0.1229
26466W        W42275  17.948  15.775  11.149  0.0473 -0.3028  0.1956
26467W        W42276   7.346  15.889   1.565  0.1545 -0.1723 -0.1790
26468W        W42277  12.996  14.814   0.620  0.2934 -0.1786 -0.2029
26469W        W42278   3.964   4.237   0.432  0.4248  0.0320  0.0728
26470W        W42279   9.703   7.236  14.778 -0.0941  0.0084  0.1236
26471W        W42280   6.621   9.712  14.763 -0.0675 -0.0780  0.2246
26472W        W42281   8.293  14.213  14.236 -0.1702 -0.0061 -0.5384
26473W        W42282   2.746   7.587   4.273 -0.1519  0.0097  0.0360
26474W        W42283  13.515   2.652  12.807 -0.4143  0.1039 -0.1772
26475W        W42284   4.171  16.618  15.736 -0.0268 -0.1747  0.0754
26476W        W42285  14.163   1.073  12.189 -0.0970 -0.0926 -0.1347
26477W        W42286  17.247   2.982   2.348  0.2003 -0.0447 -0.2197
26478W        W42287   1.684   4.761   3.655 -0.1136  0.1865 -0.1631
26479W        W42288   2.168  16.447  11.599 -0.1717  0.0261  0.1728
26480W        W42289   9.233  13.465  13.817  0.0388  0.1393 -0.1851
26481W        W42290   1.269   0.992  12.771  0.0881  0.0244  0.2966
26482W        W42291  11.730   0.313   2.419  0.0501  0.3938 -0.2572
26483W        W42292   9.365   6.010  14.512 -0.2362  0.3044  0.2809
26484W        W42293  11.422  18.083  11.892  0.0670 -0.5257  0.2021
26485W        W42294  11.075   3.275  13.343 -0.1197 -0.2403  0.0402
26486W        W42295   7.679   5.824   4.348  0.2961 -0.0914 -0.2405
26487W        W42296  14.482  15.680  12.196 -0.0888  0.0919  0.1920
26488W        W42297   3.889   7.632  11.853 -0.4462 -0.3078 -0.1821
26489W        W42298  13.090   6.813   2.952  0.0311  0.0238 -0.1096
26490W        W42299  10.920  13.168  11.997  0.0088 -0.1233 -0.2010
26491W        W42300   0.680  18.314   3.371  0.0380 -0.0247 -0.0845
26492W        W42301   4.961   8.679  14.847  0.1215  0.1265  0.1794
26493W        W42302  13.988  18.169   2.901  0.2965  0.1358  0.0190
26494W        W42303  17.546   9.568  13.224 -0.2380  0.1393  0.2021
26495W        W42304   2.676  11.768   2.871  0.0166 -0.0724  0.0229
26496W        W42305   8.222  14.486   3.444  0.1199  0.1842  0.0122
26497W        W42306  18.207   2.538   0.566  0.1498 -0.1337 -0.2211
26498W        W42307   0.057  14.960  12.215  0.2395 -0.0626 -0.0937
26499W        W42308  17.419   2.863   3.867 -0.2371  0.1340 -0.2781
26500W        W42309  11.969   6.429  11.996 -0.1258  0.0089 -0.0407
26501W        W42310  15.408   1.200   1.233  0.0207 -0.0587  0.1029
26502W        W42311  10.473   8.258   1.611  0.1620 -0.1560 -0.0231
26503W        W42312   8.066   6.867   3.502 -0.0492  0.1387 -0.0938
26504W        W42313  17.896  14.159  12.496  0.0312 -0.2213 -0.1602
26505W        W42314  12.803   3.924  14.494  0.2806  0.0761 -0.0155
26506W        W42315   6.967   6.984  15.121 -0.1835  0.2623  0.2479
26507W        W42316   0.612  12.418   1.541  0.3200  0.1804  0.0530
26508W        W42317   7.857  17.113   3.902 -0.2109 -0.1543 -0.1180
26509W        W42318   8.700   0.175  11.435 -0.2880  0.2933 -0.0488
26510W        W42319   5.913  11.950   1.834  0.0546  0.0379  0.0606
26511W        W42320   2.393  14.492   2.561  0.1494  0.1490  0.0828
26512W        W42321   6.341   0.746  10.975 -0.1209  0.1975  0.0642
26513W        W42322   8.807  10.563  14.198  0.0043 -0.4622 -0.0493
26514W        W42323  14.784  18.337  10.889 -0.1351 -0.0615 -0.0152
26515W        W42324   1.587   0.479   2.397  0.3781  0.1915 -0.2942
26516W        W42325   1.128   7.402  12.891 -0.0167  0.1130  0.0949
26517W        W42326   4.707  17.609  15.590  0.1411 -0.3124 -0.1990
26518W        W42327  15.006  11.442   2.856 -0.1857 -0.0591  0.0797
26519W        W42328  10.054  18.646  11.450 -0.2161  0.0527  0.2477
26520W        W42329   8.420   6.624  11.499 -0.2811  0.2219  0.2073
26521W        W42330  13.945   4.285  14.916  0.0054  0.0118  0.0467
26522W        W42331   1.310  15.704   3.558 -0.2250  0.2229  0.0447
26523W        W42332   4.552   3.703  12.085 -0.0653 -0.2268  0.3565
26524W        W42333   3.539  10.417   0.663  0.0845 -0.3238 -0.0103
26525W        W42334  14.911   9.341   4.509 -0.3645 -0.1337  0.1465
26526W        W42335   0.067  12.128  14.211 -0.0218 -0.3088  0.0089
26527W        W42336   6.952   8.529   3.752  0.1641  0.1521 -0.3468
26528W        W42337   3.391  16.563   4.689  0.1767  0.2378 -0.0704
26529W        W42338  16.814   4.748  13.791  0.4231 -0.1632 -0.1406
26530W        W42339   5.880  16.766   0.698  0.1388  0.0188  0.0276
26531W        W42340   9.824  16.343  13.987 -0.2178 -0.5222  0.0859
26532W        W42341   5.262   8.803   5.564  0.0396 -0.3495  0.1562
26533W        W42342   0.926  17.530  13.560 -0.0206 -0.1731  0.1139
26534W        W42343  10.099  10.145   5.224  0.1410  0.0465 -0.0218
26535W        W42344   4.248   6.506  13.904 -0.0923 -0.4931  0.4169
26536W        W42345   4.011  13.090  12.915 -0.0146 -0.0672  0.0312
26537W        W42346  15.589  13.419  10.857  0.1877 -0.2285 -0.2683
26538W        W42347   4.513   3.566  13.032  0.2678 -0.0953 -0.0820
26539W        W42348  15.420   7.835   2.370 -0.1203  0.1075 -0.1517
26540W        W42349   4.304   9.318   5.396  0.0587  0.2992 -0.0231
26541W        W42350  17.820   7.030  14.206  0.0284  0.1337  0.0681
26542W        W42351   3.798  10.968   1.403  0.3253 -0.0385 -0.2308
26543W        W42352   7.100   8.245  13.365 -0.1032  0.0911  0.3122
26544W        W42353  11.787   7.483  12.891 -0.3579  0.0438  0.3332
26545W        W42354  14.389   7.251  14.016 -0.0131  0.0276  0.2707
26546W        W42355   2.971   2.324   0.034  0.0615  0.2208 -0.1414
26547W        W42356   4.690   9.809  11.128  0.0480  0.3442 -0.0184
26548W        W42357   7.163   0.136  12.794  0.2820  0.1360  0.0744
26549W        W42358  15.544  18.457   3.030  0.2525 -0.3790 -0.1404
26550W        W42359   4.927   6.045  13.424 -0.3936  0.2200 -0.3878
26551W        W42360   5.791  12.457  12.703 -0.0988  0.1249  0.1101
26552W        W42361   3.486   9.101  11.897  0.2927  0.0037  0.2977
26553W        W42362  16.583  10.902  12.547  0.1348 -0.1393 -0.1212
26554W        W42363   3.702   1.076  10.791  0.1151  0.0737  0.2430
26555W        W42364   9.905   2.845  15.737  0.1576  0.0740 -0.1959
26556W        W42365   5.936   2.817  10.659  0.2632  0.2441 -0.2763
26557W        W42366   0.161  17.182  13.274  0.0732 -0.0205  0.2405
26558W        W42367  15.314  12.629   5.465 -0.0910 -0.1008  0.1724
26559W        W42368   2.507   9.329   0.958  0.0347 -0.2537  0.2074
26560W        W42369  10.915   2.231  14.522  0.2096 -0.1424  0.1423
26561W        W42370  11.657  13.584  11.887  0.0013  0.1471 -0.6206
26562W        W42371   9.765   4.829  12.677 -0.0661 -0.1848 -0.0405
26563W        W42372   9.332   1.590   3.261  0.0216  0.0363 -0.2375
26564W        W42373   9.808  14.389  11.079 -0.1115 -0.1410  0.0960
26565W        W42374   8.874   1.419  10.566  0.3570 -0.2791  0.2248
26566W        W42375  12.716   6.016  14.099 -0.2045 -0.0018  0.2124
26567W        W42376  12.103  16.566   4.861 -0.0120 -0.1014  0.0706
26568W        W42377   9.199   0.198   5.383 -0.2873  0.3297 -0.1260
26569W        W42378   7.648   5.696  15.719 -0.0162 -0.1428  0.0711
26570W        W42379  10.912  11.182  10.464 -0.3806 -0.2126 -0.1057
26571W        W42380  13.356  13.704   5.246  0.1195 -0.2319  0.0472
26572W        W42381   8.425   5.876  14.797 -0.0895 -0.0330  0.0558
26573W        W42382   9.384  12.854  12.626  0.0556 -0.0975  0.0406
26574W        W42383  12.146  16.196  11.334  0.0163 -0.0489  0.0261
26575W        W42384   8.350  15.308   5.134  0.3489 -0.2854 -0.2060
26576W        W42385   6.509  11.773  15.708  0.1329  0.1694 -0.0386
26577W        W42386  16.562   3.636  11.378  0.0207  0.1438 -0.3302
26578W        W42387  12.796   4.049  10.677  0.1073 -0.1715 -0.0528
26579W        W42388   5.901   8.896  11.881 -0.0492 -0.0099  0.4265
26580W        W42389  16.561   9.427  14.866  0.4506 -0.1036  0.2312
26581W        W42390   9.702  12.439   3.605 -0.2026  0.0209  0.0252
26582W        W42391  12.259  10.377   0.072 -0.0587 -0.4690  0.1845
26583W        W42392   6.874  17.901   4.863  0.1741  0.6358 -0.0087
26584W        W42393  12.575   6.238  14.519  0.5790  0.4668 -0.1070
26585W        W42394   9.165  12.615  10.977 -0.0523 -0.2717  0.2564
26586W        W42395  14.672   9.572  12.218  0.1106 -0.3501  0.2223
26587W        W42396   5.686  18.491  11.245  0.1948  0.1587  0.2924
26588W        W42397  16.062  13.125  10.885  0.0753  0.1940  0.1827
26589W        W42398  15.311  17.108  13.841  0.1789  0.0591 -0.1175
26590W        W42399   1.746  13.010   1.666  0.1457 -0.0360  0.2447
26591W        W42400   2.609  18.492  14.988  0.2279 -0.2043  0.1768
26592W        W42401   5.200  12.067   3.165 -0.0605 -0.0198 -0.0905
26593W        W42402  18.201  14.927  13.079  0.0488  0.3081 -0.0776
26594W        W42403  16.013  11.377   1.664  0.1749 -0.0557  0.1827
26595W        W42404   8.564   8.850   1.022  0.2271  0.2167 -0.1984
26596W        W42405   3.908   0.659   0.326 -0.3931 -0.0228 -0.2761
26597W        W42406  11.547   2.292  14.379  0.1853  0.2667  0.0915
26598W        W42407   6.634  13.054   5.478  0.4732  0.0954  0.0926
26599W        W42408   1.858  11.840  11.376 -0.3794  0.2449 -0.0825
26600W        W42409  14.520  11.280   2.488 -0.4561 -0.0213 -0.2069
26601W        W42410   4.481  17.307  11.802 -0.1900  0.2785  0.0599
26602W        W42411   5.739  18.318   0.465  0.1567  0.1135  0.0047
26603W        W42412  11.869  13.300  10.499 -0.1257  0.0805  0.3030
26604W        W42413  15.826  11.575   4.157 -0.0369 -0.1789  0.0331
26605W        W42414  17.140  16.164  10.710 -0.0140 -0.1883 -0.2119
26606W        W42415  12.745  13.169   1.862 -0.0234 -0.1461  0.1318
26607W        W42416   1.311   1.214   3.531  0.2596 -0.2811  0.0707
26608W        W42417  11.310  10.256  12.855  0.0225  0.1722  0.0288
26609W        W42418   8.367   6.398   4.220 -0.1289  0.0455  0.2827
26610W        W42419  14.586  11.067   3.757 -0.1627 -0.0367 -0.2907
26611W        W42420  13.469   3.491  10.763  0.0476  0.0341  0.2789
26612W        W42421   0.857   1.076   3.390 -0.2881 -0.1642 -0.1946
26613W        W42422   7.164  14.462  15.520 -0.1990 -0.0334  0.2203
26614W        W42423   6.141  13.114   3.981  0.0365  0.0227  0.2758
26615W        W42424  11.707   6.876  15.016 -0.2511 -0.2314 -0.2411
26616W        W42425  16.887  13.861  12.443  0.2687  0.0289  0.1738
26617W        W42426  14.997   2.141  15.522  0.1033 -0.2055  0.0085
26618W        W42427   4.509  11.858  11.312  0.0202  0.1205  0.0052
26619W        W42428  13.172   0.124   1.407  0.0227  0.1520 -0.2799
26620W        W42429   6.218  17.011   2.883  0.4490  0.2568  0.1821
26621W        W42430  12.682   1.713  12.597 -0.0236 -0.0165 -0.0490
26622W        W42431  17.005  11.883  15.270 -0.0958 -0.1292 -0.2346
26623W        W42432  10.882  12.107   1.408  0.1224 -0.2401 -0.1625
26624W        W42433  14.628   1.653  14.766  0.0663 -0.1027  0.2052
26625W        W42434  18.272   8.412  11.444  0.2049 -0.2625 -0.4555
26626W        W42435   2.999   4.336   5.376 -0.0439  0.2644  0.0369
26627W        W42436  10.143  12.051   3.601 -0.1682  0.2140 -0.2759
26628W        W42437   1.134  11.321  12.544  0.0643 -0.1857  0.1335
26629W        W42438  10.056  16.081   0.457  0.2174  0.2670  0.1286
26630W        W42439  17.919   3.264   4.593 -0.0077 -0.0357  0.3484
26631W        W42440   5.320   3.902  14.962 -0.0167  0.0467 -0.0379
26632W        W42441   6.637   4.752  14.185  0.0074  0.2850 -0.1200
26633W        W42442   1.341  14.315  15.501  0.1498  0.0714 -0.0122
26634W        W42443   4.810  13.115   2.693  0.1527  0.2688 -0.1515
26635W        W42444   0.773  17.654  15.536  0.0640 -0.1543 -0.0476
26636W        W42445  18.282   9.447  15.092 -0.1748 -0.0810  0.0479
26637W        W42446   1.112  14.773   5.606 -0.0197 -0.4171 -0.0363
26638W        W42447  16.624   1.751  13.757 -0.1466  0.1087 -0.0218
26639W        W42448   9.434  16.102  15.443  0.1046  0.3166  0.0431
26640W        W42449   3.077   1.140   0.963 -0.1298 -0.0188 -0.2474
26641W        W42450   7.455   6.830  11.596  0.3936 -0.4134 -0.1179
26642W        W42451   5.883  12.262  10.860 -0.2001 -0.1584  0.4643
26643W        W42452   7.413   8.829   2.386  0.0406 -0.0092 -0.3452
26644W        W42453  15.558   4.171  10.770  0.1582 -0.2180 -0.2832
26645W        W42454  15.408  17.638   0.784 -0.0827  0.2600 -0.0687
26646W        W42455   8.810   1.306  15.143  0.2334 -0.1939  0.0575
26647W        W42456  18.528  17.709   0.336 -0.0099 -0.1969 -0.1142
26648W        W42457  15.920   1.271  14.549 -0.0548 -0.2706 -0.2169
26649W        W42458  13.869  16.665  10.280 -0.0757  0.1709  0.0009
26650W        W42459  16.557  10.179   3.256 -0.0592 -0.2812  0.1419
26651W        W42460   6.350  14.363   2.791 -0.0849 -0.2665  0.4712
26652W        W42461  11.218  13.402   0.261  0.0285  0.1472  0.1247
26653W        W42462  14.762   5.456   0.627 -0.1470  0.2824 -0.0889
26654W        W42463  14.744  17.018  10.703  0.0649 -0.2421  0.0215
26655W        W42464  11.676  18.047   2.556 -0.0035 -0.1311  0.0262
26656W        W42465   4.948   4.710   4.015 -0.1657 -0.2652  0.0148
26657W        W42466   9.464   4.471   2.309 -0.3689 -0.0516 -0.1014
26658W        W42467  12.068  14.275  14.884 -0.0179 -0.0243  0.0269
26659W        W42468  12.568  11.811  14.749  0.0401  0.0688 -0.0596
26660W        W42469  17.936   7.929   0.758 -0.2992 -0.5363 -0.0220
26661W        W42470  17.341  15.484   1.142 -0.2479 -0.2852  0.0165
26662W        W42471  12.204   2.521  14.033 -0.1781  0.0642  0.0761
26663W        W42472  13.454  14.527  15.097 -0.1318 -0.0062 -0.3224
26664W        W42473   1.489   0.257   4.838  0.1936 -0.2167  0.1216
26665W        W42474   4.873   9.722   3.579  0.0317  0.1180  0.0495
26666W        W42475  12.705   3.616  11.742  0.0818  0.1338  0.4982
26667W        W42476   3.329   0.525   4.564 -0.1498 -0.1204  0.1528
26668W        W42477   2.446   1.769  12.843 -0.0255  0.2175  0.1500
26669W        W42478  18.570   0.208   5.189  0.0484  0.2214 -0.2604
26670W        W42479   8.980   8.655  12.526  0.0400  0.2654 -0.0783
26671W        W42480   0.542  17.566  13.181 -0.2092 -0.2546 -0.3734
26672W        W42481  18.383  14.451   0.809 -0.2245  0.1893  0.1067
26673W        W42482   9.627  12.342  10.804 -0.2837 -0.2065 -0.1261
26674W        W42483   7.556  15.321  15.453  0.2121  0.1555 -0.1892
26675W        W42484   6.189  16.899   1.562  0.0561  0.1423  0.0659
26676W        W42485  14.113   9.157  13.326 -0.1891 -0.0154  0.1563
26677W        W42486  18.405   4.884   2.624 -0.0001  0.0620 -0.2030
26678W        W42487   0.898  16.439  15.266 -0.0054 -0.2376 -0.4804
26679W        W42488  12.071  12.806   3.432  0.2608  0.1563  0.1111
26680W        W42489   4.388   2.595   5.618  0.2515 -0.1237 -0.1423
26681W        W42490  13.240  18.147   2.212  0.1554 -0.3790 -0.2302
26682W        W42491   7.331   0.011   4.587 -0.2320  0.1989 -0.2241
26683W        W42492   8.028  17.826   0.296 -0.0637 -0.0417  0.0442
26684W        W42493  17.032  16.239   2.819  0.2958 -0.0437  0.0555
26685W        W42494   6.581  10.154   1.782 -0.0854  0.1220  0.4274
26686W        W42495  13.016   5.871   1.943 -0.3803  0.0122 -0.1764
26687W        W42496  16.185   8.950   3.901  0.0499 -0.0873  0.1855
26688W        W42497  11.950  16.969  14.385 -0.5435 -0.0000 -0.1970
26689W        W42498   2.704   4.576   4.686 -0.0247 -0.1301  0.0898
26690W        W42499  16.532  16.202   1.475  0.0967  0.2175 -0.0252
26691W        W42500  15.382   1.037   2.086 -0.2142 -0.1232 -0.0087
26692W        W42501  10.565  12.933   4.469  0.1199  0.0201  0.0766
26693W        W42502   0.639  16.388  14.824  0.0436 -0.1610  0.2044
26694W        W42503  17.038  11.699  12.290 -0.0456  0.1771 -0.0942
26695W        W42504   1.127   3.522  11.285 -0.0673  0.0442  0.0233
26696W        W42505   9.973  14.188  10.105  0.2512  0.0837 -0.2049
26697W        W42506  13.679  18.531   3.004  0.2159  0.1613 -0.1501
26698W        W42507  11.957  11.317  12.636  0.1520 -0.0197  0.0295
26699W        W42508   9.754   1.218   2.365  0.1671  0.3277 -0.1084
26700W        W42509   5.905  13.327  12.274  0.1229 -0.0413  0.0610
26701W        W42510   1.257   8.659  14.490  0.0243  0.2600 -0.1826
26702W        W42511  14.064   7.224   1.565 -0.0706 -0.0417  0.1048
26703W        W42512   5.106   2.916  14.827  0.1172 -0.3493  0.0650
26704W        W42513  12.703   7.396  12.683  0.0718  0.2122 -0.0468
26705W        W42514  11.654   9.724   0.062 -0.0409  0.1618  0.2271
26706W        W42515   7.531   2.882  13.429 -0.0988  0.0581 -0.1792
26707W        W42516   5.201   8.264   2.724  0.0771 -0.1741 -0.1342
26708W        W42517   3.285  16.945   5.042 -0.4375  0.1792 -0.0019
26709W        W42518   1.030   3.568  14.698 -0.1442  0.2980 -0.1804
26710W        W42519   7.651   9.578   1.542  0.0841  0.0297 -0.0446
26711W        W42520  15.207   7.361   4.867 -0.2416 -0.0742 -0.0002
26712W        W42521   9.504  16.627   1.679  0.0704  0.1571  0.0519
26713W        W42522  11.183   2.019   0.069 -0.2705  0.1017  0.1727
26714W        W42523  17.034  10.552   5.552  0.1801 -0.1267  0.0991
26715W        W42524  18.006   8.176  12.397 -0.1370  0.1802 -0.1601
26716W        W42525   9.477   5.813   3.358 -0.3209  0.0503 -0.2297
26717W        W42526   8.132  10.434  10.894  0.0777 -0.0950  0.1571
26718W        W42527  15.784  10.653  13.052 -0.1098  0.1799 -0.3531
26719W        W42528   7.041  17.482  14.330  0.2001 -0.0308  0.2592
26720W        W42529  10.372  13.390   2.362 -0.2339 -0.3564  0.1681
26721W        W42530   9.381   2.203  11.656 -0.0480  0.1639 -0.3274
26722W        W42531   5.543  17.706  15.058 -0.0690  0.0660 -0.2300
26723W        W42532   0.886   8.554   2.317  0.0353  0.1462  0.2482
26724W        W42533  16.094   5.483   1.992  0.1507 -0.0977 -0.1001
26725W        W42534  15.078   9.819  12.008  0.0290  0.3433 -0.4591
26726W        W42535  13.269   1.487   0.911  0.0266 -0.1749 -0.3797
26727W        W42536   4.739  13.573  14.519 -0.2055 -0.1667 -0.0500
26728W        W42537  18.097  12.232   4.188 -0.0013  0.0276  0.0319
26729W        W42538   5.778   7.766  12.708  0.1700 -0.2327  0.2407
26730W        W42539  16.949  12.298  11.553  0.2419  0.1179 -0.2663
26731W        W42540   3.223  16.988   1.618 -0.1699 -0.2107 -0.1242
26732W        W42541  12.813   9.416  11.384 -0.3169 -0.0310  0.3311
26733W        W42542  18.301   3.486   3.277  0.2165  0.3225 -0.0667
26734W        W42543  16.990  14.186  11.829 -0.1329  0.0275 -0.1717
26735W        W42544   4.753   2.302   4.466 -0.0398  0.0685  0.5958
26736W        W42545  16.569  17.389  13.814  0.0998  0.1638 -0.2350
26737W        W42546  10.826   5.438   1.639  0.3584 -0.2232 -0.0481
26738W        W42547  11.751  12.219  11.627 -0.1827 -0.1984 -0.0227
26739W        W42548  12.446   4.416   2.397 -0.1205  0.2294  0.0048
26740W        W42549   9.943   3.870   3.928 -0.1720  0.0709  0.3103
26741W        W42550  18.539  11.315  12.360 -0.0660  0.0150 -0.0910
26742W        W42551  11.595   0.266  14.323 -0.0434 -0.0620 -0.1758
26743W        W42552  18.129   6.683  12.653  0.0841 -0.0078  0.0695
26744W        W42553   1.844  15.984  11.567  0.0086  0.0253  0.0925
26745W        W42554   7.453   4.143   4.061  0.1205  0.0336  0.0849
26746W        W42555   8.787  13.563  12.495 -0.1105 -0.2944  0.1593
26747W        W42556   8.673   0.669   4.002  0.1493  0.1579  0.0716
26748W        W42557  18.633   1.508  13.616 -0.0381  0.4360  0.0436
26749W        W42558   3.366  18.427   2.611  0.1224 -0.0635 -0.0622
26750W        W42559  12.789  10.217   4.157 -0.1342  0.1807  0.2728
26751W        W42560   0.060  13.056  14.318  0.0246  0.0332 -0.3022
26752W        W42561   2.820   9.114   5.142 -0.1275  0.1531 -0.0985
26753W        W42562  10.288  14.586   2.104  0.1366 -0.0981 -0.3247
26754W        W42563  12.253  13.691   0.314 -0.1155  0.1862  0.3713
26755W        W42564  18.658   1.138   4.927 -0.1318  0.1354 -0.1310
26756W        W42565   8.110   6.287   4.684  0.2335 -0.0358  0.0569
26757W        W42566  13.429  13.856  11.124 -0.0388 -0.1840 -0.0095
26758W        W42567  11.216  15.028   2.889 -0.0536  0.0094 -0.0619
26759W        W42568   5.416   5.860   4.863  0.0338 -0.3914 -0.1107
26760W        W42569   9.894  17.052  14.620 -0.0804  0.1273 -0.0918
26761W        W42570  12.368   0.467  11.941 -0.4255  0.1021  0.0974
26762W        W42571   0.982   7.259   0.191  0.2804  0.0553  0.1836
26763W        W42572   7.819  11.821   0.141 -0.0906  0.3138 -0.0852
26764W        W42573  17.954   4.735   0.336 -0.0915  0.0077 -0.1406
26765W        W42574   9.182  11.552  12.241  0.2902 -0.2588  0.0127
26766W        W42575  16.458  17.517   0.647  0.1456  0.0302 -0.2183
26767W        W42576   8.315   9.470  12.902  0.0311  0.2993  0.0237
26768W        W42577   9.335   6.202   0.024  0.0643  0.5744  0.0722
26769W        W42578  16.138  12.254   3.365 -0.1057 -0.3561  0.4767
26770W        W42579   3.240   0.721   1.342  0.0646 -0.0049  0.4553
26771W        W42580  14.036   9.628   0.067 -0.2284 -0.1444 -0.0943
26772W        W42581   1.791  10.368  12.513  0.2613 -0.0298 -0.0378
26773W        W42582  13.086   2.820   0.966 -0.0473 -0.0397  0.0743
26774W        W42583   5.195  11.086   5.815 -0.3324 -0.2157 -0.1724
26775W        W42584   0.694   0.735   2.602  0.1946  0.2049  0.2725
26776W        W42585  10.347  10.330  12.470  0.1254  0.2537 -0.1084
26777W        W42586  10.945  17.129   2.995 -0.2378  0.4129 -0.1461
26778W        W42587  12.793   5.341   5.221 -0.0521  0.2502  0.0136
26779W        W42588  16.178   8.653   5.170 -0.0245 -0.0987  0.0470
26780W        W42589   3.578  10.997   0.054 -0.2558  0.1814  0.1249
26781W        W42590   9.316   5.690   0.129 -0.0444  0.2613  0.1895
26782W        W42591  16.626  10.424  11.316 -0.0727 -0.2408 -0.0202
26783W        W42592   7.268  11.194   4.884 -0.1070 -0.0421  0.0512
26784W        W42593  10.435  12.401   2.891 -0.4013 -0.2393 -0.0292
26785W        W42594  14.069  14.653  11.316  0.1241  0.1448  0.0050
26786W        W42595  14.462   1.914  14.382 -0.1255  0.2151  0.1010
26787W        W42596   9.115   8.598  11.408 -0.0029  0.0412  0.1798
26788W        W42597   8.302   4.478   3.599 -0.2587  0.0518  0.2060
26789W        W42598   6.667   7.779  12.983 -0.0100  0.0697  0.1518
26790W        W42599   3.296   1.930  11.482 -0.3249  0.0679 -0.0882
26791W        W42600   9.623   8.002  10.031  0.1255  0.1805  0.0707
26792W        W42601   7.286   6.210  15.665 -0.3023 -0.1038 -0.0702
26793W        W42602  13.136  18.125   0.134 -0.1568 -0.0059  0.0064
26794W        W42603   2.189  16.267   2.672 -0.1233  0.1364 -0.1477
26795W        W42604  17.264   2.740  14.690 -0.1461  0.1856  0.2137
26796W        W42605   0.025   3.766  15.466 -0.2967  0.1441  0.2412
26797W        W42606  10.935   6.597  12.681  0.0963 -0.0813  0.3077
26798W        W42607  15.569   5.646   3.053 -0.2092  0.1435  0.0041
26799W        W42608   4.347  12.754  14.031 -0.2083  0.1209 -0.1532
26800W        W42609  10.598  12.833  10.625  0.0080 -0.0523  0.2071
26801W        W42610  12.086  15.534  10.760  0.1710 -0.2552  0.0262
26802W        W42611   7.741  13.005  14.185  0.0662  0.2512 -0.1684
26803W        W42612   4.974   8.233  15.076 -0.0811 -0.1795 -0.3425
26804W        W42613   2.546  15.830   3.513 -0.1762  0.2062  0.2345
26805W        W42614   7.228   2.263  11.278  0.0298  0.1417  0.0368
26806W        W42615   9.245  10.658   3.379  0.2249  0.1396  0.1480
26807W        W42616   8.287   6.527   2.191 -0.3623  0.2411 -0.0125
26808W        W42617   5.112   6.959  12.378 -0.1110  0.0739 -0.2421
26809W        W42618   0.690  14.772   3.334 -0.2625 -0.0276 -0.0781
26810W        W42619   0.422  14.348  13.611  0.1480 -0.0365  0.2415
26811W        W42620   6.701  12.242   3.023  0.0269 -0.2192  0.0208
26812W        W42621  14.115   2.262  12.899 -0.0739 -0.0410  0.1276
26813W        W42622   2.775  12.212  13.396 -0.0594  0.1956 -0.1283
26814W        W42623  10.100   9.533   3.789  0.0022 -0.0709 -0.1641
26815W        W42624   6.458  11.483   2.742  0.0058 -0.1084 -0.0601
26816W        W42625  13.326  10.041   0.338 -0.1431 -0.0043 -0.0772
26817W        W42626   0.547   0.422   4.578  0.5313 -0.2315 -0.2017
26818W        W42627   4.430   2.275   0.533  0.0510  0.1814  0.0879
26819W        W42628   2.988   2.969   2.125 -0.0963  0.2395 -0.0742
26820W        W42629  18.234  14.116   4.188 -0.0075 -0.4444  0.1835
26821W        W42630   5.794  11.047  15.595 -0.0505  0.0032  0.1075
26822W        W42631   4.558  14.880   2.520 -0.0204 -0.2032  0.0640
26823W        W42632  18.002   0.417   2.397 -0.1439 -0.1368  0.1700
26824W        W42633   8.247  16.675  15.605  0.1123  0.0472 -0.2602
26825W        W42634   5.539   6.570  11.679  0.2497  0.0408 -0.1507
26826W        W42635  16.109  14.327   9.437 -0.2548  0.4286 -0.5110
26827W        W42636  17.805   6.751  15.716 -0.2144  0.0310  0.1215
26828W        W42637  16.352   7.377   4.012  0.0541  0.1040 -0.3803
26829W        W42638   1.744   7.743   0.315 -0.0745 -0.0206 -0.3223
26830W        W42639  14.533  12.336   5.909 -0.0788 -0.0835  0.1126
26831W        W42640  12.575   2.175   1.954  0.0378 -0.2102 -0.1673
26832W        W42641   3.060  13.741  11.343 -0.5908 -0.1922  0.0534
26833W        W42642   3.100   6.097   3.184  0.3515  0.1281  0.2802
26834W        W42643   5.764   4.006   0.984 -0.2543 -0.1284 -0.2183
26835W        W42644   7.837   9.117  12.798 -0.2777 -0.1088 -0.3470
26836W        W42645   7.310   7.534   3.512 -0.2544  0.2291 -0.2105
26837W        W42646  10.254  11.506  10.708  0.0837  0.0503 -0.5432
26838W        W42647   1.636   9.907   3.554  0.0009  0.1765 -0.0235
26839W        W42648   7.436   1.938  12.413  0.1683  0.0865  0.0979
26840W        W42649   1.826   7.034  14.166 -0.0922 -0.0145 -0.0775
26841W        W42650   1.798  16.678   2.660 -0.5527 -0.2512  0.3635
26842W        W42651  15.719  12.190  11.976 -0.1834  0.3430  0.5172
26843W        W42652  16.824  14.857   4.740  0.1781  0.0594  0.1598
26844W        W42653  14.302   2.982   1.117 -0.0133  0.2108 -0.2605
26845W        W42654   5.377   2.711   5.079  0.0576  0.4481  0.0009
26846W        W42655  17.952   5.272  13.128 -0.1965 -0.0550 -0.1406
26847W        W42656   8.162   7.867  11.214  0.0296 -0.0338 -0.1848
26848W        W42657   9.799   6.265  15.306 -0.0363  0.1438 -0.1645
26849W        W42658  10.546   3.823  11.500  0.3742  0.1496 -0.2005
26850W        W42659   1.352  13.970   3.346  0.1940 -0.1478 -0.0440
26851W        W42660  11.113   8.645   4.979  0.1752  0.0148  0.4519
26852W        W42661   7.876   9.819   1.203  0.3365 -0.2386 -0.2875
26853W        W42662   5.849   2.865   3.688 -0.0318 -0.1663  0.1175
26854W        W42663   4.855  18.072  15.515 -0.1505  0.0929 -0.0744
26855W        W42664  16.608  10.033  14.785  0.3925 -0.0328 -0.1428
26856W        W42665  12.035   0.303   3.803  0.2926  0.1502 -0.1020
26857W        W42666  18.459  13.322  11.448  0.1570  0.1298  0.0049
26858W        W42667  17.632  11.723   2.769  0.2769  0.0475 -0.0473
26859W        W42668   8.383   1.380   4.212 -0.1895  0.0902  0.1473
26860W        W42669   1.000   2.414   2.021  0.1392  0.1008 -0.0563
26861W        W42670   2.757   1.788   3.629  0.1088 -0.0391 -0.1119
26862W        W42671  17.095   6.277   0.181 -0.1573 -0.0803  0.0694
26863W        W42672  14.425   2.801  10.178  0.0539 -0.1707  0.2083
26864W        W42673  17.228  12.207  13.287 -0.2927 -0.4041  0.1528
26865W        W42674   1.304  12.823   2.560 -0.0768  0.2672  0.0145
26866W        W42675   4.796  10.627  14.980  0.2758  0.0081  0.1304
26867W        W42676  13.102   6.993   1.331 -0.1197  0.1195 -0.0157
26868W        W42677  12.311   7.104   1.740 -0.0128  0.0587  0.0859
26869W        W42678   0.653   0.113   3.195  0.1147  0.2914 -0.1147
26870W        W42679   5.472  17.932   0.721 -0.0650 -0.0693 -0.1433
26871W        W42680  17.807   4.946   4.941  0.2901  0.2829 -0.1455
26872W        W42681   9.575  10.008   5.883 -0.3964  0.1244  0.2414
26873W        W42682   8.316  15.144   0.951 -0.1451 -0.1040 -0.3296
26874W        W42683  17.335  17.761   4.895  0.1252 -0.1182 -0.0035
26875W        W42684  11.693  11.021   1.638 -0.5944 -0.1049 -0.0392
26876W        W42685   1.320  15.983   4.616 -0.1291 -0.1450  0.3151
26877W        W42686   6.321   5.376   2.202  0.0894  0.0415 -0.2794
26878W        W42687   7.975  12.290  13.245 -0.1310 -0.0549  0.0192
26879W        W42688   4.876  18.184  12.583 -0.0806  0.1873  0.2237
26880W        W42689  14.789  17.484  11.453 -0.1656 -0.1793 -0.3239
26881W        W42690   4.268  14.896  13.500 -0.1022 -0.1228  0.0804
26882W        W42691  13.619   2.195  12.936  0.0695  0.0587 -0.1527
26883W        W42692  18.405   5.959  13.289  0.0458  0.0361 -0.2528
26884W        W42693   6.228   7.750   5.132  0.2559  0.2265  0.1878
26885W        W42694   3.254   8.934  14.666  0.3830 -0.1097  0.0131
26886W        W42695   2.644   4.392  11.060 -0.1295  0.0454 -0.2769
26887W        W42696   5.072   7.768   3.454 -0.2394 -0.0483 -0.0682
26888W        W42697   5.186  13.028  12.987 -0.0340 -0.1486  0.2574
26889W        W42698   4.255  11.860  13.956 -0.0540 -0.2350  0.2545
26890W        W42699  14.321  13.778  14.130 -0.0895  0.0307 -0.0315
26891W        W42700   7.203  16.370   1.435  0.2042 -0.0694  0.1971
26892W        W42701  10.709   3.610  13.401 -0.3667 -0.0815 -0.3409
26893W        W42702  16.866   3.345  13.227 -0.3312  0.0348 -0.1251
26894W        W42703  13.533  15.361  14.064  0.3008  0.1524  0.1670
26895W        W42704  14.317   4.323  15.299 -0.2138  0.0108 -0.2674
26896W        W42705   1.656  14.894   3.387 -0.0212  0.1432  0.3108
26897W        W42706  12.458   3.042   3.544  0.1023  0.0718  0.2072
26898W        W42707  15.798  17.014   4.078 -0.1156  0.0309 -0.1820
26899W        W42708  16.674   0.889  12.006  0.0392 -0.1114 -0.1033
26900W        W42709  12.223  11.129  15.287 -0.0104 -0.0021 -0.2109
26901W        W42710  17.002  16.168   1.581  0.3000  0.2155  0.1303
26902W        W42711   3.889   1.654  13.271  0.1110  0.1868  0.0270
26903W        W42712  12.661   5.902   1.214  0.0440  0.0614  0.4818
26904W        W42713  16.000   0.708   2.694  0.2131  0.0920  0.0397
26905W        W42714   3.832  17.790   4.797  0.1421 -0.0763 -0.2393
26906W        W42715   4.614  16.930  13.051 -0.2746 -0.1747  0.0427
26907W        W42716   1.032   6.046  12.674 -0.0741 -0.1031 -0.1133
26908W        W42717  10.876   8.258   4.695  0.0271 -0.2474 -0.2606
26909W        W42718   1.149   4.943  12.411 -0.2967  0.2996 -0.3157
26910W        W42719   8.351   7.730  11.678 -0.1854  0.3453 -0.2497
26911W        W42720  12.973  16.470  15.166  0.2291  0.3133  0.0147
26912W        W42721   3.674  12.959  11.466  0.0499  0.0773  0.2861
26913W        W42722  17.739  17.872   5.781 -0.0499  0.1654 -0.1636
26914W        W42723  13.854   7.043   5.168 -0.1821  0.1014 -0.0344
26915W        W42724   2.748  17.565  13.673  0.0454  0.1561  0.1206
26916W        W42725   7.699   6.954   0.458 -0.1289 -0.0267  0.1483
26917W        W42726  10.730   3.730   1.676  0.0594 -0.2111  0.0346
26918W        W42727  15.074  12.144   1.788 -0.1521  0.2890 -0.1827
26919W        W42728  17.109   2.000  14.928 -0.1746 -0.1588 -0.0188
26920W        W42729   4.270  16.776   0.685  0.0504  0.0524 -0.2401
26921W        W42730   5.021   9.814   1.214 -0.1173 -0.1161 -0.2586
26922W        W42731  10.841  12.732   2.107 -0.0195  0.3114 -0.0041
26923W        W42732   2.427  12.787   0.614  0.0046 -0.0939  0.0381
26924W        W42733   1.204   6.410  13.321  0.0867  0.0155 -0.0027
26925W        W42734  16.609  12.089   3.346 -0.2037  0.0534  0.1405
26926W        W42735   8.412  17.784   4.247 -0.1093  0.1717  0.0745
26927W        W42736  12.148  14.225  15.503  0.1313  0.0851  0.0899
26928W        W42737  10.269   5.872  12.149 -0.1837  0.0159  0.1190
26929W        W42738   4.008   4.522   2.587  0.1754 -0.0667 -0.1361
26930W        W42739   6.880   2.537   2.298 -0.0324 -0.0978 -0.0771
26931W        W42740   5.862  17.765  12.343  0.0090  0.0472  0.0187
26932W        W42741   6.176   0.886  11.429 -0.0634  0.0549  0.1240
26933W        W42742  15.331   5.858   4.179  0.1874  0.1778 -0.3702
26934W        W42743   9.948  18.621   2.349  0.0663  0.0808 -0.0793
26935W        W42744   2.977   0.397  11.069  0.0564 -0.0111  0.0969
26936W        W42745   2.487   3.755  11.920  0.4179  0.0135  0.1921
26937W        W42746   3.405   9.399   2.424 -0.1214  0.0435 -0.1210
26938W        W42747  15.570   3.779   0.678  0.0861 -0.0742  0.2600
26939W        W42748   1.527  18.450  13.793 -0.0153 -0.0405  0.0126
26940W        W42749   9.223   1.428  14.255  0.1028 -0.0425 -0.0029
26941W        W42750  10.345   1.268   2.485  0.0990  0.0978  0.0842
26942W        W42751  15.749  14.130  11.104  0.2018  0.2011 -0.1578
26943W        W42752   5.021   8.340   5.171  0.3189 -0.3427  0.1905
26944W        W42753  16.643  11.257   5.113 -0.2803  0.1530 -0.1835
26945W        W42754   3.859  12.296   2.262  0.2312 -0.0384 -0.2900
26946W        W42755  10.727  16.646   0.617  0.0801 -0.0518 -0.0554
26947W        W42756  11.443  10.771  14.879 -0.1495 -0.0152  0.0153
26948W        W42757   3.655  15.875  11.790 -0.1225 -0.1647  0.3443
26949W        W42758   5.340  12.281  15.128  0.3420 -0.1703 -0.0272
26950W        W42759   5.880  14.615   2.918  0.1033  0.1823  0.0277
26951W        W42760  10.380   8.816  15.460 -0.1059  0.1479  0.1630
26952W        W42761   6.051   2.902   5.064  0.0861  0.0197 -0.0847
26953W        W42762   1.503  17.504  13.577 -0.0038  0.0882 -0.1762
26954W        W42763  10.923   0.745  10.427 -0.3785 -0.0564  0.1805
26955W        W42764   3.828  17.833  15.466  0.2974 -0.2811 -0.1261
26956W        W42765   2.832   5.957   0.726  0.3955 -0.4272  0.1086
26957W        W42766  11.143   3.211  13.821 -0.1091  0.2219  0.3246
26958W        W42767  18.388   0.004  12.942 -0.0582 -0.0063  0.3486
26959W        W42768  18.186  14.807  12.157 -0.1873  0.0194 -0.2400
26960W        W42769  18.639  16.647  13.213 -0.1163  0.3255  0.1174
26961W        W42770   5.233   5.918   2.671  0.0651 -0.4229 -0.2932
26962W        W42771  18.021  12.799  10.296  0.2049  0.3993 -0.0312
26963W        W42772   0.493  14.327  12.157 -0.1543 -0.1107 -0.2011
26964W        W42773   5.078  14.255  11.078  0.0158 -0.0523  0.2615
26965W        W42774  12.780  17.925  14.533  0.0345  0.1362 -0.0737
26966W        W42775   5.218  17.682   4.547  0.2086  0.3223  0.0537
26967W        W42776  16.001   7.593  12.738  0.1805 -0.3418 -0.0050
26968W        W42777  10.558  14.565   9.629 -0.0603  0.1314 -0.1385
26969W        W42778   7.202  16.049  15.093  0.3692 -0.0925  0.1494
26970W        W42779   1.505  14.910   2.380  0.0819 -0.1695 -0.0527
26971W        W42780  10.966   3.795   1.228 -0.2619 -0.0902  0.0576
26972W        W42781  13.466  12.308   3.553 -0.0837 -0.1361 -0.0077
26973W        W42782   2.497  16.477   5.143 -0.0402 -0.1448  0.3705
26974W        W42783   6.405   2.486  12.344 -0.1978 -0.1420  0.0045
26975W        W42784  17.191   3.472   2.561 -0.1700 -0.0228 -0.2283
26976W        W42785  11.156  17.024   3.990  0.2336 -0.2481  0.0972
26977W        W42786   7.499   9.527  15.351  0.3141 -0.1827 -0.2622
26978W        W42787   9.773   6.718   5.151 -0.0306  0.1147 -0.2728
26979W        W42788  12.276   7.958   4.206 -0.4383  0.2301  0.0906
26980W        W42789   9.384   9.747  13.509 -0.2271 -0.2944  0.1195
26981W        W42790   0.690   1.177   0.374  0.0155  0.2222 -0.0400
26982W        W42791   3.525  17.850   0.668  0.1892 -0.2497  0.1168
26983W        W42792   8.498   2.242   1.203 -0.0858 -0.0746 -0.0094
26984W        W42793  13.964   5.702  12.145  0.0025 -0.4516  0.2878
26985W        W42794   6.834   0.563  12.664  0.0586  0.0326 -0.1601
26986W        W42795  17.890  10.401  13.034 -0.1564  0.1729 -0.1324
26987W        W42796   2.401   1.795  10.126  0.1447  0.1229  0.3347
26988W        W42797   8.921  10.576  11.494  0.2052 -0.2342 -0.1884
26989W        W42798  12.060   1.020  10.614  0.1936  0.1653  0.0966
26990W        W42799   0.589   4.458  11.577  0.2044 -0.1767  0.1635
26991W        W42800  13.994  14.717   1.602 -0.2317  0.2639  0.0368
26992W        W42801   3.133  17.444   4.130  0.2622  0.1613 -0.1969
26993W        W42802   7.918  10.633   5.482 -0.2718  0.0039  0.0398
26994W        W42803  16.474  14.337   3.821 -0.1856 -0.1886  0.1291
26995W        W42804   1.032  17.432   5.922 -0.0895  0.0597 -0.0859
26996W        W42805  12.703   3.934   5.235  0.0904 -0.0663 -0.1321
26997W        W42806   8.211   4.227  12.628  0.2212  0.0961 -0.1925
26998W        W42807   6.931   0.366  11.634 -0.5441  0.1979  0.0831
26999W        W42808   6.036   8.390  11.771  0.0812 -0.0651  0.0960
27000W        W42809  12.912  15.620   2.764  0.0970 -0.0835  0.2348
27001W        W42810  13.399   2.749  11.138 -0.1221  0.2350 -0.3320
27002W        W42811   5.981   6.293  12.537 -0.0896 -0.2238 -0.1334
27003W        W42812  11.975   7.497   2.982 -0.4257  0.2694 -0.0241
27004W        W42813   0.515   6.652   4.698  0.0521  0.1234  0.1905
27005W        W42814  17.242  17.223   2.130 -0.0743  0.6377  0.0149
27006W        W42815  14.498   5.033  11.665  0.1586  0.0252 -0.1561
27007W        W42816   3.272  10.081   5.159 -0.2543 -0.0120 -0.0650
27008W        W42817   3.941  17.537   0.673  0.6059  0.1973  0.1293
27009W        W42818  14.844   6.241   2.899 -0.0352 -0.4491  0.0682
27010W        W42819   4.293   9.236  12.323  0.0092  0.1768 -0.2620
27011W        W42820   1.830  11.095   5.407 -0.0323  0.0712  0.1822
27012W        W42821   6.905   8.410  12.906  0.6529 -0.0497 -0.1353
27013W        W42822  17.401   7.804  10.994 -0.1964  0.1766  0.2327
27014W        W42823   6.061  12.819  12.997  0.0110 -0.0277 -0.2671
27015W        W42824  11.909  10.563  14.736 -0.2044 -0.0470  0.0067
27016W        W42825   1.503  14.153  15.075  0.1536  0.0891  0.0883
27017W        W42826  16.213   5.344  12.897  0.0369 -0.1401  0.0167
27018W        W42827  17.067   1.943  13.567 -0.0983  0.0255 -0.3502
27019W        W42828  16.330   0.363   2.929 -0.0290 -0.1529 -0.0090
27020W        W42829   9.790  17.719   1.323 -0.4870 -0.2541  0.2463
27021W        W42830   6.457   4.136  14.285  0.1101  0.0087 -0.2719
27022W        W42831  15.861   9.642  15.391  0.0890 -0.1465  0.2572
27023W        W42832  11.230   2.979   2.881 -0.2091 -0.1805 -0.0010
27024W        W42833  17.717   6.718   0.427 -0.0857 -0.0219 -0.1329
27025W        W42834  11.973  17.272   3.121 -0.0035  0.2078  0.1816
27026W        W42835   5.800   5.358  15.504 -0.0985  0.0800  0.1635
27027W        W42836  14.243  14.868   0.845 -0.3013 -0.1396 -0.1385
27028W        W42837  17.755  16.012   0.495 -0.0470 -0.1784  0.1506
27029W        W42838  11.727   3.766  12.249 -0.1702 -0.4556  0.2577
27030W        W42839  15.935  17.796   2.244 -0.0639  0.0711 -0.4053
27031W        W42840   8.365   9.073  11.941 -0.2501  0.1186  0.0095
27032W        W42841  10.340  16.892  11.079 -0.0985  0.2188 -0.2178
27033W        W42842  14.649  16.884  12.586  0.0361  0.1452 -0.1534
27034W        W42843   8.156   5.909  12.415  0.1517 -0.1198  0.0239
27035W        W42844  16.272  15.345   3.083  0.1667 -0.1587  0.3822
27036W        W42845  13.469   7.214  14.295  0.1347  0.2676 -0.1349
27037W        W42846  10.114  14.955   5.701  0.2004  0.1570  0.0449
27038W        W42847   8.004  15.016  13.941  0.0267 -0.0069  0.0626
27039W        W42848  14.223  15.331   5.160  0.3371 -0.0030 -0.4511
27040W        W42849   6.868   1.350  12.596  0.1123 -0.0182 -0.1302
27041W        W42850   4.608  12.282   3.194  0.0900 -0.0129  0.1222
27042W        W42851   6.919   3.407   1.874 -0.0794 -0.1232  0.0334
27043W        W42852   9.877  11.189  12.389 -0.3169  0.2271  0.0136
27044W        W42853  10.515  13.487   1.132 -0.0911 -0.1187 -0.2450
27045W        W42854   3.096  14.781  12.738 -0.1912  0.0153  0.2981
27046W        W42855   0.740  17.930  14.783 -0.3850  0.0962 -0.0815
27047W        W42856  17.849   7.162   0.678  0.0865 -0.0947 -0.0913
27048W        W42857   8.755  14.251  11.020  0.1231  0.2253  0.2468
27049W        W42858  14.864   2.458   4.756  0.3258  0.3422 -0.1796
27050W        W42859  17.490   5.845   1.822  0.0608 -0.3502 -0.3462
27051W        W42860  10.644   6.558  10.574 -0.4445  0.1822  0.0254
27052W        W42861   4.313  13.793  13.196 -0.0903 -0.0288  0.0302
27053W        W42862   1.561   2.289   9.827 -0.1278  0.0709  0.1777
27054W        W42863   7.893   3.394  10.458 -0.1172 -0.0600  0.0649
27055W        W42864   2.953  13.468  14.901 -0.0464 -0.1089  0.0743
27056W        W42865   7.298  12.064  11.636 -0.0504  0.2348 -0.0353
27057W        W42866   1.561   9.909   1.554 -0.1866  0.2250 -0.1016
27058W        W42867   2.226   4.549   5.739  0.3479  0.1616 -0.3398
27059W        W42868   3.289  12.614   1.865  0.2965 -0.0819  0.0660
27060W        W42869   4.281   1.285  15.458  0.1144  0.0331  0.3388
27061W        W42870   5.651   2.694   2.207 -0.1849 -0.0511  0.2595
27062W        W42871   0.838  13.380   4.618 -0.1320 -0.2116  0.1915
27063W        W42872  16.881   6.615  14.833  0.3444  0.1995 -0.2327
27064W        W42873  13.641  13.294   1.300  0.0225  0.2227 -0.1368
27065W        W42874   8.666  12.282   3.516  0.0442 -0.2003 -0.1918
27066W        W42875   1.460   4.455   2.515 -0.3847 -0.0794 -0.0860
27067W        W42876   7.579  15.263   0.291  0.2650  0.1200  0.2940
27068W        W42877  15.026   2.661  15.407  0.0907  0.0019 -0.1840
27069W        W42878  16.742   7.941   4.691 -0.0547 -0.1858 -0.0185
27070W        W42879   5.749   9.783  14.708 -0.1474  0.0493  0.1458
27071W        W42880   3.820   8.224  14.887  0.1101  0.0426  0.1594
27072W        W42881  16.443   6.745   1.277 -0.0619 -0.2122  0.0787
27073W        W42882  13.270   4.692  14.861 -0.0489 -0.1225  0.0707
27074W        W42883  10.618  10.891   0.828 -0.1648 -0.1839  0.1569
27075W        W42884   7.255   2.164   2.281  0.0466 -0.2399  0.1816
27076W        W42885  14.141   1.049   0.733 -0.1172 -0.1701  0.0933
27077W        W42886   2.492   6.037   2.461 -0.1354  0.1406  0.0806
27078W        W42887  15.167   5.957  15.673 -0.1008 -0.2098  0.1765
27079W        W42888   2.551   7.877  15.382  0.0978 -0.1163  0.1220
27080W        W42889  13.583   7.946  15.468  0.0573  0.1959  0.2122
27081W        W42890   9.549   7.065   2.576  0.2609 -0.2870 -0.1835
27082W        W42891   9.362   0.962  14.048  0.2289  0.1320  0.0670
27083W        W42892   5.123  18.302   0.809 -0.4813  0.2175  0.1105
27084W        W42893  17.995  11.593   0.447 -0.0554 -0.1159 -0.0327
27085W        W42894   1.792  14.235  13.496  0.1088  0.1269 -0.2320
27086W        W42895  10.475  11.638   4.869 -0.5162  0.1101  0.1051
27087W        W42896   1.015   7.904  15.289 -0.3487  0.1244 -0.0512
27088W        W42897   5.373   7.825   3.020  0.0880 -0.0534  0.0350
27089W        W42898   9.217  16.392   2.408  0.0990  0.1898  0.0394
27090W        W42899  16.122   1.442   9.747 -0.2050  0.1935 -0.2124
27091W        W42900  12.461   0.319  14.284 -0.0667 -0.1886 -0.1761
27092W        W42901  17.728   5.559   1.428 -0.0582 -0.1270 -0.0722
27093W        W42902  15.161   6.071  11.743  0.0853  0.0545  0.0341
27094W        W42903  13.957   6.004   3.417 -0.1760  0.2791  0.0393
27095W        W42904   1.888   4.417   2.750 -0.0104  0.0613 -0.0434
27096W        W42905   0.205   1.005   1.328  0.1644 -0.1039  0.1245
27097W        W42906   3.861  14.504   3.148 -0.1519 -0.0396  0.0059
27098W        W42907   2.698   0.506  13.049 -0.3811  0.3618 -0.0610
27099W        W42908   2.078   5.252   5.127  0.0597 -0.1100 -0.2059
27100W        W42909   1.349  16.960   4.785  0.1129 -0.2776 -0.3383
27101W        W42910   4.735   4.802   1.820  0.2036 -0.1699  0.0937
27102W        W42911  14.981  15.584  12.311  0.1179  0.0723  0.1573
27103W        W42912   8.210   0.467   0.424 -0.0429  0.0532 -0.0039
27104W        W42913   8.284  14.669   1.784 -0.0425  0.1591 -0.1800
27105W        W42914  14.677   4.224  14.959  0.1288  0.2411  0.3071
27106W        W42915   3.530   4.708   4.162  0.1856  0.2851 -0.0612
27107W        W42916   9.873   4.629   0.001 -0.0571  0.0840 -0.1336
27108W        W42917  10.600  18.580  15.514  0.1911  0.1136 -0.1452
27109W        W42918   8.676  13.543   1.935  0.0980  0.1587  0.0416
27110W        W42919   6.009  15.358  12.036  0.1515  0.0800 -0.1940
27111W        W42920  17.477   9.420  13.832 -0.1713  0.0835 -0.2009
27112W        W42921  17.066   8.183  14.589 -0.1359 -0.1654 -0.2895
27113W        W42922   8.285   4.987   3.196 -0.1932 -0.0765 -0.2607
27114W        W42923  18.306  12.947  10.695  0.1572  0.2274  0.0444
27115W        W42924  14.973   1.387  13.341  0.1780  0.4197  0.2522
27116W        W42925  15.963  12.854   1.720  0.1814 -0.2000 -0.1283
27117W        W42926   2.769   2.380  10.663  0.0887  0.0550 -0.2852
27118W        W42927  11.092   1.350  14.820  0.2849 -0.0189  0.1329
27119W        W42928   2.019   8.952   0.225  0.1482 -0.4118  0.0177
27120W        W42929   7.450   4.694  11.527 -0.0847 -0.1258  0.0880
27121W        W42930   1.730  14.799  12.473 -0.1508  0.1823 -0.0229
27122W        W42931  15.953   9.492  11.134 -0.1308  0.0956  0.0887
27123W        W42932   8.879   1.047  14.344 -0.1553 -0.0357 -0.0176
27124W        W42933   0.508   5.070   1.490  0.4408 -0.0822 -0.1862
27125W        W42934   9.329   1.193  12.765 -0.0054 -0.0251 -0.0350
27126W        W42935  15.273   7.757  15.674  0.0038 -0.0681  0.1717
27127W        W42936  16.958   0.808  12.650  0.0129  0.2964  0.1077
27128W        W42937  12.999   3.773  15.248  0.2566  0.1140  0.2602
27129W        W42938   2.656  17.901  14.246 -0.0749  0.0444  0.1125
27130W        W42939  13.748   6.657   0.169 -0.0558  0.2574 -0.1617
27131W        W42940   3.251   6.195   0.803  0.2653  0.3867  0.0054
27132W        W42941  18.173  17.010  11.025  0.0516 -0.1118 -0.0634
27133W        W42942  17.835   8.336   1.962 -0.0490 -0.1247  0.0038
27134W        W42943   1.141   6.181  11.136 -0.0283  0.1379 -0.1456
27135W        W42944   8.550  14.985   3.538 -0.0927  0.2421  0.3934
27136W        W42945  11.035  16.430   3.721  0.1680  0.1564  0.0110
27137W        W42946  15.588  10.759   1.080  0.0007 -0.3692  0.0215
27138W        W42947   8.628   8.453   2.670 -0.4627 -0.1201 -0.1067
27139W        W42948  17.687  11.341  15.020  0.1955  0.0657 -0.0566
27140W        W42949   6.552  11.112   1.858  0.2488 -0.2511 -0.0259
27141W        W42950   6.777   3.428  14.262 -0.0502  0.0455  0.1430
27142W        W42951   0.917  14.128  12.382 -0.0947 -0.1126 -0.1307
27143W        W42952   1.130  15.103   0.578 -0.1210  0.0602 -0.0965
27144W        W42953   6.039  12.328   3.468  0.0376 -0.1468  0.2364
27145W        W42954  10.444   6.896  13.748  0.1465  0.2876 -0.4107
27146W        W42955  17.280   9.261   4.988  0.0823 -0.1395 -0.1882
27147W        W42956   6.255  15.444   6.016  0.2668  0.0110  0.3266
27148W        W42957  18.302   3.988   3.166 -0.0377 -0.0494 -0.0558
27149W        W42958   3.334  10.372  11.449 -0.1576 -0.0570 -0.0116
27150W        W42959   8.815  11.177   2.591  0.2132  0.1869  0.1186
27151W        W42960   2.691   7.027   3.531  0.0787 -0.0981  0.0161
27152W        W42961   1.260  13.004   4.394 -0.0453 -0.0214 -0.2115
27153W        W42962  15.694  10.728   4.669  0.2553  0.0547 -0.1040
27154W        W42963  12.478   5.366   4.779 -0.0982  0.2380 -0.4106
27155W        W42964  13.844   2.274   0.524  0.2870 -0.2550 -0.0767
27156W        W42965   5.639   5.884  12.023  0.1464  0.1238  0.1833
27157W        W42966  11.544  17.667  12.152  0.2426 -0.0440  0.3578
27158W        W42967  16.485   2.350   2.616  0.0882 -0.0038  0.0381
27159W        W42968  11.710   4.983  14.256 -0.0493 -0.0950  0.0378
27160W        W42969   1.806   1.620   2.920  0.2558 -0.1027 -0.0960
27161W        W42970  12.549   5.352  14.705  0.0826  0.0262 -0.1366
27162W        W42971  18.613   5.021   4.544  0.0851  0.1638  0.0244
27163W        W42972   6.609   6.453   2.167  0.1714  0.0070 -0.2382
27164W        W42973  12.808   5.175  15.493 -0.3522 -0.1597  0.0789
27165W        W42974   0.876   1.699  14.277  0.0974  0.2151  0.1493
27166W        W42975   4.971   6.830   2.846  0.0364  0.2061  0.1193
27167W        W42976  16.750   5.243  13.780 -0.0208 -0.0854  0.0029
27168W        W42977   6.194   5.651  11.422  0.2219  0.2268  0.2106
27169W        W42978   5.313  15.565   3.937  0.2474 -0.3454 -0.0774
27170W        W42979   6.713  10.979  14.066  0.1816  0.0184 -0.2906
27171W        W42980  11.032   2.940   2.233 -0.0458 -0.2077  0.1914
27172W        W42981   5.413   3.589   2.708  0.0435 -0.3202  0.2121
27173W        W42982   8.452   4.421   0.202 -0.0004  0.1211 -0.2772
27174W        W42983  12.168   5.486   2.494 -0.1973 -0.0073  0.0568
27175W        W42984  15.449  15.334   1.526 -0.0054  0.2332  0.2736
27176W        W42985  17.929   8.710   5.405  0.1107 -0.2347  0.0572
27177W        W42986   9.603  10.475   2.561 -0.1740  0.0065  0.1774
27178W        W42987  11.554  15.334   1.801  0.0652 -0.2506 -0.3099
27179W        W42988  10.253  10.651   0.609 -0.1321  0.2765 -0.0104
27180W        W42989  14.990  10.380  12.702  0.1002 -0.0807  0.3060
27181W        W42990  18.640  18.198  14.181  0.0438 -0.1883 -0.0414
27182W        W42991  18.344   4.599  15.183 -0.1218  0.1896  0.1425
27183W        W42992   0.730   1.022  11.372  0.2805  0.2825 -0.3749
27184W        W42993  14.007  15.871   3.415 -0.0969  0.3620  0.1340
27185W        W42994  15.092   3.355  10.973 -0.2881  0.1674  0.1788
27186W        W42995   2.046   2.434   2.174 -0.3268  0.1470 -0.0058
27187W        W42996  10.181   0.096   5.226 -0.1836 -0.2391 -0.2288
27188W        W42997  12.461   0.297  13.679  0.1393  0.2511 -0.2980
27189W        W42998   7.261   2.744   5.087  0.1947  0.2077 -0.2603
27190W        W42999  11.283   0.290  10.500 -0.0043 -0.0716  0.0228
27191W        W43000   7.843   2.372   2.255  0.1871 -0.0246  0.2081
27192W        W43001   9.680  12.394  14.862  0.0349  0.0776 -0.0608
27193W        W43002  17.930  14.774   0.689 -0.2215 -0.2147  0.0352
27194W        W43003   4.107   7.699   2.345  0.1029  0.2808 -0.1270
27195W        W43004  13.873  17.755  14.774 -0.0366  0.3384  0.0250
27196W        W43005   7.077  12.568  11.451 -0.2420  0.0988  0.1462
27197W        W43006  15.802   3.232   5.146 -0.1094 -0.0171  0.2027
27198W        W43007   5.145   2.521  12.413  0.0685 -0.0312 -0.1022
27199W        W43008   5.074  17.269  13.814  0.4323  0.1863 -0.0539
27200W        W43009  14.323  16.338   1.452 -0.2070  0.2270  0.2442
27201W        W43010   4.303  16.812  14.207  0.1325  0.1039  0.0140
27202W        W43011   7.097  17.537  10.930 -0.0968 -0.0875  0.0993
27203W        W43012  11.768  10.105  10.764 -0.2654  0.2964  0.2101
27204W        W43013   0.219  12.437   3.802 -0.1136 -0.1919 -0.3418
27205W        W43014  12.064   0.966   4.745  0.0209 -0.2337  0.0049
27206W        W43015   8.347   0.695  11.623 -0.0407 -0.1009  0.0940
27207W        W43016   0.033  13.473   4.567 -0.0749  0.1273 -0.0628
27208W        W43017  13.640   5.475  12.543  0.1439  0.1058  0.1304
27209W        W43018   1.684  18.474  12.227 -0.0587  0.2633 -0.3251
27210W        W43019  10.779   2.112  10.011  0.1963 -0.0004 -0.3971
27211W        W43020  12.825   9.955  12.842 -0.0054 -0.0806  0.1298
27212W        W43021  10.658  14.445  13.074 -0.0148  0.1898  0.1936
27213W        W43022  14.557   9.890  15.146 -0.0053 -0.1858  0.0814
27214W        W43023   4.221  15.786   2.781 -0.0591 -0.3318 -0.1168
27215W        W43024  12.720  14.399   1.545  0.2079 -0.0654  0.1644
27216W        W43025   5.253  18.586  10.969  0.0426 -0.1403 -0.1547
27217W        W43026  18.283   8.250   1.701  0.1154  0.0956 -0.0635
27218W        W43027   8.470   0.461  15.572  0.0174  0.2283 -0.0824
27219W        W43028   0.793   8.495   0.712 -0.1546 -0.2727 -0.3282
27220W        W43029  15.781   1.142   2.528  0.0532 -0.2264  0.3321
27221W        W43030   0.302  12.620   4.290  0.1219 -0.1814 -0.0158
27222W        W43031   8.437   0.097   0.154  0.1728 -0.1363 -0.1511
27223W        W43032   4.107   7.123  12.791 -0.2287 -0.1360 -0.2522
27224W        W43033  17.148   7.316   0.997  0.4841 -0.2087  0.4108
27225W        W43034  10.542  12.944   0.996 -0.0154  0.1826  0.1978
27226W        W43035   7.909   3.758   5.256  0.1043  0.1730 -0.1617
27227W        W43036   0.822   0.299  14.888  0.2788 -0.0691 -0.0943
27228W        W43037  12.671   1.910   3.980 -0.1173 -0.0671 -0.2790
27229W        W43038   2.783  18.654  13.150 -0.1048  0.0856  0.0124
27230W        W43039  10.816   1.042   4.891  0.1516 -0.2877 -0.1022
27231W        W43040   7.038   9.014   2.856  0.1801  0.0633  0.1194
27232W        W43041   3.258   7.213   4.357 -0.0496 -0.1549 -0.2441
27233W        W43042   7.586  18.507   1.851 -0.2466  0.0757  0.1262
27234W        W43043   9.513  12.574   0.492  0.1170 -0.1223  0.3552
27235W        W43044   4.152   4.845  14.659 -0.1969  0.0043 -0.0253
27236W        W43045  13.951  11.615   4.864  0.1771 -0.1573  0.3382
27237W        W43046   5.237  14.755   3.595  0.3063  0.1056 -0.1002
27238W        W43047  11.193  10.214   5.204  0.0403  0.0176  0.0056
27239W        W43048  16.685   7.898  10.029  0.2419  0.2682  0.3264
27240W        W43049  18.639   1.281  10.947 -0.0341  0.2155 -0.2877
27241W        W43050  17.355   7.863  14.336  0.1297 -0.1788  0.1621
27242W        W43051   5.466   8.483   4.414  0.0001 -0.2631  0.3495
27243W        W43052  10.631   2.434   5.845  0.2793 -0.3096 -0.1915
27244W        W43053   4.016  15.988   3.578 -0.1607 -0.2776 -0.0163
27245W        W43054  12.120  12.102  14.879 -0.0932 -0.1399  0.1908
27246W        W43055  17.451   9.056  13.412  0.1653 -0.3509  0.0875
27247W        W43056   4.111  14.659  14.385 -0.4158 -0.0709  0.2092
27248W        W43057  14.836   3.452  15.103  0.1971  0.2585 -0.0672
27249W        W43058  12.454  13.708  14.207 -0.0341  0.2726  0.1309
27250W        W43059   9.481   3.462   2.094 -0.0788 -0.3412 -0.0310
27251W        W43060   4.080   5.122  13.937  0.0843 -0.0034 -0.2736
27252W        W43061   6.335   7.588   3.314 -0.1606  0.1104 -0.1917
27253W        W43062  17.596   3.974  14.093  0.1337  0.2235 -0.2369
27254W        W43063   2.605   0.775  14.963 -0.4002 -0.0251  0.0637
27255W        W43064  15.343  11.694  14.821  0.4901 -0.1191 -0.1073
27256W        W43065   8.824   9.389  12.717 -0.1038 -0.0355 -0.0620
27257W        W43066   2.908  17.717   4.464 -0.0561  0.0841  0.0275
27258W        W43067  12.277   3.797  12.485 -0.4447  0.0131  0.1993
27259W        W43068  18.032   0.318  14.241 -0.0813 -0.1094 -0.1091
27260W        W43069   6.024   9.632  12.877  0.1139  0.2293  0.2874
27261W        W43070  12.742  18.102   1.082 -0.1684  0.0768  0.0704
27262W        W43071  10.271  11.338  14.743 -0.0627  0.3354  0.0469
27263W        W43072   7.363  12.503   4.082  0.2186 -0.0787  0.0325
27264W        W43073   7.806  10.353   5.120  0.4326  0.1159 -0.0263
27265W        W43074   0.283   0.966   4.544 -0.1372 -0.0777 -0.1430
27266W        W43075  10.742  11.877  15.727 -0.0090  0.2746 -0.1329
27267W        W43076   1.228   7.277  14.669  0.4771 -0.1836  0.3884
27268W        W43077   2.032   2.117   4.374  0.0710  0.0448  0.3559
27269W        W43078  15.081  16.712   3.174  0.0371 -0.0763  0.0427
27270W        W43079   3.036  13.100   3.491 -0.0381  0.1589 -0.0189
27271W        W43080   4.389  17.750  13.759  0.3525  0.2080  0.1590
27272W        W43081   8.303  15.109   1.505  0.0222  0.3511 -0.2986
27273W        W43082  10.617   4.091   0.366  0.3581  0.1390  0.1588
27274W        W43083  13.450   6.112  11.146 -0.0419 -0.2918 -0.2553
27275W        W43084  10.460   6.334  12.776 -0.0761 -0.1270  0.0781
27276W        W43085  16.908   2.106   4.316  0.1526 -0.1164  0.0290
27277W        W43086   8.671   4.143   0.995 -0.0643  0.0489 -0.0619
27278W        W43087   3.523  15.512  15.022 -0.0049  0.1779 -0.0730
27279W        W43088   9.161   3.232   1.781  0.0205 -0.1596 -0.1110
27280W        W43089  14.911  10.083   2.281  0.0715  0.0238 -0.0795
27281W        W43090   2.690   2.040  15.392 -0.0880 -0.0416  0.6450
27282W        W43091   3.281  11.953  14.128  0.2525  0.0165  0.3721
27283W        W43092  11.821  12.970   0.874 -0.2041  0.1529 -0.2668
27284W        W43093   7.465  10.523   4.246  0.1944  0.0048 -0.1763
27285W        W43094  15.435   4.719  15.485 -0.1002  0.0146  0.0016
27286W        W43095  14.551  12.756  11.604  0.5021  0.0417  0.0437
27287W        W43096  17.834  13.468  10.716 -0.1693 -0.1828  0.0672
27288W        W43097  13.396  17.177   1.446  0.0108 -0.0927  0.1947
27289W        W43098   0.284  10.099  15.055 -0.0521 -0.1647 -0.2443
27290W        W43099  10.048  11.117   3.201 -0.1458  0.1777  0.0272
27291W        W43100   1.585  16.308   0.862  0.2282  0.1549  0.1279
27292W        W43101  14.090   6.882   3.325 -0.1493  0.0599  0.3830
27293W        W43102   8.529  13.879  11.450  0.0676 -0.1818 -0.0022
27294W        W43103  17.442  13.446   2.767  0.0764 -0.1240 -0.1830
27295W        W43104   9.729  17.618   4.478 -0.1062 -0.0369  0.2018
27296W        W43105  13.758   7.388   4.780  0.3536 -0.0406  0.3282
27297W        W43106  18.300  10.063  13.158 -0.0923 -0.0666  0.1010
27298W        W43107   8.096   4.606   5.307  0.0088 -0.3136  0.1809
27299W        W43108   4.661  17.297  14.051 -0.0928 -0.0426 -0.0493
27300W        W43109  13.624   6.941  11.619 -0.3373  0.1379 -0.1308
27301W        W43110   6.940  16.481  11.910 -0.2138 -0.2295 -0.1661
27302W        W43111  13.735   7.621   5.204 -0.1692  0.2334  0.0985
27303W        W43112  17.948  11.596   1.900  0.1518 -0.0366 -0.1653
27304W        W43113  14.969  13.405  11.048  0.0647  0.0886  0.0244
27305W        W43114   6.195   4.835  14.951  0.2318  0.1372 -0.2581
27306W        W43115  14.139  11.312  11.002 -0.1526  0.2127 -0.1680
27307W        W43116  12.114  10.612   1.299 -0.1412  0.1155  0.1290
27308W        W43117   1.989  14.802   0.082  0.3368 -0.1183  0.2207
27309W        W43118   0.018   3.747   2.057 -0.2169  0.1676  0.1222
27310W        W43119   4.785   0.832  14.598  0.1388  0.1610  0.0945
27311W        W43120  13.030   5.985   3.469  0.0388  0.1095  0.0665
27312W        W43121   9.206  16.317  10.754 -0.0711  0.2030 -0.2393
27313W        W43122   9.001  13.695   3.925 -0.2882 -0.0375  0.2159
27314W        W43123   5.857   0.640  11.064 -0.1225  0.2290  0.0096
27315W        W43124  16.647   0.492  14.442  0.1621  0.2334  0.2763
27316W        W43125   0.608  15.276  15.038 -0.1168 -0.0003  0.0930
27317W        W43126   7.382   0.282   1.857 -0.0339 -0.0372  0.1200
27318W        W43127  14.700   9.985  13.524 -0.1057  0.0050 -0.1988
27319W        W43128  13.920   5.600  13.477 -0.0343  0.0313  0.3716
27320W        W43129  14.737  16.753   1.172  0.0261  0.1926  0.0013
27321W        W43130  13.632   1.410  14.934  0.1570  0.6184 -0.0143
27322W        W43131  13.598  17.903   3.943 -0.0768 -0.0802 -0.0395
27323W        W43132   0.670  16.364   1.737 -0.0948 -0.2442  0.0487
27324W        W43133   4.630   0.639   1.660  0.2165 -0.3411 -0.2691
27325W        W43134  16.554  14.392   1.111 -0.3749 -0.4092 -0.0867
27326W        W43135  15.810   1.636  10.757 -0.1471  0.2084  0.0843
27327W        W43136   1.378   7.469   2.143 -0.0657  0.0548  0.3159
27328W        W43137   1.868   8.287  12.255  0.4542 -0.1556 -0.3125
27329W        W43138  13.909   3.474  12.110  0.0879  0.0629 -0.3020
27330W        W43139   7.108   1.106  15.343  0.0762 -0.1159 -0.0518
27331W        W43140  18.428  18.108   4.932 -0.0547 -0.0845 -0.3699
27332W        W43141   4.701   5.756  14.199 -0.0669 -0.0631  0.1412
27333W        W43142   6.541   9.394   4.000  0.0378 -0.0534 -0.0577
27334W        W43143   4.772   6.923   3.606 -0.1013 -0.2349 -0.0162
27335W        W43144   8.309  15.357  10.486  0.1375  0.1487 -0.2244
27336W        W43145  16.665   2.848  15.681  0.2890 -0.0621  0.3823
27337W        W43146   3.960   8.696   0.279  0.2082  0.2358  0.0718
27338W        W43147   4.598  14.077   1.512 -0.0272  0.0658  0.0633
27339W        W43148  13.428   8.056   1.952  0.1467 -0.0936  0.1321
27340W        W43149   3.135   9.963  15.716 -0.0434  0.0696 -0.1311
27341W        W43150   5.149   4.947   4.953 -0.1778 -0.2309  0.0608
27342W        W43151   6.296  13.606  13.378  0.1444  0.2388 -0.1090
27343W        W43152   4.245   1.581   0.090  0.0901  0.0889 -0.3251
27344W        W43153  10.313  13.380   3.415 -0.0308 -0.1546  0.0444
27345W        W43154   4.797  14.155  13.883 -0.2939  0.0143  0.1631
27346W        W43155  18.439  15.164   4.687 -0.1786 -0.1569  0.1965
27347W        W43156  11.050   6.126   2.823 -0.0199 -0.0482  0.4309
27348W        W43157  17.812   7.498  11.564  0.1136 -0.2065  0.1625
27349W        W43158  11.128  17.123  12.769 -0.0969 -0.2736 -0.3221
27350W        W43159  16.223  13.498   0.636 -0.3147 -0.0607 -0.1817
27351W        W43160  15.684  16.900   4.590  0.0876 -0.2019  0.2667
27352W        W43161  10.209  10.737   4.483  0.0252 -0.1070  0.0874
27353W        W43162  12.612   7.715   5.043 -0.0490 -0.0019 -0.2706
27354W        W43163  17.543  15.596   2.194 -0.1955  0.0960 -0.0883
27355W        W43164   9.320   5.393   4.662  0.0558 -0.0425  0.1323
27356W        W43165   4.499   0.004  12.746 -0.4766  0.1405  0.1181
27357W        W43166  18.330   1.416  14.673 -0.1075  0.2021  0.2346
27358W        W43167   2.097   5.454  11.546 -0.1043 -0.0835 -0.1714
27359W        W43168   7.754  16.045   5.364  0.0371  0.1036  0.2526
27360W        W43169  11.781   7.482  11.845 -0.0014  0.0085  0.0213
27361W        W43170  15.853  11.577  15.186  0.1255 -0.0256 -0.2476
27362W        W43171   9.511   5.071  13.800 -0.3242  0.0817  0.0030
27363W        W43172   9.131   7.756   0.933 -0.1784 -0.3203 -0.2022
27364W        W43173   6.395  17.082   2.275 -0.0982 -0.2248 -0.1293
27365W        W43174  13.024   4.195   1.827 -0.2007  0.0528  0.2748
27366W        W43175   8.191   1.257   0.811  0.0992  0.0469  0.2128
27367W        W43176   2.633   8.324  12.532 -0.1933  0.1975 -0.1299
27368W        W43177   1.850  11.538   3.035  0.2893  0.2590 -0.1117
27369W        W43178   5.446   7.441  14.742  0.1556  0.4298  0.2698
27370W        W43179   7.817  12.923  11.951 -0.1576 -0.3294  0.0631
27371W        W43180   4.405  11.632   1.358 -0.1083  0.1662  0.1767
27372W        W43181   5.104   9.770   4.013  0.2839 -0.0262  0.2222
27373W        W43182   9.168   8.602  15.141 -0.4161 -0.0873 -0.0574
27374W        W43183  17.135  18.058  10.353 -0.1075 -0.0570 -0.0904
27375W        W43184  13.687  11.293  14.007  0.3688 -0.0479  0.0324
27376W        W43185   0.916  10.198  10.423  0.1874  0.1369 -0.1058
27377W        W43186   7.289   9.908  14.328  0.1588  0.1627 -0.0356
27378W        W43187   7.164   9.545   6.040 -0.0259  0.0079  0.3601
27379W        W43188   7.045  15.145  15.422 -0.0792  0.0444 -0.3082
27380W        W43189   2.503  10.433  13.422  0.2209 -0.0369  0.0903
27381W        W43190   5.592  15.682  11.438 -0.0427 -0.0594 -0.0676
27382W        W43191  11.718   6.438  11.530 -0.3108 -0.0043 -0.2688
27383W        W43192  15.380   7.190   2.321  0.1959 -0.1071 -0.0997
27384W        W43193   6.074   4.790   0.954  0.0377  0.0045  0.1040
27385W        W43194  12.400  14.058   3.645  0.0342  0.3824 -0.2717
27386W        W43195   6.592  16.977   3.714 -0.0372  0.1737  0.5685
27387W        W43196  15.584   0.898  12.178 -0.1358  0.1304  0.0265
27388W        W43197   0.456   1.718  13.074 -0.1085 -0.0228  0.1299
27389W        W43198  17.873  18.147  15.379  0.1397  0.1498 -0.2097
27390W        W43199   7.012   7.191   2.616  0.1331 -0.0589 -0.0491
27391W        W43200   1.901   9.180   5.041  0.3991  0.2781  0.1387
27392W        W43201   6.112  16.156   4.172 -0.1084  0.2134  0.0927
27393W        W43202   4.487  15.245   3.841  0.1023  0.0066 -0.2777
27394W        W43203   4.263   3.667   2.444 -0.2448 -0.0592 -0.0782
27395W        W43204  15.648  15.246  13.479  0.0459  0.0467 -0.0941
27396W        W43205   3.283  10.825   4.123 -0.1142  0.0021  0.0371
27397W        W43206   5.192   4.987   2.340  0.1176  0.1740 -0.3351
27398W        W43207   1.696   1.364  11.537 -0.1130 -0.0505 -0.1392
27399W        W43208   9.130   3.379  14.301  0.2621 -0.2522  0.0282
27400W        W43209  16.525   2.562  13.550 -0.1348 -0.1892  0.1635
27401W        W43210   2.502   4.562  13.455  0.1707 -0.2516  0.1060
27402W        W43211  15.716   0.587   1.763 -0.0041 -0.1495 -0.0140
27403W        W43212   1.430   4.679  13.707  0.5397 -0.1213  0.2113
27404W        W43213   9.530  13.849  14.483 -0.4032 -0.1002  0.1456
27405W        W43214   8.883   3.643   0.873  0.3269  0.2666 -0.1382
27406W        W43215   1.581   8.161   1.606  0.2711 -0.0043 -0.0360
27407W        W43216   4.930   3.201   0.310 -0.2015  0.1015 -0.0106
27408W        W43217  17.994  18.389   3.484  0.2670 -0.0454  0.2577
27409W        W43218  13.091  18.505   0.988 -0.1360 -0.0009  0.0531
27410W        W43219   4.356   9.075   0.165 -0.1493 -0.1195 -0.2513
27411W        W43220  14.146  16.043   0.062 -0.0650 -0.2309  0.0244
27412W        W43221   1.953  10.823  11.537  0.2751  0.0918 -0.0360
27413W        W43222   2.012  10.189   0.705  0.0355  0.1335 -0.0385
27414W        W43223   8.785   6.567   0.604 -0.0990  0.1046 -0.2157
27415W        W43224   2.759   7.083   4.416 -0.2264  0.2945  0.1195
27416W        W43225  13.551   3.730  11.240 -0.0993 -0.1091  0.0139
27417W        W43226   9.108  16.584  11.789 -0.1448  0.0669  0.0504
27418W        W43227   8.345   1.030  15.163 -0.1076  0.1494 -0.0113
27419W        W43228  11.572   7.531  14.437  0.4646 -0.2694 -0.0636
27420W        W43229   1.786   1.994   3.946 -0.0677 -0.0260 -0.2406
27421W        W43230  16.390   5.072   5.282  0.2547 -0.2522 -0.0278
27422W        W43231   7.243   7.178   2.190 -0.0116 -0.2152  0.0485
27423W        W43232  11.938   8.779   1.661  0.3461 -0.0265  0.0325
27424W        W43233  18.160   2.182  14.008 -0.2673  0.0822  0.1088
27425W        W43234  14.331  10.333   9.880  0.1026  0.1929 -0.2389
27426W        W43235  17.121   7.500   3.778 -0.2254  0.0099 -0.3012
27427W        W43236  13.131  16.631   0.889 -0.0999 -0.0836  0.2220
27428W        W43237   0.354   1.579  15.307  0.1817  0.0224 -0.1653
27429W        W43238  13.793  14.032   2.647  0.0869 -0.1877 -0.2996
27430W        W43239   2.468  17.603   2.645  0.0666 -0.1664  0.0731
27431W        W43240  17.849   8.229  11.198 -0.1222  0.0988  0.3286
27432W        W43241  15.984  14.746   2.287 -0.1432 -0.0414  0.2307
27433W        W43242   2.582   3.754  11.067 -0.0045 -0.1568 -0.1418
27434W        W43243   3.355   0.268  14.740  0.0314 -0.3181 -0.2556
27435W        W43244  11.911   9.616   1.079  0.1288  0.3033 -0.0772
27436W        W43245   9.383   2.361   0.100 -0.2027  0.1261 -0.0354
27437W        W43246  14.394   6.225   0.640 -0.0555  0.0976  0.1407
27438W        W43247   0.221  11.281   3.182  0.0723 -0.1595  0.3553
27439W        W43248  10.930  17.767  11.994 -0.2221 -0.1169  0.4951
27440W        W43249  11.555   3.229  13.563  0.0536  0.1397  0.0221
27441W        W43250  10.365   6.802  15.122 -0.1383 -0.3089  0.1823
27442W        W43251   2.565  10.278   0.862 -0.0808  0.3064  0.1683
27443W        W43252  12.038  13.270   3.744  0.0831  0.0106  0.1948
27444W        W43253   4.456   9.600   5.801  0.0020 -0.0018 -0.2213
27445W        W43254   3.965  17.708  14.072  0.1022 -0.0719  0.0295
27446W        W43255  14.476   7.915  14.898  0.5283  0.0285  0.0872
27447W        W43256   6.529  10.641   2.055  0.0338  0.2198 -0.0438
27448W        W43257   0.233  16.324  10.744 -0.2370 -0.2031  0.1041
27449W        W43258  17.444  11.966  14.383 -0.1997 -0.2295  0.1822
27450W        W43259   5.428  17.453   5.035 -0.1041 -0.0880  0.1456
27451W        W43260  11.289   6.892   0.662 -0.2440  0.0830  0.0403
27452W        W43261   5.917   6.316   5.872  0.2465 -0.0487  0.1206
27453W        W43262   1.580   9.452   0.753 -0.3331  0.1855  0.2176
27454W        W43263  10.190  13.293   0.039 -0.0972  0.2310  0.0184
27455W        W43264  14.163  12.506   2.856 -0.1797 -0.1754  0.2504
27456W        W43265   1.120   2.210  11.858 -0.3137 -0.2917  0.0698
27457W        W43266  10.425   7.082   4.621 -0.1399 -0.0778 -0.0715
27458W        W43267  14.851  10.717  11.630 -0.3600  0.0182  0.1225
27459W        W43268  18.226  18.263  14.464 -0.0166 -0.0761  0.1224
27460W        W43269  12.438   1.052   2.548  0.0254 -0.0365 -0.1136
27461W        W43270  12.828   9.120   3.100 -0.4601 -0.0705 -0.1337
27462W        W43271   1.642   2.557   0.720  0.0875 -0.2299  0.2496
27463W        W43272  12.217  14.786   0.035 -0.3082  0.0085 -0.0725
27464W        W43273  15.993   8.928  12.648  0.0651 -0.1780 -0.3516
27465W        W43274   8.873  15.539  15.635  0.1156 -0.1050  0.1574
27466W        W43275   2.091   8.267  13.025 -0.1027 -0.0935  0.2775
27467W        W43276   0.095   1.565  11.971 -0.1718  0.2950  0.0558
27468W        W43277   8.231   3.593  10.765  0.1227 -0.3688 -0.1043
27469W        W43278  13.116  12.337   4.303  0.0483  0.1165 -0.0050
27470W        W43279   3.615  13.971   4.236 -0.2236  0.1043  0.2672
27471W        W43280  15.473   6.410   4.245  0.1270  0.0082 -0.0635
27472W        W43281   2.885   4.336   1.314 -0.0237 -0.0647 -0.0794
27473W        W43282   0.330  15.855  12.297 -0.1010 -0.0801  0.0750
27474W        W43283  18.328   3.202  13.252 -0.0236  0.0420 -0.2114
27475W        W43284  17.646  13.786   0.792 -0.1845 -0.0341 -0.0374
27476W        W43285   7.772  11.394  15.065 -0.0826 -0.1435 -0.3754
27477W        W43286   0.828   7.864   1.331 -0.3206 -0.1136  0.0012
27478W        W43287  17.444   4.648  11.802 -0.0097  0.1640 -0.0538
27479W        W43288   1.064  12.684  13.362  0.0905  0.0453 -0.2953
27480W        W43289  11.632  12.024   4.639 -0.1975  0.3126 -0.3471
27481W        W43290   0.263  14.983  14.733 -0.1683  0.2629  0.0816
27482W        W43291   1.095   9.706  12.705 -0.2641  0.1433 -0.0861
27483W        W43292   8.696  13.510  13.811  0.1878  0.0755 -0.0077
27484W        W43293  15.802  15.695  15.316 -0.2014  0.2803  0.1224
27485W        W43294   0.808   2.671   2.463 -0.0697  0.1293 -0.2844
27486W        W43295   5.704  17.959  12.784  0.1208 -0.0211 -0.1897
27487W        W43296  10.013   5.926  13.623 -0.1264  0.0728 -0.1629
27488W        W43297  15.716  16.281  13.640 -0.0154 -0.0526 -0.0996
27489W        W43298   8.344  15.644  12.636  0.1158  0.2200  0.0118
27490W        W43299  18.373   7.138   4.020 -0.2253 -0.1973  0.0705
27491W        W43300   6.484   5.561  13.839  0.0493 -0.0259 -0.0443
27492W        W43301  12.754  18.475  10.837  0.0583  0.2580 -0.0751
27493W        W43302   3.928  15.350   1.846 -0.0483 -0.0167 -0.1565
27494W        W43303   0.642   3.834   4.057  0.1180  0.2384  0.0326
27495W        W43304  11.652  17.827  12.593  0.0617  0.0071 -0.0660
27496W        W43305   7.200  12.164  14.152 -0.0793 -0.0977 -0.0546
27497W        W43306  13.192  17.048  13.030  0.3135 -0.1283  0.1204
27498W        W43307   7.083   7.955  12.714 -0.0180 -0.0102 -0.0887
27499W        W43308   2.351  14.194  13.638  0.1057 -0.0823  0.1565
27500W        W43309  13.795  10.427   3.907 -0.1941 -0.1916  0.1040
27501W        W43310   0.107  14.732  11.628  0.0532  0.0476  0.0525
27502W        W43311   6.118  17.462  14.535 -0.3669  0.1582 -0.0144
27503W        W43312   2.626  16.800   1.097  0.0816  0.0437 -0.2863
27504W        W43313  11.869  11.559   3.734 -0.0618  0.1090 -0.2444
27505W        W43314   9.291  14.645   4.289 -0.2836  0.0291  0.1919
27506W        W43315  16.364  13.585   1.169 -0.1972  0.1388 -0.2504
27507W        W43316  13.243   2.725  12.213  0.2604  0.0465 -0.2365
27508W        W43317   9.723   4.330   4.810  0.2014  0.3091 -0.1682
27509W        W43318  15.513  14.081   5.358 -0.1310 -0.0524  0.0718
27510W        W43319   0.863   5.035  13.718  0.2826  0.1881 -0.0693
27511W        W43320  10.479  14.907  13.238 -0.0891  0.0517  0.1108
27512W        W43321  10.047   6.830   5.529  0.0601  0.0915 -0.1181
27513W        W43322   8.870  16.613   3.455 -0.1714  0.0127  0.2205
27514W        W43323   5.637  16.366   0.982 -0.0143 -0.0576  0.3290
27515W        W43324  18.289   6.656  12.212 -0.0114 -0.1236 -0.1715
27516W        W43325   0.451  17.279  15.574  0.2292 -0.1632 -0.1211
27517W        W43326  15.618   2.320   4.056  0.3683  0.2570 -0.2877
27518W        W43327  14.360  18.404   5.071 -0.0487 -0.0984  0.1196
27519W        W43328  16.633  10.667   4.995 -0.2361  0.1248  0.0080
27520W        W43329   7.829   3.785  14.287 -0.2029 -0.0914  0.0562
27521W        W43330  16.745  15.135   4.321  0.1424 -0.4351  0.1449
27522W        W43331  15.419   5.450  12.454 -0.2741  0.1588  0.0077
27523W        W43332  17.655  13.161  10.248 -0.0585 -0.0205  0.1640
27524W        W43333  14.531  18.276   4.017 -0.2819  0.1833 -0.2230
27525W        W43334  11.934   9.485   0.523 -0.1685 -0.2229 -0.0996
27526W        W43335   9.346  12.156   3.710  0.3094 -0.1084 -0.0189
27527W        W43336  17.909   3.985   2.491  0.0779  0.0300 -0.0948
27528W        W43337   2.670   5.141  12.378  0.1580 -0.1157 -0.1858
27529W        W43338  16.012   9.967   3.995 -0.0663 -0.2094  0.0687
27530W        W43339  14.184   2.470  12.219  0.0732  0.5020 -0.1230
27531W        W43340   2.531   4.299  11.892 -0.1467  0.0850 -0.2174
27532W        W43341  15.419  11.195   3.185  0.0631 -0.1220 -0.2483
27533W        W43342   8.858   5.675  14.451  0.0605 -0.3001  0.0381
27534W        W43343   8.736   8.734  15.436 -0.0118  0.0199 -0.1587
27535W        W43344  15.395  11.570   3.545 -0.2239 -0.1066 -0.1578
27536W        W43345   0.900   4.607  12.050 -0.1027  0.0678  0.0994
27537W        W43346   4.700   6.083   4.842 -0.1553  0.1142  0.1605
27538W        W43347   6.858  10.931  13.384  0.3022 -0.0190 -0.1646
27539W        W43348   8.510   9.641   1.073  0.0300 -0.1038  0.1147
27540W        W43349   2.952  17.944  12.700  0.0349  0.0126 -0.0518
27541W        W43350   2.398   3.262  11.108  0.0501  0.1647  0.3677
27542W        W43351   0.394  13.303   4.872  0.1507  0.0281  0.1517
27543W        W43352   6.215   4.499   2.247 -0.1875 -0.0525 -0.1468
27544W        W43353  13.953   3.595  10.847 -0.0829  0.3265 -0.0941
27545W        W43354  15.446  13.467  12.642  0.0456 -0.2191 -0.3309
27546W        W43355   2.281   9.622  13.014 -0.1367  0.1354 -0.1376
27547W        W43356  17.242  14.883  12.481  0.2775 -0.0774 -0.0910
27548W        W43357   8.578  12.465   0.157 -0.2189  0.2883 -0.0089
27549W        W43358  10.750   2.373   4.220  0.1726 -0.0500 -0.1199
27550W        W43359  11.205  12.595  13.552  0.1138 -0.0977  0.0015
27551W        W43360   8.311   5.324   2.798  0.0925 -0.2682  0.1143
27552W        W43361  13.869   6.131  13.270  0.0638  0.1644 -0.0776
27553W        W43362   6.449  11.182  13.684 -0.0099  0.0958 -0.1019
27554W        W43363  11.107  16.561   1.599  0.3125  0.0191  0.1089
27555W        W43364  12.893  17.091  14.046 -0.0273 -0.0731  0.0536
27556W        W43365   4.764  14.385   1.890 -0.1060 -0.1953  0.1696
27557W        W43366  13.133   1.782   3.636  0.2814  0.1052  0.1234
27558W        W43367  16.392   0.240   0.576 -0.4084 -0.1092  0.1344
27559W        W43368   1.574  10.963   3.894 -0.2586  0.1751  0.0300
27560W        W43369  13.300  13.570  12.796  0.2649  0.1837  0.0707
27561W        W43370  18.221   8.566   3.101  0.0555 -0.2514  0.1245
27562W        W43371   4.521   2.712  12.341  0.0227  0.0883 -0.1253
27563W        W43372   1.490   0.653  11.062  0.3017 -0.2452 -0.1044
27564W        W43373  16.278   7.302  11.774 -0.3059 -0.1712  0.3258
27565W        W43374  18.137  15.308   0.809 -0.2925 -0.0549  0.0256
27566W        W43375   1.625  16.942  12.556 -0.0131 -0.0354  0.1237
27567W        W43376  10.834   2.196  11.399  0.2548  0.1132  0.1226
27568W        W43377   3.241  17.544   0.321 -0.1231 -0.1963 -0.2090
27569W        W43378   4.412  14.075   0.886  0.1197 -0.2340 -0.1432
27570W        W43379   6.942  14.262  14.813 -0.2254 -0.0477 -0.2731
27571W        W43380   9.928  15.184   3.881 -0.0805 -0.0618 -0.2508
27572W        W43381   6.104  11.719  14.397  0.2364  0.2777 -0.3047
27573W        W43382  17.854  18.243  12.202 -0.3419  0.0310  0.3272
27574W        W43383  18.107  15.885   0.164  0.2086  0.0850  0.0443
27575W        W43384   1.164   8.291  12.638 -0.0072 -0.1479  0.2094
27576W        W43385  15.693   8.507   2.150 -0.2441  0.5292 -0.0713
27577W        W43386  12.238   3.307  12.749 -0.2702 -0.2607  0.2139
27578W        W43387   9.312  11.828   1.499 -0.0383  0.1986  0.2459
27579W        W43388  12.662  18.553  10.278  0.0584  0.2703 -0.0785
27580W        W43389  15.764   7.629   0.087 -0.1147  0.1532 -0.1466
27581W        W43390   0.368  12.430   4.881  0.0500  0.1573  0.1247
27582W        W43391   4.693  16.444  11.960 -0.2694 -0.4326  0.2783
27583W        W43392   5.729  11.799   2.649  0.0586  0.0840 -0.1760
27584W        W43393  16.210  14.512   2.903  0.1765 -0.0966 -0.4212
27585W        W43394  11.885   6.237   1.225 -0.2513  0.0995  0.1129
27586W        W43395   1.617   4.334   4.571 -0.2871 -0.1536  0.2757
27587W        W43396   9.010   7.265  12.586 -0.2247  0.3597 -0.3564
27588W        W43397   3.915  14.260   5.076  0.0759 -0.1298  0.0104
27589W        W43398  14.150   9.586  11.503 -0.1041 -0.1178 -0.2878
27590W        W43399   2.666  16.420   0.732 -0.2466  0.2926 -0.0251
27591W        W43400  11.124  13.635  12.790 -0.2973 -0.0540  0.2505
27592W        W43401  14.695   3.075  11.760  0.1132 -0.4006  0.0184
27593W        W43402  18.063  17.430  12.784  0.0735  0.0218 -0.1163
27594W        W43403  16.401   0.119  14.690  0.0941  0.1247 -0.1034
27595W        W43404  13.375   6.970   5.725  0.1484 -0.1029 -0.3919
27596W        W43405  14.208   6.128  11.429  0.2635 -0.1520  0.0588
27597W        W43406   3.531   4.611   4.762  0.1016 -0.3760  0.2340
27598W        W43407  11.119   1.437  14.325  0.0758  0.0425 -0.1178
27599W        W43408  10.850   8.040  12.317 -0.0949 -0.1791 -0.1879
27600W        W43409  18.395   4.036   2.344  0.1522 -0.0223 -0.1122
27601W        W43410   7.958  15.184  11.275  0.1309 -0.3080 -0.1235
27602W        W43411  16.856   5.794  15.130 -0.2972  0.1376 -0.1801
27603W        W43412  15.413  16.886  11.872 -0.1165 -0.1030 -0.2301
27604W        W43413  12.061   4.211  15.283 -0.0794 -0.1869 -0.0012
27605W        W43414   0.564   7.486   2.965  0.1126 -0.2927 -0.1263
27606W        W43415   1.345  15.873  11.381  0.0587  0.0435  0.1818
27607W        W43416  10.914  16.593   1.111  0.0723  0.1675  0.0586
27608W        W43417  12.543   6.651   3.857  0.2200  0.0093 -0.0956
27609W        W43418   1.311   8.589   3.691 -0.1626  0.4082 -0.1798
27610W        W43419  15.658   8.365  11.227 -0.0478  0.5310  0.0418
27611W        W43420   5.318  15.373  11.847  0.0298  0.1994  0.0514
27612W        W43421   3.241   1.214   4.834 -0.0860 -0.3407 -0.2099
27613W        W43422  18.472   2.111   9.929 -0.2436 -0.1316  0.3126
27614W        W43423   5.940  10.354   0.465 -0.2921 -0.1908 -0.2073
27615W        W43424  12.919  15.054  10.361  0.0803 -0.4672 -0.0565
27616W        W43425   2.767  11.082   4.905 -0.2912 -0.0730  0.2228
27617W        W43426   6.099  12.871   1.277  0.0422 -0.3414 -0.0148
27618W        W43427  15.862   0.055  13.840 -0.3545  0.0224  0.3239
27619W        W43428   6.661  14.370  13.571 -0.5210 -0.0306 -0.1061
27620W        W43429  11.618  17.846   4.424 -0.2920  0.0372 -0.1720
27621W        W43430   1.884   6.876   0.081  0.0531  0.1218 -0.1106
27622W        W43431  11.428  16.520  12.319  0.0403 -0.1817 -0.0740
27623W        W43432  11.763   1.485  14.124  0.3106 -0.1845 -0.0283
27624W        W43433  14.674  14.454   4.648  0.0123 -0.1128 -0.0569
27625W        W43434   1.896  13.669   1.460  0.2507 -0.1374 -0.3474
27626W        W43435  18.358   3.828   1.422  0.2174  0.1328 -0.3407
27627W        W43436   1.812   2.739   2.525  0.1006 -0.0505 -0.1090
27628W        W43437   3.927   5.993  12.207 -0.3080 -0.1118  0.3434
27629W        W43438  14.653  16.053  10.300 -0.0514  0.0131  0.0238
27630W        W43439   1.093  17.573  13.092 -0.0138 -0.0785 -0.0664
27631W        W43440   5.737   4.026   3.536  0.1402 -0.2012 -0.3286
27632W        W43441  11.787  14.986   3.672  0.3570  0.1189 -0.2173
27633W        W43442   5.365   4.098   1.767 -0.0214 -0.1344  0.0127
27634W        W43443   6.835  11.574  14.082 -0.0358  0.0890 -0.2518
27635W        W43444  11.439   1.691  12.986  0.1105 -0.2172  0.0928
27636W        W43445   2.622   8.628   0.285  0.2614 -0.4462  0.0526
27637W        W43446   8.614   4.024   2.802  0.2972  0.5517  0.3807
27638W        W43447   1.526   2.656  12.739  0.0761 -0.0962  0.0080
27639W        W43448   8.157  18.589  12.952 -0.0371 -0.2028 -0.1163
27640W        W43449  18.649  13.844  11.857 -0.1238  0.1831  0.2019
27641W        W43450  11.895   4.439   5.563  0.2346  0.0697  0.2986
27642W        W43451   5.837  16.656  14.775 -0.0911  0.0063  0.0030
27643W        W43452  14.123  13.286  14.732  0.0130  0.2165 -0.1366
27644W        W43453   5.897   8.235  15.699 -0.0612  0.1583 -0.0962
27645W        W43454  13.230   9.651  11.588 -0.2234  0.0110  0.2577
27646W        W43455  12.784  15.621  13.788  0.1275 -0.1164  0.0820
27647W        W43456  12.092  15.270   1.366  0.1024  0.0102 -0.0578
27648W        W43457   3.473  13.888  11.102  0.2900 -0.0175  0.0711
27649W        W43458   5.888  14.795   1.343  0.0800  0.0779 -0.3215
27650W        W43459  13.391   4.432   4.651  0.1105 -0.1346 -0.0608
27651W        W43460  12.966   5.321  11.134  0.1237  0.0317  0.1946
27652W        W43461   7.053   1.878  10.708 -0.0864 -0.0344  0.1125
27653W        W43462   0.800   7.632   2.023  0.1062 -0.0993  0.0859
27654W        W43463   4.082   7.356   3.249  0.3099 -0.2352  0.1592
27655W        W43464  14.189   2.204   2.788 -0.0401 -0.0213 -0.1118
27656W        W43465   5.019   1.452   2.190  0.0511 -0.1625  0.0893
27657W        W43466   5.554  14.564   4.025  0.1035 -0.1065  0.1135
27658W        W43467   3.787  14.370  10.443 -0.0924 -0.0294  0.0689
27659W        W43468   9.777  15.536  10.392  0.1699  0.0302  0.0830
27660W        W43469   3.112   1.511   3.361 -0.0315  0.3001 -0.0272
27661W        W43470   9.902   4.713   1.055  0.3421  0.0885  0.2260
27662W        W43471  15.866  16.767  10.663 -0.2281  0.0230 -0.2198
27663W        W43472   3.108  10.334   3.209  0.1620 -0.0166  0.1188
27664W        W43473   1.421  16.463   3.102 -0.1764  0.0428  0.1685
27665W        W43474   4.727   9.841   5.350  0.0038 -0.1960 -0.1726
27666W        W43475  17.444   7.666   0.109  0.1468  0.1708  0.0335
27667W        W43476  11.904   5.818   2.760  0.0370 -0.0274 -0.0233
27668W        W43477  17.220   1.307   3.476 -0.3131  0.0386  0.1192
27669W        W43478  12.633   0.040   0.837 -0.1254 -0.0725  0.0484
27670W        W43479  12.502   4.608  11.445 -0.1410 -0.1006 -0.0279
27671W        W43480   7.763  11.345   2.203 -0.3449 -0.0869  0.1074
27672W        W43481   4.466  17.752   2.158  0.1663  0.0774 -0.0183
27673W        W43482  15.095   7.691   5.373  0.3882 -0.1807  0.0268
27674W        W43483  17.722   0.669   0.134 -0.0063 -0.0371  0.5181
27675W        W43484  13.320  12.946  11.770  0.1028  0.1650 -0.2701
27676W        W43485  13.079  13.785  11.542 -0.2714  0.0604  0.1355
27677W        W43486   3.510  12.707   0.458  0.1343  0.1343  0.0660
27678W        W43487  17.055  14.677  12.955 -0.0742 -0.0551  0.0642
27679W        W43488  14.005   2.114  10.980 -0.0886 -0.0429 -0.0127
27680W        W43489  13.159   4.505  12.811 -0.0567 -0.0716 -0.2421
27681W        W43490   6.366  13.117   4.869 -0.1893  0.1064 -0.2081
27682W        W43491   5.073  13.369  13.369  0.1879  0.6019  0.1774
27683W        W43492  12.250   6.073   4.149  0.1800 -0.0478  0.2361
27684W        W43493   8.224   2.586  12.091  0.0674 -0.1178 -0.0789
27685W        W43494  10.802   9.312   0.989 -0.2121 -0.0409 -0.1982
27686W        W43495   8.515  14.898   5.354  0.0555  0.2429 -0.1500
27687W        W43496  10.830  11.237  10.953  0.0410 -0.1809  0.0734
27688W        W43497  13.778  13.658   9.944  0.0534  0.2581 -0.1489
27689W        W43498   8.821  17.498   4.282  0.3277 -0.2348  0.0683
27690W        W43499  10.917   2.460   2.405  0.0477 -0.4493  0.2368
27691W        W43500  13.217   9.236   0.915 -0.0768 -0.0603 -0.0293
27692W        W43501  16.142   0.074   2.567 -0.0432 -0.1287  0.4065
27693W        W43502   5.031   7.240  13.893 -0.0447 -0.1102 -0.0804
27694W        W43503   4.305  17.631   4.707 -0.2212  0.1358  0.1104
27695W        W43504  13.399  15.198   4.728 -0.0010 -0.1041  0.0283
27696W        W43505  10.010  12.919  10.420 -0.0212  0.0928  0.0041
27697W        W43506   4.359   1.738  10.428  0.1813 -0.4182 -0.0233
27698W        W43507  16.302   0.586  11.813 -0.0434 -0.0951  0.1649
27699W        W43508   5.310   2.206  15.332 -0.3660 -0.0780 -0.3102
27700W        W43509   2.843  18.421  11.432 -0.1751 -0.2048  0.3624
27701W        W43510   5.663   9.138  12.539 -0.0725 -0.1634  0.5295
27702W        W43511  15.785   4.350   2.827  0.1239  0.1589 -0.0926
27703W        W43512   2.380   3.109  12.545 -0.0292 -0.0376 -0.1923
27704W        W43513  18.415   5.086   0.270 -0.1555 -0.0156  0.1941
27705W        W43514   5.304  17.612   2.507 -0.1096  0.0223  0.0524
27706W        W43515   4.044   8.180   2.286 -0.3978 -0.0258 -0.0945
27707W        W43516  17.135  12.691   0.880  0.1164 -0.0489 -0.0910
27708W        W43517   5.204  13.380  12.594 -0.1108 -0.0867  0.0414
27709W        W43518   2.615   4.944   0.171  0.0324  0.0025  0.1881
27710W        W43519   7.962   8.459   0.481  0.0443 -0.1167 -0.1187
27711W        W43520  11.466  11.632   2.951 -0.2764  0.3382  0.1137
27712W        W43521   3.846  10.361   2.601 -0.0797  0.0715  0.1575
27713W        W43522   5.220   5.622  11.692 -0.4074 -0.1716  0.4366
27714W        W43523   8.752  12.458   3.019 -0.2044 -0.0622  0.3580
27715W        W43524  14.393  10.847  11.384 -0.1318 -0.0854  0.0218
27716W        W43525  12.734   2.881   3.094 -0.0439  0.2039 -0.2687
27717W        W43526   5.660  17.722  11.833 -0.0809  0.3153  0.1428
27718W        W43527   5.529  14.012   1.114  0.3149  0.0581  0.0500
27719W        W43528  13.028  18.301  13.231  0.1368 -0.0743 -0.0887
27720W        W43529  18.569   6.789  14.931 -0.2801 -0.0270  0.1274
27721W        W43530   5.950   2.765  14.723 -0.2009  0.1092  0.1907
27722W        W43531   2.632   5.233   3.709 -0.0309  0.1788 -0.0056
27723W        W43532   1.242   5.104  13.441 -0.1278 -0.0321  0.0931
27724W        W43533   0.643  18.333  11.870  0.0075  0.2552 -0.1639
27725W        W43534   4.443  12.977   0.000 -0.0830  0.0855  0.0270
27726W        W43535   8.398  15.367   0.433  0.0507 -0.1963 -0.0656
27727W        W43536   9.408  16.551  13.190 -0.0378 -0.0428  0.0194
27728W        W43537   8.795   6.311   3.134 -0.1221 -0.0312  0.1945
27729W        W43538   2.144  14.090   3.673 -0.1334 -0.1574  0.3772
27730W        W43539  16.079  12.471  11.755 -0.0620 -0.0594 -0.0339
27731W        W43540   1.715  11.976  10.728  0.2429 -0.1580  0.0514
27732W        W43541   6.523  14.040  12.587 -0.0613 -0.0579 -0.0938
27733W        W43542  14.971  15.641  11.839  0.0726  0.0066  0.1172
27734W        W43543   6.961   6.359   1.566  0.1590  0.0067 -0.3556
27735W        W43544   4.144   3.950  14.864 -0.2267 -0.3502  0.2579
27736W        W43545   6.329   4.118  15.468  0.0349 -0.2018 -0.0696
27737W        W43546   1.261   7.558  11.972 -0.0296 -0.0583  0.2179
27738W        W43547  11.143  18.007   2.702  0.0147 -0.2104 -0.0118
27739W        W43548   7.637  16.597  10.762 -0.0966  0.3063 -0.0512
27740W        W43549   4.906  16.875   4.330 -0.2290 -0.0092  0.1671
27741W        W43550  12.218  16.288   3.117  0.1173  0.0301 -0.0860
27742W        W43551   0.096   6.730  14.345  0.3241 -0.0304 -0.1847
27743W        W43552   0.762   5.700   4.876  0.2426 -0.2868  0.3171
27744W        W43553   1.332  14.529   2.082 -0.1617  0.0050  0.0094
27745W        W43554   4.854   8.484   3.347 -0.0632 -0.0097 -0.1252
27746W        W43555  13.410   9.109  12.781  0.1653  0.1039  0.2958
27747W        W43556  15.181  18.297  10.551 -0.0734  0.1115  0.0974
27748W        W43557  13.449  11.244  11.536  0.1638  0.0919  0.1553
27749W        W43558   6.032  10.027   5.236 -0.2960  0.0784  0.2164
27750W        W43559  15.936  16.189  13.208 -0.1364  0.0685 -0.0129
27751W        W43560   2.317  13.730  11.836  0.0110 -0.2014  0.1924
27752W        W43561   2.986  12.495   1.523 -0.1534 -0.0164 -0.3876
27753W        W43562  16.159   0.744   4.611 -0.1910 -0.2701 -0.0508
27754W        W43563  10.962  13.996  13.244 -0.0041  0.1060 -0.1521
27755W        W43564  15.331  15.556   1.957  0.0530 -0.4500 -0.3211
27756W        W43565   8.330   2.686   2.900 -0.0525 -0.1216  0.3031
27757W        W43566  11.796  10.615   6.008 -0.1831  0.1594 -0.1031
27758W        W43567  12.332  12.377   3.342 -0.2058  0.2638 -0.2939
27759W        W43568   2.812   9.976   0.317 -0.0565 -0.1559  0.0220
27760W        W43569  12.483  16.931   2.361  0.0542 -0.1820 -0.1660
27761W        W43570   3.855  13.787  14.496  0.2023  0.2886  0.3157
27762W        W43571   1.602  18.487  15.081 -0.0568 -0.0521  0.0469
27763W        W43572   7.454  12.595  12.782 -0.0489 -0.1572 -0.0937
27764W        W43573   0.521   0.530   3.914  0.0695  0.0930 -0.3579
27765W        W43574  12.208   9.780   2.761  0.0900  0.3091  0.1337
27766W        W43575  13.891  16.563   9.192 -0.0726  0.1069 -0.0659
27767W        W43576   8.437  18.110   1.443  0.0989  0.0283  0.1107
27768W        W43577   9.704  10.946   2.863 -0.3086  0.4821  0.3246
27769W        W43578  11.112   6.941  14.531 -0.0971  0.0389 -0.1665
27770W        W43579   0.021  14.702   2.103  0.0001 -0.4421 -0.0048
27771W        W43580  18.615   1.225  14.182  0.0187 -0.3438 -0.1508
27772W        W43581  14.896   1.875  13.438 -0.2090  0.1305  0.1177
27773W        W43582  17.032  10.379  11.000 -0.0491  0.1517  0.0673
27774W        W43583  17.734  17.509   4.961  0.0261 -0.2913  0.0506
27775W        W43584  14.902   0.869  12.998 -0.1780 -0.2717  0.0343
27776W        W43585  10.830   7.439   1.156 -0.0832 -0.3051 -0.0478
27777W        W43586   8.986   0.611  14.151  0.1871  0.0857  0.0173
27778W        W43587   0.296   3.225   3.950  0.2729 -0.1898 -0.2529
27779W        W43588  14.728  17.073  11.216  0.3495  0.4948  0.1064
27780W        W43589  17.654   1.875   4.502  0.1802  0.0859  0.0437
27781W        W43590   3.471  12.563   4.181 -0.1325 -0.1827  0.1673
27782W        W43591  13.467  16.832  13.415  0.1986 -0.4170  0.2229
27783W        W43592  14.959  12.700  11.933 -0.1723  0.0709 -0.1834
27784W        W43593  11.896  12.685  11.337  0.1686 -0.3939 -0.2891
27785W        W43594   3.795  11.227  14.614  0.1033 -0.0056 -0.0526
27786W        W43595  10.229  16.015  14.397  0.2619 -0.1041 -0.1268
27787W        W43596  16.413   0.421  15.426  0.1589  0.2124 -0.1312
27788W        W43597   4.512  18.629  13.917  0.0144  0.1291  0.1472
27789W        W43598   0.084   2.294  15.112 -0.0482 -0.4021  0.2304
27790W        W43599   5.721  13.728   2.354 -0.1807  0.3608 -0.1054
27791W        W43600  15.016  10.524   0.935  0.2085  0.0277 -0.0587
27792W        W43601   6.699  17.703  15.090 -0.1519 -0.0954  0.0035
27793W        W43602   5.355  16.492   3.638 -0.4139  0.1194  0.0886
27794W        W43603  16.812   7.638   4.163  0.1588  0.0908  0.0104
27795W        W43604   3.751  16.894   4.822  0.1688 -0.0591 -0.1444
27796W        W43605   7.023  14.965  11.382  0.1439  0.1464  0.0605
27797W        W43606   2.580  17.661  15.257 -0.0742  0.4572 -0.1896
27798W        W43607  11.166   2.715  11.315  0.2532  0.0851 -0.0354
27799W        W43608  18.311  18.335  12.033  0.0054 -0.1027  0.0092
27800W        W43609   3.552   5.255  12.195  0.0085  0.0769 -0.0460
27801W        W43610   0.621   8.301  12.559  0.2731 -0.0749 -0.0808
27802W        W43611  12.208   1.057  13.283 -0.0286 -0.1258  0.2381
27803W        W43612   1.603   9.468  15.464 -0.3780  0.1465  0.0548
27804W        W43613  17.521   5.162  14.216  0.2182  0.1489 -0.1748
27805W        W43614   8.163  12.490   5.192 -0.0539 -0.0457 -0.0606
27806W        W43615  13.520   5.860   0.758 -0.0953 -0.3566  0.1619
27807W        W43616  12.472  15.554  10.321 -0.0561  0.0834 -0.1109
27808W        W43617   7.334   0.680  11.306  0.1628 -0.2150  0.0251
27809W        W43618  13.250  16.795   3.680  0.3828  0.3218  0.0355
27810W        W43619   7.725   3.416   3.590 -0.1939 -0.0758  0.1063
27811W        W43620   2.321   2.890   3.689  0.0347 -0.0465  0.0613
27812W        W43621   7.640   0.081  13.863  0.0760 -0.3672 -0.0199
27813W        W43622  11.588  16.669   3.586 -0.1669 -0.0841 -0.1854
27814W        W43623   0.289   4.528  12.841 -0.1798 -0.0359  0.0201
27815W        W43624   7.714   5.674  12.373  0.0661  0.0144  0.0206
27816W        W43625  10.440   5.707  14.880 -0.2022  0.0660  0.1126
27817W        W43626   4.593   5.803   5.274  0.0588 -0.3060  0.0429
27818W        W43627   8.390  12.870   2.907 -0.2929 -0.0394 -0.1517
27819W        W43628   6.333  18.532   1.233 -0.1307 -0.1430 -0.0034
27820W        W43629   3.270   1.424  11.350  0.0500  0.2165  0.0112
27821W        W43630   0.994   8.651   4.819 -0.1528 -0.0090  0.2386
27822W        W43631   0.419   2.366   3.323  0.3635  0.4354  0.1370
27823W        W43632   7.653  12.051   3.324  0.0725 -0.2491 -0.2688
27824W        W43633  11.684   3.958  11.803 -0.0392 -0.0486 -0.1049
27825W        W43634  10.284  14.298   3.929  0.2301 -0.0312  0.0570
27826W        W43635   1.465  16.761   1.503  0.2241 -0.1335  0.0487
27827W        W43636  13.455   0.239   0.582 -0.0594 -0.0924 -0.4245
27828W        W43637  13.558  12.004   4.925  0.0764  0.2118  0.0916
27829W        W43638   3.643   8.210   3.568 -0.1201 -0.0275 -0.0814
27830W        W43639  14.166   4.344   5.477  0.1760  0.1112  0.0567
27831W        W43640  12.498  13.007   3.767  0.0781 -0.0727  0.2738
27832W        W43641   6.621   3.786   3.313  0.2342 -0.2470 -0.3966
27833W        W43642  14.893   8.577  13.512  0.0110  0.1026  0.0110
27834W        W43643  14.331   9.265  14.420  0.2056  0.1700  0.0894
27835W        W43644  11.490   6.410  11.981  0.1309  0.2357  0.0358
27836W        W43645   2.426   0.232  11.924  0.1456 -0.2312  0.0209
27837W        W43646   6.096   8.956  15.132 -0.1343  0.0968 -0.0495
27838W        W43647  16.483  11.772  13.973  0.1866  0.0977 -0.0673
27839W        W43648  15.599   6.853  12.053 -0.0953  0.3237  0.5127
27840W        W43649   6.679   3.323   5.290  0.4918  0.1439  0.1421
27841W        W43650  13.541  13.516  11.474 -0.5693  0.3175  0.1576
27842W        W43651   8.214  14.666   4.432 -0.1273  0.1731  0.1971
27843W        W43652  13.567   2.974  15.087  0.0815 -0.0360 -0.1024
27844W        W43653  17.078  12.456   0.336 -0.0851  0.0747  0.1536
27845W        W43654   9.836  15.279   4.400 -0.3627  0.2258  0.3390
27846W        W43655   5.567   0.061   3.807  0.0186  0.3828  0.0845
27847W        W43656  11.461  17.113   3.144 -0.2012 -0.3904 -0.1413
27848W        W43657  15.709  15.790  12.413  0.0063  0.0411 -0.0110
27849W        W43658   4.663  17.779  11.662 -0.2272 -0.1797 -0.2571
27850W        W43659   0.125   2.448   3.733 -0.0464  0.0488 -0.0901
27851W        W43660  14.161   9.950  13.478 -0.5736  0.2288 -0.2930
27852W        W43661   5.158  12.179  13.268  0.0933 -0.1849 -0.2804
27853W        W43662  10.147  15.415  11.714  0.0579 -0.2375  0.4345
27854W        W43663   8.262  16.733   4.121  0.2547 -0.1681  0.1862
27855W        W43664  17.810   7.086   2.673  0.2949  0.2352  0.1579
27856W        W43665   5.317   6.855  15.584 -0.1073 -0.2426  0.0882
27857W        W43666   2.431   5.408  10.821 -0.0635 -0.1683  0.2199
27858W        W43667  16.121   7.026   0.983  0.0051  0.0376  0.0441
27859W        W43668   6.664  13.022   4.230 -0.0226 -0.1635  0.2361
27860W        W43669  15.311  14.708   1.283  0.2265  0.3579 -0.0178
27861W        W43670   7.263  10.720  11.394 -0.0027  0.0034 -0.1650
27862W        W43671   5.744  12.070   3.050  0.0630 -0.3100  0.0096
27863W        W43672   9.456   9.176  11.976 -0.1099  0.0681  0.1368
27864W        W43673   3.127   9.189   1.820  0.2257 -0.0281  0.3035
27865W        W43674   2.388  15.912  11.463 -0.0587  0.1820  0.1301
27866W        W43675   0.659  15.411  15.520 -0.1555  0.0652  0.0053
27867W        W43676   3.121  12.590  14.621  0.1332 -0.2215 -0.0900
27868W        W43677  10.847   0.783   4.277  0.0806 -0.2152 -0.1658
27869W        W43678   4.227   8.353  15.358 -0.1032 -0.0616 -0.2018
27870W        W43679  12.041   2.977   4.958  0.0758  0.2000 -0.0948
27871W        W43680   3.537   0.062   9.812  0.2191  0.0346 -0.0299
27872W        W43681   9.956  11.306   6.141 -0.0976 -0.3338  0.1610
27873W        W43682  13.787   8.530  14.331 -0.2239 -0.1248  0.0692
27874W        W43683  10.184   0.126  12.807  0.0090  0.1482 -0.1685
27875W        W43684   6.570   1.097  13.401  0.2739  0.2191  0.0463
27876W        W43685  18.628  11.974  11.586 -0.0160 -0.3359 -0.1583
27877W        W43686   9.898  12.276   1.602 -0.0312  0.0499 -0.3435
27878W        W43687  16.447  13.869  11.752 -0.1654  0.0766  0.2736
27879W        W43688  12.824  17.759   5.101  0.0599 -0.1844 -0.2037
27880W        W43689   1.941   7.561  13.428  0.3322 -0.1894 -0.0481
27881W        W43690   1.245   8.706   5.309  0.2048 -0.2837  0.0708
27882W        W43691  16.180   7.021   5.951  0.0475  0.2331  0.2343
27883W        W43692   7.674   0.386   3.051  0.0166 -0.0095  0.1201
27884W        W43693   4.506  17.452   0.980 -0.0350  0.1156  0.2755
27885W        W43694   2.775   6.341   1.657 -0.0673  0.0262 -0.1490
27886W        W43695  10.746   1.601   2.230  0.1162  0.0729  0.3885
27887W        W43696   8.482   3.240  12.117 -0.2836  0.2637 -0.0603
27888W        W43697   9.434  18.477   4.582 -0.0649  0.1099  0.3301
27889W        W43698   8.820   6.189   0.218 -0.0525 -0.1418  0.1154
27890W        W43699   7.536   5.333  12.723  0.2050  0.0479  0.1632
27891W        W43700   0.116  18.345  11.808 -0.3286 -0.1147  0.1572
27892W        W43701   1.066   9.375  15.742 -0.1863  0.2895  0.1936
27893W        W43702   7.893  18.467  12.499 -0.1142  0.1879 -0.2314
27894W        W43703   6.051  14.577   3.918 -0.0045  0.1471  0.4550
27895W        W43704   6.910   6.666   0.789 -0.0145  0.1198  0.0868
27896W        W43705   6.751  18.213  12.651  0.0721 -0.0281 -0.3448
27897W        W43706  14.927  17.643  15.565 -0.3194 -0.0438  0.3564
27898W        W43707  16.236   7.806  14.102  0.0105 -0.1967 -0.0865
27899W        W43708  17.931   4.206   0.081  0.0927  0.1517 -0.0280
27900W        W43709   9.455   8.804   4.521 -0.1472 -0.1220 -0.2526
27901W        W43710   7.779   8.025   5.762  0.2601 -0.0881  0.3178
27902W        W43711  17.492   4.559  15.512 -0.3186 -0.2303 -0.0390
27903W        W43712  10.221  11.601  13.915  0.0869 -0.0141 -0.0000
27904W        W43713  18.177   9.823   3.855  0.0229 -0.0359 -0.6036
27905W        W43714   9.315   0.380  10.850 -0.0028 -0.0926 -0.1404
27906W        W43715  11.634   6.674  13.380 -0.2055 -0.1751  0.3354
27907W        W43716  12.862  12.218  13.364  0.2992 -0.0095  0.2578
27908W        W43717  11.692   4.571  15.090  0.0022 -0.2937 -0.2546
27909W        W43718   6.438   2.204  11.352  0.1206 -0.2179  0.0966
27910W        W43719  10.056   1.342  12.037  0.0865  0.1302 -0.0670
27911W        W43720   6.249   9.185   2.726  0.1088  0.1501 -0.2697
27912W        W43721   1.861  10.318   3.233 -0.0612 -0.0570 -0.0887
27913W        W43722   6.392  13.866   0.774  0.1296 -0.2256  0.0265
27914W        W43723  12.024  12.663  14.828 -0.0102  0.0520 -0.1999
27915W        W43724  15.320   0.295   3.140  0.4684 -0.1497  0.2958
27916W        W43725   3.336   2.540  15.492 -0.0074  0.0832 -0.1215
27917W        W43726   3.168   2.728   0.212 -0.1446 -0.0413 -0.0566
27918W        W43727   3.613   1.910  12.177  0.1724  0.0145 -0.3559
27919W        W43728  17.263   0.302  13.766  0.0290  0.2793 -0.1283
27920W        W43729  11.689   7.872   1.473  0.0374  0.0264  0.1654
27921W        W43730   9.643   3.139  14.614 -0.2446  0.2431  0.0232
27922W        W43731  14.818   9.981   5.447 -0.1083  0.4335  0.1986
27923W        W43732  17.666  11.920   6.249  0.0846  0.1807  0.1017
27924W        W43733   2.480   3.570  14.230 -0.0549 -0.3189  0.0552
27925W        W43734   3.540   8.869   4.275 -0.0720 -0.1675 -0.2467
27926W        W43735   7.927  18.172  11.270 -0.0657  0.3187  0.3318
27927W        W43736   8.145  18.074  12.335  0.2018 -0.0482  0.0432
27928W        W43737   5.144  13.073  14.288  0.1114 -0.2122 -0.2156
27929W        W43738   1.173   2.216  12.892  0.0538 -0.1000  0.1600
27930W        W43739   6.489  13.538  14.644 -0.1939  0.0085  0.1225
27931W        W43740  16.136  18.529   4.544  0.2518  0.2244  0.0766
27932W        W43741   0.072  14.127   1.082 -0.3313  0.1426  0.0815
27933W        W43742   8.365  14.247   3.890 -0.3086 -0.1771 -0.2671
27934W        W43743  11.826   1.960  11.927  0.1340  0.1834 -0.1322
27935W        W43744   1.289  10.301   1.955  0.1937  0.0098  0.1237
27936W        W43745  17.018   6.279  11.746  0.3420  0.4959 -0.1285
27937W        W43746  17.083  12.902  14.432 -0.0704 -0.2051  0.0451
27938W        W43747  12.736   6.813   0.065 -0.0724  0.0003  0.1529
27939W        W43748  12.999   8.658   0.084  0.2501 -0.0801  0.1618
27940W        W43749  18.368   8.651  14.783 -0.3489 -0.2581  0.0142
27941W        W43750  11.829  18.546  14.029 -0.3370  0.0961 -0.0976
27942W        W43751  12.141   3.991   1.597 -0.0141 -0.2459  0.1538
27943W        W43752  18.385   9.143   1.423 -0.0363  0.1595  0.3347
27944W        W43753  17.548   7.777   4.032  0.2210  0.2428  0.0117
27945W        W43754   4.210   3.845   4.714  0.0253  0.1055  0.2527
27946W        W43755   0.476  10.128   5.393 -0.0746  0.0269  0.0488
27947W        W43756   1.254  12.361  14.383  0.2077 -0.1973 -0.0259
27948W        W43757  10.366  16.122   2.089 -0.1863 -0.0519 -0.1292
27949W        W43758  12.678  17.580  10.253 -0.0115 -0.0235  0.2402
27950W        W43759  16.550   8.017  12.071  0.0241  0.0846  0.1786
27951W        W43760   1.521  10.203  12.116 -0.1138 -0.2462  0.4686
27952W        W43761  11.832  14.135  14.482 -0.0800  0.1877  0.2180
27953W        W43762  12.771  14.888  13.884 -0.0947  0.0492 -0.0787
27954W        W43763   9.030  12.793   4.410 -0.0792  0.0963  0.0789
27955W        W43764  10.223  11.175   4.182 -0.0379  0.0057 -0.4717
27956W        W43765  13.585   0.772  11.538 -0.2046 -0.1092 -0.1370
27957W        W43766  17.772   9.722  12.490  0.0137 -0.5043  0.1130
27958W        W43767  16.367   6.768  15.717  0.1585 -0.1948 -0.2308
27959W        W43768  10.473   7.726   0.986  0.1346  0.2372  0.1074
27960W        W43769  16.582   6.886   5.501  0.0200 -0.0174  0.0019
27961W        W43770   7.051  15.101   2.925 -0.1677 -0.1530  0.0722
27962W        W43771  16.089  11.795  12.267  0.1329  0.0230 -0.2723
27963W        W43772  15.752  10.439   3.194 -0.0012  0.1170  0.2216
27964W        W43773   5.028  10.199   1.840 -0.0552 -0.2026 -0.1728
27965W        W43774   9.165  15.978   3.425 -0.5542  0.0147  0.1672
27966W        W43775   6.690  11.651   3.162  0.1447 -0.1749 -0.2964
27967W        W43776   1.717  18.306   5.545 -0.4115 -0.4093 -0.0293
27968W        W43777  10.478  14.980   2.383 -0.3994 -0.0779  0.3804
27969W        W43778  13.393  13.856   4.210  0.0484  0.1746  0.0857
27970W        W43779   7.736   3.418   0.112 -0.3375 -0.4041  0.0482
27971W        W43780   3.829   6.807   5.053 -0.1002 -0.0734  0.0237
27972W        W43781   9.125  13.643  15.275  0.1856 -0.1078  0.2881
27973W        W43782   3.732   5.763   4.719 -0.0083 -0.2199 -0.1686
27974W        W43783   5.335  11.016   0.576 -0.1357  0.2537 -0.0585
27975W        W43784   1.066   2.188  14.120 -0.1140 -0.1603 -0.0502
27976W        W43785   7.411   2.512   4.583 -0.1639  0.0977  0.0007
27977W        W43786   2.786   5.885  13.695  0.0148 -0.0248 -0.0176
27978W        W43787  18.388  15.337   1.573  0.2705 -0.3283 -0.0639
27979W        W43788   3.191  17.278  12.924 -0.0107  0.3485 -0.1942
27980W        W43789   4.892  12.027  14.953 -0.2115 -0.1236 -0.0600
27981W        W43790  10.477  13.692  15.547  0.0591  0.4814  0.0858
27982W        W43791  11.682   4.490  15.616 -0.1874  0.1009 -0.0324
27983W        W43792   7.872   1.433   4.210  0.0684  0.2139  0.4958
27984W        W43793   4.479   5.781  15.036  0.0762  0.0699 -0.0762
27985W        W43794  15.833   6.831  13.163  0.2114  0.0612 -0.0204
27986W        W43795   1.084  14.518  10.629  0.1396  0.1311 -0.1299
27987W        W43796  11.300   4.919  11.805  0.0090  0.2190  0.1392
27988W        W43797   5.905   9.505   1.038 -0.1410 -0.0986  0.1275
27989W        W43798   0.678  12.497   2.115  0.1168  0.1806  0.1020
27990W        W43799  14.721   4.350   5.303 -0.1509 -0.0179 -0.0437
27991W        W43800  12.633   1.125   9.856 -0.1204 -0.1827 -0.1396
27992W        W43801   5.564  13.714  13.930 -0.2336 -0.2173  0.2092
27993W        W43802  16.805  10.669   2.695  0.3517 -0.4033  0.2368
27994W        W43803  16.653   8.238  10.995  0.0826  0.4537 -0.2875
27995W        W43804  15.428  11.635   2.431  0.0513  0.1752 -0.2089
27996W        W43805  16.204  18.326  13.058 -0.3482 -0.1608 -0.0500
27997W        W43806   1.742   8.699   4.489  0.1140  0.1929 -0.1434
27998W        W43807   9.947   5.788   2.237  0.2349 -0.1034  0.1096
27999W        W43808   2.480   1.221  12.805 -0.0862 -0.0814 -0.2071
28000W        W43809  16.480  13.783  15.175 -0.2338 -0.1206 -0.0701
28001W        W43810  17.590  16.927  14.255  0.1395  0.0016 -0.1371
28002W        W43811  13.006   9.353  12.018 -0.2308 -0.0121  0.3029
28003W        W43812   3.488   6.409   2.559 -0.1879  0.0836 -0.1309
28004W        W43813  13.551  16.656  12.962  0.4032 -0.0400  0.2289
28005W        W43814  15.596  17.431   0.338 -0.1951  0.3582 -0.1137
28006W        W43815   3.581  15.872  10.736  0.1259 -0.5561  0.3722
28007W        W43816   3.102   1.120  12.152 -0.0258 -0.0532  0.3343
28008W        W43817  11.832  10.745   3.553  0.1266  0.0782 -0.0002
28009W        W43818   0.314   6.669   5.836  0.1336 -0.3700 -0.2511
28010W        W43819  12.870  10.223   5.420 -0.2068  0.1109 -0.0167
28011W        W43820  12.352  14.006   2.171  0.6009 -0.0193  0.0795
28012W        W43821   1.020  14.269  14.763 -0.0569  0.0399  0.0278
28013W        W43822  13.186   9.616  11.074  0.3023  0.2001  0.3372
28014W        W43823   1.605   3.475   1.694 -0.0220 -0.1459  0.2545
28015W        W43824  10.360  14.410  11.935 -0.1479  0.0645  0.2157
28016W        W43825   5.993   0.818  14.379  0.3963 -0.2995 -0.2192
28017W        W43826   8.233   0.164  14.770 -0.0264 -0.2296 -0.0837
28018W        W43827   1.770   3.813   3.395 -0.0882 -0.2166  0.1398
28019W        W43828   5.669  12.081  14.624  0.2757  0.2650 -0.2504
28020W        W43829  16.612   1.693  12.566  0.2457  0.0341  0.1244
28021W        W43830   3.997  11.391   1.219 -0.2271  0.1042 -0.0099
28022W        W43831  15.732   3.463   2.474 -0.0968 -0.3273 -0.0090
28023W        W43832   9.659   0.546   0.551  0.0301  0.1054  0.0887
28024W        W43833  11.488   4.165  14.889 -0.0678  0.1030 -0.0146
28025W        W43834  10.995   5.469   5.891  0.0124 -0.0176  0.2611
28026W        W43835  18.163  13.863  13.265 -0.2360 -0.2614 -0.0593
28027W        W43836  13.726   2.264   2.966 -0.0375 -0.2179  0.1433
28028W        W43837   2.854   1.301   3.691  0.1862 -0.4506  0.1634
28029W        W43838  17.176  12.169   4.096  0.0016  0.0772 -0.1232
28030W        W43839   8.938   0.097  13.438 -0.1662  0.1345 -0.0069
28031W        W43840  15.419  11.822  10.992  0.0388 -0.1903  0.2350
28032W        W43841  15.628   6.770   3.669 -0.2273 -0.0448 -0.0519
28033W        W43842   9.974  15.965  14.851 -0.1435 -0.2926 -0.1414
28034W        W43843   3.067   4.181  12.895 -0.2074 -0.1980  0.0419
28035W        W43844   7.699   2.398  13.202  0.2765 -0.0540 -0.2357
28036W        W43845  10.873   9.412   4.554 -0.1535  0.0012 -0.0228
28037W        W43846  14.546  14.389  11.579 -0.1580 -0.1533 -0.0442
28038W        W43847   1.608  15.263  14.132  0.2342 -0.2107  0.0433
28039W        W43848   9.554   3.308   2.699 -0.0554  0.1550 -0.1955
28040W        W43849   4.620  11.119  14.854 -0.1564  0.1983 -0.1654
28041W        W43850   2.198   6.857   5.324 -0.1164  0.2254  0.1722
28042W        W43851   2.784   1.561   1.005  0.2059 -0.0858 -0.4802
28043W        W43852  15.457   1.736   5.194  0.1634  0.2011  0.2835
28044W        W43853  16.504  13.524  14.682  0.5330  0.0087  0.0795
28045W        W43854   9.976  16.760  13.804  0.0807 -0.0975  0.1414
28046W        W43855   0.506  14.241   0.840 -0.1238 -0.1857  0.2298
28047W        W43856  17.148  15.078  15.150 -0.1972 -0.1468 -0.0173
28048W        W43857   3.436  16.697  14.751 -0.0279  0.0078  0.0443
28049W        W43858   4.335  13.022   2.457  0.4194  0.2615 -0.0799
28050W        W43859  10.839  13.231   2.796  0.0191 -0.0982 -0.2662
28051W        W43860  13.453   6.316  10.214 -0.0026 -0.0385 -0.1942
28052W        W43861  11.288   2.437   3.256 -0.0060  0.1235 -0.0829
28053W        W43862   6.946   6.296   4.271  0.2867  0.0835 -0.2318
28054W        W43863  10.500  15.034   3.874  0.1958 -0.1328 -0.0435
28055W        W43864  15.880   9.509   3.118  0.1542 -0.0525 -0.0502
28056W        W43865  10.904   2.778   0.868  0.1308  0.0416  0.4808
28057W        W43866  15.412   6.145   1.582 -0.3075 -0.0115 -0.1883
28058W        W43867   6.005   0.115   2.023  0.0953  0.1473 -0.0041
28059W        W43868   9.660  12.018   5.050  0.0898  0.0872  0.1453
28060W        W43869  16.919  16.222  11.848  0.0065  0.2633 -0.1246
28061W        W43870   9.423  12.741   1.552 -0.1578  0.1954 -0.3678
28062W        W43871   1.789   2.526  14.614  0.1537 -0.0826 -0.0525
28063W        W43872   9.086  16.869   4.816  0.1729  0.2141  0.2349
28064W        W43873  15.165  17.395  10.929 -0.2523  0.3546  0.1041
28065W        W43874   8.200  12.354  12.475 -0.3340  0.2436  0.1995
28066W        W43875   6.198   8.755  11.488 -0.1212  0.1958 -0.1494
28067W        W43876  14.059  12.701  14.804 -0.1153  0.2096 -0.2846
28068W        W43877   8.072  17.189  15.277  0.2118  0.1374 -0.0003
28069W        W43878  11.625   6.229   2.679  0.1023 -0.0310  0.0352
28070W        W43879   3.753   8.605   3.908 -0.1135 -0.0808 -0.0175
28071W        W43880   7.875  18.652   0.532 -0.2189  0.0553 -0.2211
28072W        W43881   3.574   6.319  15.336  0.2257  0.1096  0.2631
28073W        W43882   7.924  12.963  13.743  0.2144 -0.0229  0.0515
28074W        W43883  17.335  13.181   0.111 -0.3429  0.3083 -0.0197
28075W        W43884   5.164   1.886   4.764  0.0978  0.1098 -0.1369
28076W        W43885   8.444   3.083   0.084  0.0963 -0.0364 -0.0351
28077W        W43886  10.180  13.242  12.580 -0.0928 -0.1176 -0.3813
28078W        W43887   1.116  12.755  15.715  0.3275 -0.1192  0.2148
28079W        W43888   3.521  14.951  12.637  0.0129 -0.0536 -0.5009
28080W        W43889  13.970  11.274   0.727  0.4073 -0.1621 -0.1614
28081W        W43890   7.846  12.535   3.664  0.2514 -0.0490  0.1055
28082W        W43891   8.971   5.869  14.909  0.1054 -0.0384 -0.0367
28083W        W43892  13.228  15.519  13.637 -0.3063  0.1037 -0.2083
28084W        W43893   9.425  11.924  10.421  0.1970  0.0595  0.0351
28085W        W43894   3.856  18.606   2.695 -0.0546  0.1936 -0.0458
28086W        W43895   2.877   3.584   0.755 -0.4237 -0.2236  0.1918
28087W        W43896   6.979  14.740  15.099  0.0254  0.1745 -0.0736
28088W        W43897  15.604   3.779   2.957  0.0300  0.0029 -0.2616
28089W        W43898  10.781   5.068  10.846  0.0167  0.2675  0.0863
28090W        W43899   2.329   2.640   5.611  0.0481 -0.4082  0.1245
28091W        W43900   5.455   9.340   5.533  0.0141  0.2236  0.1730
28092W        W43901   4.670   1.304  11.237  0.4048 -0.0617  0.1549
28093W        W43902   4.066  14.091  12.870  0.1011  0.1579 -0.0393
28094W        W43903   3.322   9.780  14.876  0.0463 -0.0656  0.1138
28095W        W43904   0.534   4.986  11.680  0.0409 -0.0151  0.0734
28096W        W43905   5.185  16.373  12.231  0.0517 -0.2640 -0.0238
28097W        W43906  17.401   9.523   3.858  0.2736 -0.0866 -0.4803
28098W        W43907  15.770   8.346  13.061 -0.5344  0.0642 -0.0411
28099W        W43908  12.003   0.206   0.892  0.0639 -0.1064  0.3360
28100W        W43909  16.121   0.842   1.570 -0.0749  0.0153  0.2453
28101W        W43910   1.716   4.417   1.156 -0.0715  0.2567 -0.0706
28102W        W43911   1.823   1.617  14.250 -0.2119 -0.0226  0.5701
28103W        W43912  12.138  12.997   5.020  0.1020  0.0775 -0.0511
28104W        W43913  10.615   4.869  12.388  0.1119  0.0865  0.0358
28105W        W43914  11.065   0.104  11.181 -0.4485 -0.4590  0.0190
28106W        W43915   7.379   8.302  13.853 -0.0343 -0.0676 -0.1775
28107W        W43916  12.721  10.772  12.062  0.4610  0.0764  0.2050
28108W        W43917  14.535  15.242   3.579 -0.0608  0.0999 -0.1389
28109W        W43918  10.191   8.767  13.411  0.0564 -0.1381 -0.1354
28110W        W43919   7.623   6.195   3.167 -0.2007  0.0174  0.2425
28111W        W43920  12.322  10.498  12.321 -0.3206 -0.2428  0.4021
28112W        W43921  10.059   2.931   3.735 -0.2953 -0.2227 -0.2284
28113W        W43922  15.144   3.207   1.014 -0.1237  0.2152  0.0058
28114W        W43923  13.887  10.694   0.257  0.2184  0.0828  0.5063
28115W        W43924   2.494   8.425  15.231 -0.1147  0.0961 -0.1853
28116W        W43925   3.913  13.935   5.572 -0.1054  0.0429 -0.0310
28117W        W43926  14.171   2.508  11.236 -0.1233 -0.0239  0.2061
28118W        W43927   8.877   3.875  15.314 -0.0974 -0.0249  0.1418
28119W        W43928   0.555   2.239   3.863  0.1779 -0.1023  0.1647
28120W        W43929  18.348   9.440   0.155 -0.1540 -0.1452 -0.0685
28121W        W43930   1.712   7.375   0.766  0.0158 -0.1891 -0.1239
28122W        W43931   8.913  18.546   3.864 -0.0222 -0.4790  0.0494
28123W        W43932  11.787  12.169  13.536  0.3798 -0.2915  0.0775
28124W        W43933   5.929  14.050   2.037 -0.2167  0.3255 -0.2377
28125W        W43934  11.628  13.954  13.202  0.0596  0.2194 -0.0424
28126W        W43935  11.748  15.617  13.833  0.0461  0.0196 -0.1901
28127W        W43936  17.832  15.183  10.878 -0.1587  0.0322 -0.1445
28128W        W43937  13.772  14.996   0.981 -0.0113  0.4562  0.1809
28129W        W43938   2.774   4.462   0.107 -0.2485  0.0473 -0.2980
28130W        W43939   6.317   3.646  14.066 -0.0081  0.0024  0.0765
28131W        W43940   2.430  14.688   3.272 -0.3498  0.0598  0.1427
28132W        W43941   5.412  14.180  13.296  0.4446 -0.0873  0.1365
28133W        W43942  15.428   9.942  12.361 -0.1153  0.2438  0.1286
28134W        W43943   0.789  17.607   4.141  0.0801  0.1043 -0.0028
28135W        W43944  10.192   9.813  14.683  0.1693 -0.1477 -0.2994
28136W        W43945  15.596   8.292   4.169 -0.2818 -0.1980 -0.2178
28137W        W43946   5.865  13.414  14.249 -0.1004 -0.0644 -0.2559
28138W        W43947  13.549   4.612  11.026  0.1564  0.3231  0.0969
28139W        W43948  10.092   4.605   3.910  0.0054 -0.0426  0.1580
28140W        W43949  17.756  12.039   1.313  0.0228  0.1497  0.4357
28141W        W43950   9.377   3.496   3.185 -0.3134 -0.0891  0.1879
28142W        W43951  11.016  13.784  15.603 -0.2849  0.1632  0.0622
28143W        W43952  11.817  15.960  15.617  0.2363  0.0246 -0.0026
28144W        W43953  18.525  10.840   4.287  0.0163  0.1000  0.1838
28145W        W43954   4.780   1.309  15.343  0.3634  0.0591 -0.0712
28146W        W43955   0.299   9.380   0.129  0.0335  0.0362 -0.1864
28147W        W43956   1.970   7.089  10.922 -0.0185  0.1993 -0.0396
28148W        W43957  13.371  11.858  11.447  0.1985  0.0345  0.2439
28149W        W43958  17.621   5.043   1.583  0.1348  0.0016 -0.1260
28150W        W43959  11.276   7.318  14.822  0.0893 -0.2983  0.1563
28151W        W43960   2.068   6.393  13.984 -0.1321 -0.5587  0.0528
28152W        W43961   5.292  10.364  13.023 -0.1513  0.1861  0.2247
28153W        W43962   2.895   0.535   3.299  0.1414  0.3834  0.3567
28154W        W43963   8.418   5.833   2.860  0.2348  0.1404  0.0057
28155W        W43964  18.001  15.864  15.358 -0.2908 -0.0493 -0.3311
28156W        W43965   7.947   5.452   0.412  0.0527 -0.2994  0.0186
28157W        W43966   4.693   7.043  14.486 -0.2606  0.3733  0.2655
28158W        W43967   1.092   6.727   3.972 -0.1548  0.3743 -0.1115
28159W        W43968  16.262  11.152   3.491 -0.2175  0.1365 -0.1137
28160W        W43969   8.268   4.965   0.912  0.0274 -0.3036  0.0360
28161W        W43970  13.935   8.224   1.165 -0.0240 -0.1120  0.2038
28162W        W43971   5.357  10.016  13.617  0.4950  0.1981  0.2198
28163W        W43972   5.441  18.474  11.687 -0.3656 -0.0246 -0.0254
28164W        W43973   8.413  13.258  12.494  0.1816  0.0568  0.0488
28165W        W43974  14.715   3.094   1.342  0.2208  0.3148  0.1357
28166W        W43975   3.478  14.365  11.279  0.1743 -0.0627  0.1805
28167W        W43976  10.281  14.314  13.398 -0.1218  0.3093  0.2238
28168W        W43977   0.943  17.678   1.781  0.3118 -0.0771 -0.1497
28169W        W43978  10.185   1.245   0.584 -0.0508 -0.0046  0.3966
28170W        W43979   1.354   5.292   1.728 -0.3131  0.1568 -0.0628
28171W        W43980   2.529   8.754  13.502  0.1076 -0.2292 -0.0522
28172W        W43981  13.195   1.781   0.525  0.3570  0.1049 -0.3093
28173W        W43982  11.957  13.453   4.258 -0.2502 -0.0338 -0.0968
28174W        W43983   2.612   2.608   2.208 -0.1262 -0.0786  0.2721
28175W        W43984  17.301   2.473  14.010 -0.1049 -0.2894 -0.1882
28176W        W43985  12.163   0.621   4.342  0.3359  0.2273 -0.2460
28177W        W43986  12.097  10.381  12.728 -0.0707 -0.0990  0.0314
28178W        W43987   3.149   3.950   1.502  0.2401  0.1454 -0.1550
28179W        W43988   8.131   6.445   5.390  0.1119  0.2330  0.0292
28180W        W43989   6.263   5.758   1.124 -0.0063  0.2628 -0.0437
28181W        W43990   8.887   7.281  11.505  0.1118  0.0715  0.0033
28182W        W43991   8.427  16.974   3.677 -0.3088 -0.2142 -0.2693
28183W        W43992  11.593   3.223   0.699  0.3525  0.0012  0.2924
28184W        W43993  13.506   3.508   1.908  0.0304 -0.2379 -0.0664
28185W        W43994  15.514   6.703   2.151  0.0356 -0.0143  0.0009
28186W        W43995   5.418  10.914   3.936  0.3413 -0.0478 -0.0945
28187W        W43996   5.853   4.073  15.500 -0.1161 -0.2737 -0.0977
28188W        W43997  13.388   6.194   2.185 -0.4067  0.4067 -0.0190
28189W        W43998   7.340   1.846   2.798 -0.2228 -0.0269 -0.1823
28190W        W43999  16.801   7.223  11.415  0.1161 -0.0377 -0.2648
28191W        W44000   7.880   5.195   2.921 -0.1250  0.1146 -0.2862
28192W        W44001  10.593   6.144  11.833 -0.0103  0.2531 -0.0557
28193W        W44002   1.437   3.076   4.604 -0.0912 -0.1179 -0.0945
28194W        W44003   6.975   2.348   5.425  0.0914 -0.0943  0.0117
28195W        W44004   3.681  18.440   1.705 -0.0395  0.0176 -0.3003
28196W        W44005   7.532   8.187  12.683 -0.2378  0.1797  0.1995
28197W        W44006  15.400   9.190   4.223 -0.1973  0.0675  0.0803
28198W        W44007   9.557  17.883  10.336  0.3525 -0.0633  0.1971
28199W        W44008  13.178   2.070  14.918  0.0762 -0.1124 -0.0299
28200W        W44009   5.350  16.133   4.670  0.1269 -0.0364  0.0709
28201W        W44010   4.556  15.519  11.475 -0.2075  0.0015  0.1074
28202W        W44011   9.947   0.924  14.659 -0.1710 -0.1496 -0.0306
28203W        W44012  10.664   7.637   3.711  0.1486  0.0261 -0.1195
28204W        W44013   7.871   8.590  11.092 -0.4105  0.1363 -0.3566
28205W        W44014  18.351   8.388   4.112  0.2415 -0.0100  0.2812
28206W        W44015   8.319  14.498   9.982 -0.2511 -0.1430 -0.0189
28207W        W44016  18.630   5.426  15.139 -0.2050  0.2845  0.0517
28208W        W44017  14.779   4.472   2.447 -0.0005  0.1083 -0.0683
28209W        W44018  10.189   6.448   0.310 -0.0902  0.0785 -0.0623
28210W        W44019  18.142  15.497  13.416 -0.2693 -0.0653 -0.1340
28211W        W44020   3.160   6.201   3.669 -0.2028 -0.1383 -0.4401
28212W        W44021   7.994  15.104   0.546  0.0594  0.2918  0.0161
28213W        W44022  13.977  15.346   2.584 -0.1352 -0.0780  0.2331
28214W        W44023  14.447  15.918   3.071 -0.1057 -0.0870 -0.0130
28215W        W44024  14.740   4.319   0.913 -0.1624  0.1861  0.2016
28216W        W44025   2.341   5.293  15.648  0.1118 -0.2305 -0.4385
28217W        W44026  14.296   6.527   2.226 -0.0673 -0.2402 -0.1399
28218W        W44027  16.810   5.856   1.249  0.2530 -0.0190 -0.0367
28219W        W44028  12.188   8.466   2.543  0.2035 -0.1747  0.1085
28220W        W44029   9.165   1.139  15.525  0.0059  0.3378  0.1267
28221W        W44030   0.087   1.239  15.537  0.1068  0.2880  0.0652
28222W        W44031   2.641  13.555   0.443  0.0855 -0.0747  0.0175
28223W        W44032  12.425  18.116  14.223  0.2740  0.0166 -0.1925
28224W        W44033   7.010  18.048   1.039  0.0537  0.1494  0.0660
28225W        W44034  13.596   7.603  11.668 -0.2227 -0.1356 -0.2570
28226W        W44035   3.787  13.875  11.501 -0.0045 -0.0959  0.0270
28227W        W44036   0.381   2.787  13.886  0.0654 -0.0516 -0.2733
28228W        W44037   9.117   9.596   2.784 -0.0311  0.3436 -0.2214
28229W        W44038  15.291  13.048  12.041  0.1950  0.4059  0.0744
28230W        W44039   1.059   3.290   5.001 -0.0537  0.2198 -0.1719
28231W        W44040   9.378   6.248  11.303  0.3139  0.2989  0.0294
28232W        W44041  12.916  13.955  12.059  0.0899 -0.2261  0.0848
28233W        W44042   3.562   4.774  15.405 -0.1722  0.0506 -0.0707
28234W        W44043   1.084  16.298  11.383  0.2211 -0.2283 -0.1516
28235W        W44044  14.912   2.017   1.975 -0.0382 -0.0089 -0.1851
28236W        W44045  11.218  17.637   5.602  0.2904  0.2290  0.0703
28237W        W44046   2.158  13.575   1.059 -0.0184 -0.0275  0.1379
28238W        W44047  14.545   4.654  13.642 -0.0354  0.2604  0.1487
28239W        W44048   9.973   8.514  12.383  0.1210 -0.0346  0.2786
28240W        W44049  12.217   3.800  13.551 -0.1551  0.1672 -0.1068
28241W        W44050  14.020   1.433   0.310  0.2853  0.1756 -0.1918
28242W        W44051   1.490   0.163  15.497 -0.2815 -0.0823 -0.1254
28243W        W44052  11.263  11.999   1.711 -0.0728  0.1977  0.1667
28244W        W44053   8.550  10.886  13.955  0.2828 -0.3141 -0.1892
28245W        W44054  17.305  11.261   4.059  0.2775  0.0186  0.0256
28246W        W44055   1.602  10.944   2.491 -0.0512  0.2018  0.0900
28247W        W44056   2.644  14.169   2.136  0.1592 -0.1512  0.1828
28248W        W44057   5.656   7.513   4.306  0.1208  0.0337  0.1780
28249W        W44058  14.853  16.280  14.041 -0.0814  0.1082 -0.1937
28250W        W44059  15.144  16.890  15.512  0.1019  0.0135 -0.1296
28251W        W44060   6.137   7.377   1.282  0.1231 -0.0552 -0.1209
28252W        W44061   0.783   3.371   4.201  0.2358 -0.1756 -0.0000
28253W        W44062   7.074   7.070  14.035 -0.0633  0.0131 -0.4429
28254W        W44063   5.129  10.264   2.531 -0.3460  0.0076  0.0238
28255W        W44064  15.862  11.451   3.508 -0.1162 -0.1530 -0.0038
28256W        W44065  11.765  14.849  10.944  0.0822  0.4600 -0.2541
28257W        W44066   4.533   5.072   2.960  0.1501 -0.1186  0.1201
28258W        W44067   9.581  15.203  13.029  0.2058  0.0295 -0.1021
28259W        W44068  17.828  14.607   4.306 -0.3022  0.3485 -0.0904
28260W        W44069  16.191   9.169   2.834  0.1343  0.0010  0.1081
28261W        W44070  13.049  10.483   0.787  0.0035  0.0800 -0.1752
28262W        W44071  15.322  10.658   3.329 -0.2207  0.2285  0.1676
28263W        W44072  18.614   0.547  13.036 -0.1080 -0.1899  0.0601
28264W        W44073  17.813   4.299  13.790 -0.3487  0.1592  0.0297
28265W        W44074   0.040   2.452   0.659  0.2947 -0.3026  0.1441
28266W        W44075   9.372   5.306  13.350 -0.2088  0.0484 -0.2210
28267W        W44076  14.728   6.805  11.662  0.1665  0.1169  0.0719
28268W        W44077   3.162  15.825  12.805 -0.0213  0.1295  0.1671
28269W        W44078   6.711   5.587  14.558  0.1053 -0.0554  0.0459
28270W        W44079   9.241  17.400   4.649 -0.4245 -0.2813  0.0430
28271W        W44080   1.904  14.023  15.618  0.2811 -0.0114  0.4244
28272W        W44081  10.509   7.708  12.526  0.1301  0.1966  0.0112
28273W        W44082   6.284   9.824  14.461 -0.2229  0.0633  0.1682
28274W        W44083   7.619   2.451  15.588 -0.0228  0.0825 -0.0197
28275W        W44084   1.579  18.277   4.164 -0.1027 -0.2870  0.2852
28276W        W44085   2.122  12.824   5.324  0.2538  0.3464 -0.4135
28277W        W44086  17.660  17.741   1.223  0.1260 -0.1044 -0.0255
28278W        W44087   7.797   3.531   4.819 -0.0841 -0.2221 -0.1898
28279W        W44088  12.298  12.241  12.701 -0.1461  0.0346  0.2203
28280W        W44089   3.287   3.130   3.383  0.1904  0.1187 -0.1812
28281W        W44090  15.049  17.592   0.367  0.2047  0.0784  0.0161
28282W        W44091   1.388   9.030  13.371 -0.4389 -0.0247 -0.3513
28283W        W44092   5.141   7.462   4.292 -0.2788 -0.1039 -0.2619
28284W        W44093   6.321   8.209   0.959  0.1541 -0.0287 -0.1575
28285W        W44094   9.863  18.495  13.779 -0.0820 -0.0278 -0.3237
28286W        W44095   8.597   5.269   5.324  0.0524 -0.2117  0.0733
28287W        W44096  12.651  10.910  13.982  0.0467  0.2035  0.1171
28288W        W44097   3.559   0.628  13.054 -0.0691 -0.1870 -0.3504
28289W        W44098   8.858  15.890  11.018 -0.0698 -0.1188 -0.0394
28290W        W44099  12.028  15.457   1.798 -0.2122  0.3090  0.4358
28291W        W44100   6.418   3.702   1.711  0.3594  0.1131 -0.1090
28292W        W44101  14.112  14.319   3.569 -0.0122  0.0330 -0.0986
28293W        W44102   8.777  18.313  10.721  0.1775  0.1925  0.1879
28294W        W44103  14.451   4.927   0.587 -0.0716 -0.1873 -0.1569
28295W        W44104   5.588   8.242   5.901  0.0064  0.1054 -0.0392
28296W        W44105  11.568  14.618  12.305 -0.1576  0.0945  0.2566
28297W        W44106  18.270   2.594   2.838  0.1484 -0.0364  0.0662
28298W        W44107  12.448  12.532   2.591 -0.3004 -0.2041  0.0157
28299W        W44108   4.331  11.820   0.382  0.1822  0.2801 -0.0268
28300W        W44109   3.616   4.013   1.583 -0.0921 -0.2553  0.0953
28301W        W44110   3.358  16.180   2.134 -0.0834 -0.2132 -0.1665
28302W        W44111  12.774  11.241   2.589 -0.1150 -0.3004 -0.2515
28303W        W44112   7.810   6.527  13.200  0.0250 -0.1320  0.1278
28304W        W44113   8.919  11.480  13.786 -0.1867 -0.2935 -0.2228
28305W        W44114   6.811  13.873   6.088 -0.0449  0.0090  0.0834
28306W        W44115  14.385  10.009   2.277 -0.3132 -0.1338  0.1284
28307W        W44116   5.037   9.915  13.226 -0.0442  0.0668 -0.0746
28308W        W44117  17.985  12.859   4.285  0.1136  0.1938  0.2401
28309W        W44118   1.605   1.576  13.706  0.2225  0.1330  0.0456
28310W        W44119   9.043  14.490  11.811  0.2101 -0.0592  0.1435
28311W        W44120  12.067  14.528  12.793 -0.2573 -0.0075  0.0528
28312W        W44121  13.682   6.274  15.077  0.3026  0.4228  0.3140
28313W        W44122   9.726   2.022   5.812 -0.2050  0.1291 -0.2109
28314W        W44123  15.563   0.891   4.598 -0.3842 -0.0237  0.0805
28315W        W44124  14.092   7.889   0.108  0.0772 -0.1653 -0.0368
28316W        W44125  14.865  16.634   2.692  0.0411  0.3586  0.2200
28317W        W44126   9.471   2.372  12.845 -0.2163  0.2714 -0.1557
28318W        W44127   6.029  17.981  13.259  0.4588 -0.3192  0.2013
28319W        W44128  11.461   3.283   3.845  0.0701  0.0402  0.0076
28320W        W44129   2.160   0.065   1.826 -0.1297 -0.4029  0.1837
28321W        W44130  16.480   3.519  13.553  0.0215  0.0487  0.0237
28322W        W44131   3.125   6.879   0.955 -0.0128  0.1306 -0.1522
28323W        W44132  11.510   3.024   4.909 -0.1465  0.0201  0.1173
28324W        W44133  16.422  10.261   0.701 -0.1747 -0.2440  0.1545
28325W        W44134   1.984   2.187  14.869  0.0178  0.3976  0.0744
28326W        W44135  17.318   2.917   3.301  0.3074 -0.0518  0.1577
28327W        W44136   5.250   8.441  14.579  0.0468  0.0985  0.0830
28328W        W44137  13.711  10.140   1.195 -0.1579 -0.0014  0.1196
28329W        W44138  12.781  12.199   1.720 -0.1141  0.2594 -0.1704
28330W        W44139  18.216  11.336   0.027  0.0362 -0.2687 -0.0035
28331W        W44140   2.063  17.971   5.441 -0.1493  0.1783  0.0777
28332W        W44141  12.483   2.319   2.556  0.0017 -0.1689 -0.0790
28333W        W44142   0.502   4.349   4.502 -0.1004  0.0844 -0.1175
28334W        W44143  17.419  10.051   3.402 -0.0428 -0.0964 -0.0787
28335W        W44144   6.446   6.553   0.811  0.1772  0.2372 -0.0719
28336W        W44145  12.283   7.458   4.436  0.3943  0.0479  0.1824
28337W        W44146  13.911  17.282   1.430  0.0472 -0.0515  0.1325
28338W        W44147   7.498   2.866  10.869  0.2878  0.0604 -0.0377
28339W        W44148   8.699   2.059   1.829 -0.1481 -0.2631  0.0244
28340W        W44149  12.099   1.523  10.628  0.1191  0.0425 -0.4639
28341W        W44150   9.544  11.634   3.599 -0.0831  0.0828 -0.1244
28342W        W44151   9.268  14.730  15.115 -0.0453  0.0797 -0.0722
28343W        W44152  18.068   5.592   0.888 -0.0506  0.0188 -0.0317
28344W        W44153   3.680   9.571   0.525  0.2421 -0.0338  0.0037
28345W        W44154   9.817   8.926  15.432 -0.0541 -0.1904 -0.0833
28346W        W44155  12.417   3.212  14.992  0.2829  0.2758  0.0997
28347W        W44156   1.075  13.425   5.218 -0.0325 -0.1658  0.1794
28348W        W44157   9.622  15.823   0.815 -0.2294  0.0537 -0.0881
28349W        W44158  12.911  11.520  15.109  0.0606 -0.1427 -0.1520
28350W        W44159   6.583   2.548   2.715 -0.3729 -0.2642 -0.1179
28351W        W44160  12.609   5.363   1.142 -0.4362  0.0122 -0.0193
28352W        W44161  16.968   5.155   4.170  0.2421 -0.0753 -0.0742
28353W        W44162  16.956  11.609  14.031  0.0843 -0.1908 -0.1965
28354W        W44163  16.000   7.878   1.032 -0.1661  0.0813  0.2113
28355W        W44164  11.156  12.835   0.801 -0.1201  0.1792  0.0082
28356W        W44165  12.736   2.365   3.061  0.2120 -0.3764  0.0469
28357W        W44166   9.332   3.316   0.574  0.0471  0.0957 -0.3636
28358W        W44167   5.461   0.885   4.474  0.0286  0.0732 -0.2597
28359W        W44168  18.153  10.547   2.314 -0.1379 -0.0117  0.0223
28360W        W44169  18.376  11.295   4.414  0.3043  0.2161  0.2360
28361W        W44170  14.509   2.404  14.348  0.3277 -0.0061  0.1112
28362W        W44171   5.103   1.031   1.606  0.0496 -0.2989  0.0197
28363W        W44172   2.146  13.428   2.328 -0.1134 -0.0492 -0.1440
28364W        W44173   6.734  15.350  13.349  0.1368  0.0523  0.1143
28365W        W44174   3.147  18.527  14.997 -0.2192 -0.0350  0.2479
28366W        W44175   6.722   9.335  13.696 -0.1666  0.0150 -0.0289
28367W        W44176   5.239  16.456   1.903  0.2202 -0.3111  0.2359
28368W        W44177   0.469   6.406  11.532 -0.2731 -0.3622  0.1503
28369W        W44178  12.453   9.864   9.702  0.1438  0.1299  0.1513
28370W        W44179   1.985  18.256  14.897  0.0500 -0.2202  0.1401
28371W        W44180   2.232  16.624   4.757 -0.2115 -0.0161  0.2519
28372W        W44181  13.600   0.646  10.234 -0.3251 -0.0296  0.2225
28373W        W44182  17.982   9.241  13.713 -0.0563  0.0917 -0.0006
28374W        W44183  12.972  16.379  10.350  0.0124 -0.0991  0.1230
28375W        W44184  14.694  10.501   4.047 -0.0590 -0.2082  0.1812
28376W        W44185   8.144  15.505   1.937  0.0303 -0.0114  0.3532
28377W        W44186  13.455   0.918  15.726  0.0923  0.0299 -0.0523
28378W        W44187   8.378   4.742   1.555 -0.3940 -0.1180  0.1263
28379W        W44188  18.608  14.096  13.455  0.0961 -0.1561 -0.2504
28380W        W44189   2.342   2.723  13.884 -0.3945  0.0954 -0.0386
28381W        W44190   8.287  17.559   4.697 -0.0861 -0.3391 -0.2442
28382W        W44191   8.375   3.220   4.767 -0.0415  0.0412 -0.2280
28383W        W44192   6.140  10.423  12.293  0.0764  0.3409 -0.0522
28384W        W44193   0.115   7.787   1.285 -0.4189 -0.0036 -0.0769
28385W        W44194  16.659   7.455  14.990  0.2272  0.1574 -0.3187
28386W        W44195  16.615  11.562  12.559  0.2051 -0.0197  0.0575
28387W        W44196  15.743   1.159   3.102 -0.0116  0.0304  0.0134
28388W        W44197  10.904  17.991   0.949  0.0867  0.2304 -0.0855
28389W        W44198  10.051   4.594   5.352 -0.1929  0.0694 -0.0778
28390W        W44199  11.021   6.917   3.919 -0.1776  0.2233 -0.0314
28391W        W44200   6.571  11.116   1.311  0.2997  0.0459  0.0183
28392W        W44201  14.432   1.343  11.867 -0.0488  0.0621  0.2814
28393W        W44202   9.342   8.123  15.103  0.1137  0.1596 -0.1850
28394W        W44203  11.370  18.098  10.775 -0.0466 -0.1441  0.0689
28395W        W44204   5.345   7.562   0.240  0.0063  0.0256 -0.1722
28396W        W44205  12.667  18.107  12.537 -0.1831  0.1011 -0.1305
28397W        W44206   0.003  17.959  11.380  0.0991 -0.0822  0.0863
28398W        W44207   0.726  14.408  10.938  0.0915  0.0574  0.0134
28399W        W44208   4.910   4.012  15.683  0.1188  0.1495  0.0963
28400W        W44209  10.011   2.343  12.919 -0.1929  0.1996 -0.2133
28401W        W44210  14.762  12.606   9.987  0.1759 -0.0037 -0.0720
28402W        W44211  13.051   1.193  12.850  0.0405 -0.0347 -0.0485
28403W        W44212   4.841  13.190  11.506 -0.0332 -0.4264 -0.0343
28404W        W44213  10.286  15.458   9.478  0.1180 -0.1903 -0.1815
28405W        W44214  13.177   7.576   2.026  0.2006 -0.1727  0.0057
28406W        W44215  14.241  15.815  12.618  0.0310  0.0855 -0.0082
28407W        W44216  10.258  15.134  12.285  0.0610  0.2197  0.4296
28408W        W44217  12.173  15.878   3.953 -0.1101 -0.1361 -0.1043
28409W        W44218  15.933  16.025  14.186 -0.0974 -0.1500 -0.2626
28410W        W44219   8.931  16.065  12.000 -0.0088  0.2123  0.5166
28411W        W44220  14.083   8.869  14.679  0.0578 -0.2325 -0.0316
28412W        W44221   6.888   7.230   3.806 -0.0205  0.1700 -0.1616
28413W        W44222  10.765   6.889  15.514 -0.0749  0.1634 -0.2725
28414W        W44223  10.257   6.069   4.791  0.0029 -0.3593 -0.0763
28415W        W44224  11.246  10.314   1.236  0.1865  0.0018 -0.0012
28416W        W44225   1.453   3.894  15.621  0.0991  0.0055 -0.1593
28417W        W44226   0.924  13.531   5.670 -0.2009  0.2296  0.2183
28418W        W44227  13.300  11.698  15.391  0.0031 -0.0255 -0.0590
28419W        W44228   0.823   8.457   2.791 -0.0258 -0.0165  0.0738
28420W        W44229   5.584  16.423  13.808 -0.0854  0.0669  0.2962
28421W        W44230   0.905  15.880  11.031 -0.2071  0.3288 -0.0188
28422W        W44231  15.937  14.745   5.003 -0.0694 -0.1453 -0.1273
28423W        W44232  11.821  18.399  11.818  0.2511 -0.0847 -0.1686
28424W        W44233  13.682   5.476   2.540 -0.1635  0.0680  0.2512
28425W        W44234   6.506   0.797  15.525  0.1751 -0.2737 -0.3571
28426W        W44235  11.192   9.826  12.583  0.0591 -0.1755 -0.1861
28427W        W44236  15.289   5.375   4.460 -0.1284  0.0427 -0.0698
28428W        W44237  16.521  14.850  14.396  0.0289  0.0427 -0.1423
28429W        W44238  13.903  14.123  10.809 -0.0131 -0.2285 -0.0653
28430W        W44239  14.676   3.913  15.390  0.2585 -0.2980 -0.0825
28431W        W44240  18.161  10.018   2.745 -0.0183  0.1128  0.0750
28432W        W44241  14.716   9.468   5.315 -0.0519 -0.2171 -0.2929
28433W        W44242   2.274  13.496  10.994 -0.0452  0.2493 -0.1209
28434W        W44243  14.040  14.609  12.858  0.3224 -0.1020 -0.1320
28435W        W44244   1.218   9.635  12.228  0.1688 -0.5817 -0.0794
28436W        W44245  10.678  15.880  14.146 -0.0649  0.2143  0.0345
28437W        W44246   0.891  17.177  15.360 -0.3188 -0.0619  0.2793
28438W        W44247  12.247   4.515  15.659  0.3417 -0.3220  0.1383
28439W        W44248  16.883   8.109   0.698  0.2359 -0.0359 -0.0304
28440W        W44249  12.892  18.369  14.212 -0.1824  0.2073  0.5079
28441W        W44250   5.899   8.522   0.955  0.0859 -0.0364  0.0782
28442W        W44251  16.105   1.714   4.367 -0.1372  0.2637 -0.0190
28443W        W44252  15.400  14.832  11.405  0.1943 -0.2977 -0.1669
28444W        W44253   5.782  15.676   3.967  0.0116 -0.1639  0.1696
28445W        W44254   1.898   2.268   0.408 -0.1916 -0.2386  0.4838
28446W        W44255   3.652  17.581  12.033 -0.0754 -0.0804  0.1598
28447W        W44256  13.102   0.651  14.395  0.3541 -0.0669 -0.3708
28448W        W44257   4.405  17.090  15.508  0.3430 -0.1679  0.2200
28449W        W44258   2.223  12.666  15.609 -0.0292  0.2019 -0.0344
28450W        W44259  16.039  15.052  12.106 -0.0159 -0.2149  0.2986
28451W        W44260  10.786  14.720  15.522  0.6756 -0.1656 -0.2551
28452W        W44261   8.190   0.712   5.299 -0.1965 -0.2055  0.2787
28453W        W44262   0.188   4.539   0.717  0.0013  0.0676  0.0287
28454W        W44263   8.006   4.994   1.789  0.1054 -0.0944 -0.1241
28455W        W44264  15.800  14.900  12.949 -0.1466  0.0156 -0.0887
28456W        W44265  10.175   6.545  14.625  0.0633  0.4615 -0.1311
28457W        W44266   1.670  11.500   2.494  0.3042 -0.3505  0.2187
28458W        W44267   0.605   9.468  11.453  0.0901 -0.1929 -0.1194
28459W        W44268   7.626  16.397  12.587  0.1446 -0.1573 -0.0780
28460W        W44269  18.346   1.842  11.130 -0.1079 -0.1304 -0.3660
28461W        W44270  15.117  14.029  11.614  0.0894 -0.2118  0.2817
28462W        W44271  15.506   6.235  14.421 -0.2081  0.0668 -0.2001
28463W        W44272   6.315  14.185   2.301 -0.0631  0.1502 -0.1795
28464W        W44273   8.746  17.496  13.368 -0.0878  0.1555 -0.0123
28465W        W44274  17.341   0.837  10.092  0.0428 -0.1438  0.1417
28466W        W44275   7.420   9.614   1.016  0.0417 -0.3015  0.0259
28467W        W44276  15.173   1.646  11.234  0.3203  0.0145 -0.4072
28468W        W44277   7.961   6.284   3.747  0.2082  0.4056  0.2860
28469W        W44278  14.825  14.955   2.357 -0.2326 -0.2283  0.0143
28470W        W44279  17.302   3.659   1.117  0.1474 -0.0622 -0.3519
28471W        W44280  16.337  11.115   4.229 -0.0112 -0.0353  0.0413
28472W        W44281   2.903   7.389   3.786 -0.1744 -0.2262 -0.1079
28473W        W44282  10.269   6.283  15.088  0.0442 -0.0244  0.2530
28474W        W44283   6.167  17.289   1.841 -0.0563 -0.0216 -0.1841
28475W        W44284   1.934  13.377  11.855 -0.0500 -0.0304  0.3210
28476W        W44285   6.839   1.128   3.895  0.1596  0.0667 -0.0632
28477W        W44286  16.207   2.842  14.998  0.1680 -0.1920 -0.1492
28478W        W44287  13.554   2.469  11.843 -0.0746 -0.0378  0.1106
28479W        W44288  14.779   8.560  11.059  0.1044 -0.0309 -0.2436
28480W        W44289   6.723  15.349  11.569 -0.3353 -0.3024 -0.2250
28481W        W44290   9.656  12.014   3.330 -0.0826  0.1895  0.1403
28482W        W44291  13.147   3.743  13.899 -0.1424 -0.3780 -0.0049
28483W        W44292  11.557  14.498   3.725  0.0713 -0.0300  0.1561
28484W        W44293  17.504   9.777   6.092  0.0379 -0.2515 -0.1179
28485W        W44294   9.842  16.376  15.110  0.1480  0.1351 -0.0427
28486W        W44295   2.931  14.290   5.199  0.0516 -0.2914 -0.1381
28487W        W44296   8.544  15.021  14.084  0.0815 -0.0265 -0.0908
28488W        W44297   4.998   6.927   4.073 -0.0025  0.2882 -0.3358
28489W        W44298  14.645  13.743  13.624  0.1226  0.0790  0.2977
28490W        W44299  17.950   1.783   0.581 -0.4036 -0.2524  0.0447
28491W        W44300   5.939   4.989   0.066 -0.1877 -0.2653  0.0197
28492W        W44301  16.633   8.508   3.893 -0.1452  0.0143 -0.2169
28493W        W44302   9.911   3.122  12.024  0.1391 -0.0812  0.0896
28494W        W44303  12.642   8.098  10.961 -0.0651 -0.0688  0.0538
28495W        W44304   1.224  10.760   2.810 -0.0252  0.1267  0.2479
28496W        W44305  13.104  17.683  15.531  0.1246  0.1508 -0.1884
28497W        W44306  17.953   8.920  12.006  0.4758  0.1824  0.2374
28498W        W44307  16.960   4.779   2.716 -0.0855  0.0415  0.1087
28499W        W44308   3.196   7.535  11.544  0.0655 -0.1138  0.2249
28500W        W44309   6.052  11.453   3.103  0.0687  0.1482  0.0925
28501W        W44310   3.718   4.216  15.427  0.2694  0.1792  0.1607
28502W        W44311  18.509  11.476   3.851  0.0577  0.0591  0.1251
28503W        W44312   0.321   5.139  13.451  0.0065 -0.0024 -0.1278
28504W        W44313  11.908   6.425  12.972  0.2259  0.3628 -0.3023
28505W        W44314   2.430   9.214  13.235  0.0411 -0.1085  0.1346
28506W        W44315  11.648   7.586  13.888 -0.1446  0.1154 -0.4608
28507W        W44316   8.904  10.171   2.722  0.0825 -0.0360  0.1078
28508W        W44317  18.514   5.888   3.749 -0.1459 -0.0373 -0.0421
28509W        W44318  10.181   6.007   1.785  0.0735  0.0131 -0.0765
28510W        W44319  12.491  10.047  13.930  0.2300  0.0958 -0.1001
28511W        W44320   5.711   6.253  14.849 -0.1632 -0.0590  0.1713
28512W        W44321   3.298   7.531  12.460 -0.0339  0.0350 -0.1177
28513W        W44322   5.963  10.929   3.058 -0.2802  0.0103 -0.1935
28514W        W44323  18.111  15.016   4.295 -0.1853 -0.0527  0.1852
28515W        W44324   1.256  17.649   0.838  0.0050  0.0163 -0.2687
28516W        W44325   5.456   5.096  12.541  0.1330  0.1026  0.0748
28517W        W44326   1.923   0.966   0.008  0.0939  0.1048 -0.1537
28518W        W44327  16.818   2.516   4.619  0.1465  0.0595 -0.1605
28519W        W44328  17.801  13.003   1.582 -0.0233  0.1253  0.0787
28520W        W44329   2.321   1.099   2.363  0.1901 -0.0172 -0.2029
28521W        W44330   4.289   9.170   2.124 -0.0283 -0.0823 -0.0458
28522W        W44331  11.771   3.643  13.862 -0.1818 -0.5208  0.1612
28523W        W44332   1.409  10.836   4.402  0.2201 -0.0678  0.1241
28524W        W44333  17.730  10.348   2.579  0.3021  0.1574 -0.2999
28525W        W44334   2.559  17.321  11.268 -0.0904 -0.2886 -0.2359
28526W        W44335  17.793  18.582  14.538  0.0368  0.0306 -0.3007
28527W        W44336  13.772  15.552   1.553  0.3289  0.0520  0.0328
28528W        W44337   2.193   6.052  13.606  0.3975 -0.0145 -0.3157
28529W        W44338  13.735   6.342  15.545 -0.1005 -0.0602 -0.1065
28530W        W44339   2.890   9.661  15.103  0.0812 -0.0495 -0.3728
28531W        W44340  15.868  10.514  13.882 -0.0818  0.0609  0.2345
28532W        W44341  14.959  12.556   3.288 -0.1815 -0.1582 -0.1245
28533W        W44342   9.387   6.700  13.866  0.1677 -0.0201 -0.0531
28534W        W44343  16.150  17.630  12.934  0.3807 -0.0473  0.1067
28535W        W44344  18.290   7.515   1.917 -0.0889  0.0176  0.3640
28536W        W44345   3.621  18.232  12.798  0.1414 -0.2329  0.1860
28537W        W44346   5.168  15.949  14.597  0.2585  0.1005  0.0905
28538W        W44347  13.212   1.978   3.094 -0.0073 -0.1007  0.0092
28539W        W44348  13.616   7.471   3.879  0.0680 -0.0596 -0.1760
28540W        W44349   6.954   9.954   1.127 -0.2505  0.1536 -0.2408
28541W        W44350  11.109  16.484  14.744  0.0647  0.2902 -0.0879
28542W        W44351   5.742  14.136  14.190  0.1363  0.4301  0.0320
28543W        W44352  10.306   0.810   0.305 -0.2246  0.1619 -0.0250
28544W        W44353  13.218   5.703   3.957 -0.0150 -0.0487  0.2107
28545W        W44354  17.220  13.484   0.815 -0.1258 -0.5220 -0.0309
28546W        W44355  18.102   3.344  12.298 -0.0798  0.1880 -0.1656
28547W        W44356   3.156  10.382   0.309  0.0181 -0.0823 -0.2452
28548W        W44357  15.614   7.001  11.476 -0.1349  0.0803 -0.1224
28549W        W44358  11.063  12.437  14.940  0.0258  0.2168 -0.0395
28550W        W44359   6.406   4.487   4.450  0.0830  0.0881  0.0776
28551W        W44360  16.492  15.454  12.011 -0.0381 -0.3391  0.2684
28552W        W44361   9.181   9.301  13.809  0.0065 -0.2390  0.2422
28553W        W44362   8.873  10.871   1.241 -0.1398 -0.2193  0.0337
28554W        W44363   6.497  13.361  10.301  0.0491 -0.0758  0.1982
28555W        W44364  10.017   4.004  13.817  0.0569 -0.0445  0.1878
28556W        W44365  18.660   4.790  12.419 -0.0190  0.4348 -0.0617
28557W        W44366  13.531   2.444   0.054 -0.0485  0.1760  0.0332
28558W        W44367   3.934   2.633  14.552  0.4427 -0.1541  0.0729
28559W        W44368  16.994   9.488   4.670 -0.0343  0.1137 -0.4379
28560W        W44369  13.642  18.034   3.368  0.2080 -0.1905  0.2866
28561W        W44370  11.030  11.181  15.179 -0.1006  0.3754  0.0075
28562W        W44371   4.156   6.387   0.893 -0.0377 -0.0467 -0.1461
28563W        W44372  13.136  14.964   5.465  0.0505  0.0848 -0.1235
28564W        W44373  14.615  18.002  13.980 -0.1473 -0.5342  0.1713
28565W        W44374   3.547  16.474   3.703 -0.1991  0.1605 -0.1777
28566W        W44375  13.053  10.580  14.189  0.0430  0.0627  0.2098
28567W        W44376  15.683   1.142   1.665 -0.2616  0.2124  0.0495
28568W        W44377   8.802  14.671  13.789 -0.0800 -0.1255 -0.1583
28569W        W44378   6.923   1.621   4.862 -0.2038  0.1786 -0.3020
28570W        W44379  11.497  13.597  15.605 -0.1413 -0.1443  0.0821
28571W        W44380   3.549  11.389  15.454  0.0338  0.0012 -0.0810
28572W        W44381   8.602   1.703   9.666  0.0406  0.0456  0.0637
28573W        W44382   0.797  10.507  14.470 -0.1725  0.0933  0.3371
28574W        W44383   2.996   4.903  14.593 -0.1358  0.0452  0.4331
28575W        W44384  15.606   1.956  12.916 -0.3029 -0.0348 -0.0321
28576W        W44385   3.514   5.751  11.405 -0.2190  0.1284 -0.2004
28577W        W44386  18.640   8.222   5.221 -0.3858  0.1000  0.0055
28578W        W44387   6.378  15.239  11.209 -0.1584 -0.0523  0.3818
28579W        W44388  16.755   9.261  11.295 -0.1232 -0.2102 -0.0019
28580W        W44389  16.685  13.652   9.623 -0.2092  0.3210 -0.0151
28581W        W44390   5.393   3.914   3.888  0.1939 -0.0228  0.0793
28582W        W44391   9.671  16.047  13.100 -0.0706  0.1418 -0.0161
28583W        W44392   9.110   4.354  11.266 -0.0298 -0.3661 -0.1646
28584W        W44393   2.398   9.660   0.181 -0.1787 -0.1364 -0.0287
28585W        W44394   1.360   0.464  12.799  0.3226  0.1189  0.0764
28586W        W44395  15.053   4.330   3.671  0.2262 -0.1068 -0.3943
28587W        W44396  17.776   5.208  13.830 -0.0628  0.0181 -0.1275
28588W        W44397   3.913  18.004  13.704 -0.5877  0.0100  0.0925
28589W        W44398   6.701   9.821   0.459  0.2063  0.2031 -0.1361
28590W        W44399   5.223  16.019  11.239 -0.0013  0.1680  0.0212
28591W        W44400  18.281   3.258  12.756 -0.0254 -0.2436  0.1156
28592W        W44401   7.243   2.719  12.399 -0.3755  0.2422  0.0114
28593W        W44402  13.054  12.554   5.435  0.0916 -0.0658 -0.3168
28594W        W44403  17.156   7.331   2.332 -0.1722  0.3082 -0.2042
28595W        W44404  12.501  10.463   5.143 -0.0845 -0.0904 -0.1571
28596W        W44405  16.788  15.438   1.012  0.2247 -0.2566  0.1682
28597W        W44406   9.454  16.600   5.164  0.0139 -0.3089  0.3358
28598W        W44407   7.735   1.369  11.722  0.1179 -0.0182  0.2941
28599W        W44408  14.722   9.022  10.060 -0.1694  0.0050  0.0808
28600W        W44409   4.449   1.124   2.876 -0.3142 -0.1748  0.2365
28601W        W44410   0.072   6.257   5.234 -0.1213 -0.2539  0.1520
28602W        W44411   7.658  15.198  13.478  0.1226 -0.0559 -0.2137
28603W        W44412   9.724  14.002   9.673  0.3464 -0.0408 -0.4848
28604W        W44413  15.133  13.406  13.004 -0.1334 -0.2628  0.0415
28605W        W44414  14.445   8.750  12.084  0.2122 -0.1562  0.0536
28606W        W44415   7.894   7.721   2.413  0.1330 -0.0508  0.2634
28607W        W44416   0.434  14.655   1.788  0.0173 -0.3042 -0.1299
28608W        W44417  10.084  15.544  14.409 -0.1703 -0.0974  0.2385
28609W        W44418   9.995   6.260   5.175 -0.1531  0.2181  0.2870
28610W        W44419  12.980  13.016   3.957 -0.1561 -0.1638 -0.1164
28611W        W44420  13.499   0.853  14.182  0.3090  0.1467 -0.0950
28612W        W44421   9.595  15.278   2.177 -0.5014  0.0666 -0.0767
28613W        W44422   1.722   0.459   3.457 -0.1728 -0.0424  0.0573
28614W        W44423  15.092  16.474  11.955  0.1648 -0.3738  0.1240
28615W        W44424   5.331   9.919   2.130  0.0788  0.3171  0.1702
28616W        W44425  12.130   3.104   2.378  0.1835  0.2236  0.0352
28617W        W44426   2.111   3.333   3.652  0.1473 -0.0250 -0.2147
28618W        W44427  11.658  10.451  13.667 -0.2162 -0.2564  0.1123
28619W        W44428  11.470   5.854  13.803 -0.2690 -0.2844 -0.1652
28620W        W44429   3.815   1.891   1.800 -0.2056 -0.1163 -0.0537
28621W        W44430   6.934   6.577   0.110 -0.1053  0.1896  0.0976
28622W        W44431  14.869   7.129   2.241 -0.2363  0.1528  0.2582
28623W        W44432  15.169   8.680   0.919  0.0300 -0.3052 -0.0549
28624W        W44433  17.621   6.414  12.488  0.0768 -0.1652 -0.1995
28625W        W44434   4.235  13.879   5.122 -0.3955 -0.0459  0.3137
28626W        W44435   9.260   4.139   5.428 -0.1007 -0.0960 -0.0450
28627W        W44436  12.302   3.655   1.945  0.0962 -0.0400  0.2356
28628W        W44437  17.206   5.479  11.140 -0.1517 -0.0745 -0.2484
28629W        W44438  10.549   4.877   0.113  0.0364 -0.1247  0.1332
28630W        W44439   1.235   9.055  12.315  0.1348  0.0383  0.0921
28631W        W44440  12.556  15.542  12.865 -0.0450  0.1065 -0.2039
28632W        W44441  17.321  15.170   5.032 -0.1911 -0.1285  0.2004
28633W        W44442   8.419  11.057   4.037  0.3757 -0.2541  0.1798
28634W        W44443   8.094   5.438   4.179  0.0074  0.2201 -0.0825
28635W        W44444  17.447  16.588  11.774 -0.0906 -0.2755  0.2853
28636W        W44445   8.662  14.269  13.317  0.0363 -0.0661 -0.0543
28637W        W44446   4.552  16.592  14.881  0.2100 -0.0584  0.0304
28638W        W44447   9.676   4.209   0.154 -0.0565 -0.0512 -0.2513
28639W        W44448   6.275   7.715   1.719 -0.0140  0.2425 -0.0791
28640W        W44449   9.862  17.333  12.782 -0.0030 -0.0017  0.0782
28641W        W44450   9.436   1.915  14.323 -0.0855  0.3053  0.1188
28642W        W44451   6.070  16.338   2.292  0.2304  0.1863 -0.0307
28643W        W44452  17.709   6.359   3.744 -0.0325  0.2631  0.0652
28644W        W44453   2.650  16.351  11.090 -0.2079  0.0665 -0.1157
28645W        W44454  11.080   5.124  11.289  0.2035 -0.0596 -0.1601
28646W        W44455   6.856   2.298  12.134 -0.0258 -0.2695 -0.3430
28647W        W44456   9.014   8.252   0.312 -0.2202  0.1913 -0.0916
28648W        W44457  15.951   8.372  12.594  0.1180  0.2494  0.2347
28649W        W44458   5.287   4.749  14.058 -0.2558  0.1804 -0.2557
28650W        W44459  10.138   9.357   5.829  0.1000  0.0833  0.1028
28651W        W44460   0.160  11.418   5.295  0.1871  0.1847  0.2967
28652W        W44461  15.702  14.570   4.526  0.0515 -0.1200  0.0738
28653W        W44462   2.721  10.655   5.463 -0.2149 -0.1893 -0.2571
28654W        W44463   1.594   7.585  12.944  0.0070  0.0845 -0.1079
28655W        W44464   9.430   2.061  15.473 -0.1412 -0.1568 -0.1955
28656W        W44465  11.231   9.842  15.579 -0.1884 -0.3508 -0.0720
28657W        W44466   7.914   9.616  14.778  0.0165  0.3001 -0.2912
28658W        W44467   7.720   0.371  14.476  0.0018 -0.0300 -0.1383
28659W        W44468   8.014   2.829   0.193 -0.2277 -0.0040  0.1183
28660W        W44469   8.846   8.756   5.774  0.0125  0.2028 -0.0100
28661W        W44470   1.244   4.842   3.360  0.0004 -0.3654 -0.5423
28662W        W44471   7.337   0.164  15.280  0.2229 -0.1452  0.2836
28663W        W44472  15.062   5.800  13.399  0.2469 -0.0696  0.0564
28664W        W44473  13.596  17.683   1.360 -0.2027 -0.0873 -0.1830
28665W        W44474   9.711   6.043  12.813 -0.0852 -0.0562  0.0451
28666W        W44475  13.260   6.291   3.785 -0.1078 -0.2071 -0.1022
28667W        W44476  15.609  14.048   0.381 -0.0303 -0.1483  0.1038
28668W        W44477   5.307   6.443   1.115 -0.2621 -0.1602  0.0723
28669W        W44478  16.595  15.773   3.186 -0.0313  0.0399  0.0218
28670W        W44479   1.092   3.411   0.780 -0.2233 -0.5208  0.2392
28671W        W44480   0.717   9.455  14.194 -0.0327  0.0272 -0.1248
28672W        W44481  14.584   4.772  15.135  0.2543 -0.0825 -0.0280
28673W        W44482  17.930  13.749  15.080 -0.0562 -0.2134 -0.0368
28674W        W44483  15.445  15.066   4.553 -0.0069  0.0154  0.3398
28675W        W44484   9.897  11.074   4.867  0.0818  0.0371 -0.2686
28676W        W44485  18.096   0.882   4.459  0.3739 -0.2070 -0.0432
28677W        W44486  14.068   8.788   3.244 -0.1519  0.3060 -0.0522
28678W        W44487  16.499  11.238  13.916 -0.1043  0.0297  0.1693
28679W        W44488   4.042   5.786  11.326  0.2036 -0.1341 -0.2737
28680W        W44489   1.076   6.819   0.400 -0.1587  0.1054  0.0245
28681W        W44490   4.874  17.493   1.258  0.0154  0.0463 -0.3175
28682W        W44491  11.333  16.594  12.810 -0.1265 -0.1818 -0.0160
28683W        W44492  17.297  14.020   0.564 -0.0176 -0.3620  0.0536
28684W        W44493  10.469   8.305   3.339  0.4399 -0.2680 -0.1760
28685W        W44494   5.676  10.095   1.827 -0.1197 -0.0400  0.1408
28686W        W44495   9.090  11.206   0.885 -0.0417 -0.0488 -0.2048
28687W        W44496   2.288  15.483   3.735  0.0671 -0.2192  0.1846
28688W        W44497   0.411   1.990   2.605  0.2677 -0.1839 -0.3128
28689W        W44498   9.148   4.443  14.031 -0.0910  0.2104 -0.1439
28690W        W44499   5.071   0.145   4.740  0.1664 -0.0660  0.0124
28691W        W44500  12.714  10.293  10.708  0.1162 -0.0008 -0.0874
28692W        W44501  12.548  10.884   0.149 -0.2787 -0.0578 -0.1833
28693W        W44502   9.990  11.272  11.611  0.0278  0.1319  0.3252
28694W        W44503  16.211  14.540   3.453  0.0063 -0.2941 -0.0814
28695W        W44504   0.957  16.062   0.341  0.3091 -0.2944 -0.2544
28696W        W44505  14.867   1.580   1.290  0.0241 -0.0105 -0.1221
28697W        W44506  15.024   9.375  13.147 -0.0104 -0.2009  0.3371
28698W        W44507  18.283  15.751  11.605  0.1396  0.0020  0.0568
28699W        W44508   0.881  16.977   2.938  0.4064  0.2109 -0.1923
28700W        W44509   5.220   2.979   1.514 -0.4763 -0.0971  0.0411
28701W        W44510  13.549   0.438  14.449 -0.1079  0.0988  0.1637
28702W        W44511   8.961  16.445  13.909  0.0904 -0.1214 -0.0575
28703W        W44512  15.880  12.393  13.436  0.1632  0.1078  0.1800
28704W        W44513   0.915   8.250   3.934 -0.0583 -0.0977  0.0455
28705W        W44514   8.072  10.167  13.784 -0.1030  0.0890  0.1735
28706W        W44515  17.291  15.484  11.708 -0.2042 -0.0545  0.2166
28707W        W44516   5.857  11.178  14.368  0.3529  0.2331  0.2572
28708W        W44517   8.981   0.770  12.643 -0.1714 -0.3000  0.3692
28709W        W44518   8.974  14.820   2.707  0.2922  0.1449  0.3030
28710W        W44519  16.887  17.446   3.445  0.0554 -0.1940  0.1787
28711W        W44520   6.445  12.812   1.641 -0.0253  0.1791 -0.0238
28712W        W44521  18.538   3.073  13.753 -0.0734 -0.1181  0.0079
28713W        W44522  10.855   6.784   2.733 -0.3750 -0.1814 -0.2631
28714W        W44523   1.881  12.468  12.281 -0.2449  0.0395  0.0627
28715W        W44524   8.701   7.517   5.185 -0.0641  0.0935 -0.2265
28716W        W44525   9.655  12.902  14.877  0.0809 -0.0150 -0.2744
28717W        W44526  13.802  16.313  15.040 -0.4088 -0.0324  0.1322
28718W        W44527  17.037   6.777   2.433  0.1865 -0.0734 -0.2078
28719W        W44528  10.340  18.237  11.255  0.3930 -0.0569  0.3185
28720W        W44529   2.684  13.919  15.098  0.2624  0.3694  0.0630
28721W        W44530   7.047  13.249  13.792  0.0415 -0.1002  0.0009
28722W        W44531   7.610  13.865  13.462  0.0569 -0.3185 -0.2288
28723W        W44532   0.467  14.418   5.507 -0.3002  0.2198  0.0669
28724W        W44533   1.336   7.178  14.200  0.1278  0.1595 -0.0618
28725W        W44534  12.957   2.884   3.655 -0.3796  0.2223  0.1423
28726W        W44535   0.248   0.674   2.190  0.4609  0.1535  0.0473
28727W        W44536  13.737   6.209   4.483  0.1080  0.3301 -0.0347
28728W        W44537   1.439  18.096  12.004 -0.2489  0.0011  0.3433
28729W        W44538   0.894  12.378   0.202 -0.0257  0.2114  0.0185
28730W        W44539   6.261   9.363   1.359  0.1875 -0.0564 -0.2325
28731W        W44540  12.426   6.311  12.238  0.1924 -0.2099  0.2291
28732W        W44541  13.256   3.409   3.869 -0.1124 -0.0158 -0.0209
28733W        W44542  18.389  14.971  15.584  0.0441 -0.2386 -0.1876
28734W        W44543  18.509   6.011  13.804  0.0290  0.3222  0.2890
28735W        W44544   2.645  11.749  15.673 -0.1272 -0.3116 -0.0091
28736W        W44545   0.692  15.962  15.098  0.1440  0.1987 -0.1679
28737W        W44546   7.479   9.915   6.001 -0.1377 -0.3414 -0.0336
28738W        W44547   8.107  14.799  15.541 -0.1793 -0.0096  0.2074
28739W        W44548   8.969  13.618   2.423 -0.0495  0.3225 -0.3660
28740W        W44549  15.342   6.177   0.417  0.3087  0.0228  0.3480
28741W        W44550   6.995   4.851   4.785  0.1354 -0.0262  0.4978
28742W        W44551   2.544  15.198   0.814  0.1867 -0.2849 -0.3081
28743W        W44552   0.001   1.674  13.157 -0.2740 -0.1900  0.1676
28744W        W44553  11.646   3.121   2.561 -0.1718 -0.0847 -0.1411
28745W        W44554  12.569  10.728  14.920  0.0334 -0.0238 -0.0856
28746W        W44555   4.006   1.460  15.081 -0.0879 -0.0755  0.1422
28747W        W44556   5.446  11.559   5.262 -0.1297 -0.0013  0.0030
28748W        W44557   7.962   9.928  15.671 -0.1195  0.0723  0.2988
28749W        W44558  14.312   3.911  10.767  0.0533 -0.0298 -0.0765
28750W        W44559  13.555  11.718  13.755  0.3204  0.0883  0.1245
28751W        W44560   7.060   5.239  14.549  0.0929  0.1443  0.0479
28752W        W44561  10.494  11.617   0.348  0.2300  0.0473  0.0553
28753W        W44562   9.421   4.957   1.156  0.1784 -0.0269  0.0672
28754W        W44563   1.131  18.567   2.232 -0.0557  0.2724  0.1011
28755W        W44564  16.511  18.616  12.591 -0.1498 -0.0768 -0.3388
28756W        W44565  13.810   4.061   5.788 -0.1840  0.0276  0.0067
28757W        W44566   8.972   9.060  15.071  0.0137  0.0591 -0.0776
28758W        W44567   3.571  13.000   2.061 -0.1072 -0.0311  0.1437
28759W        W44568   6.085   3.783   0.657  0.0786 -0.2790  0.3999
28760W        W44569   5.189  16.402  10.778 -0.1856 -0.1721  0.2758
28761W        W44570  15.065  18.425  13.298 -0.0727  0.3555 -0.1161
28762W        W44571   6.741  18.609  13.518  0.0642 -0.2903 -0.0605
28763W        W44572   5.049  10.791  11.498 -0.0119 -0.2310  0.0019
28764W        W44573  16.345  18.629   1.661 -0.0411 -0.0511  0.1743
28765W        W44574   6.517  11.239   4.264 -0.1503  0.0054 -0.1120
28766W        W44575  17.185   2.422  13.518 -0.0143 -0.0398  0.1159
28767W        W44576   1.882   2.546  15.200 -0.0197 -0.1338  0.1204
28768W        W44577  11.066   5.611  10.728  0.1331 -0.0897  0.1609
28769W        W44578   4.613  12.168   0.685 -0.2321 -0.0819 -0.0970
28770W        W44579   2.006  18.510   4.158 -0.3487  0.0112  0.1784
28771W        W44580  11.200   3.367   1.061  0.3417 -0.0541 -0.0033
28772W        W44581   5.655  12.619  11.713 -0.3153 -0.1814 -0.3626
28773W        W44582  11.858  11.364   4.283  0.0209 -0.1504  0.0417
28774W        W44583   2.065  17.730  14.758  0.2410 -0.1004 -0.2786
28775W        W44584  11.454   8.806   1.570 -0.0487  0.0214  0.2417
28776W        W44585  13.194   8.360   5.331  0.0667  0.0407  0.0328
28777W        W44586   5.792  15.506   0.740  0.1154 -0.1503 -0.3250
28778W        W44587   6.164   8.255   4.694  0.0373  0.0277 -0.0703
28779W        W44588   4.613  11.029   4.651  0.0308 -0.0927 -0.2990
28780W        W44589   3.096   4.809  13.699 -0.2114 -0.1559 -0.2630
28781W        W44590  16.204   8.728  13.077 -0.0031 -0.1801 -0.0883
28782W        W44591   8.851   0.865   2.677 -0.0236 -0.1377  0.3005
28783W        W44592   7.455   8.457   4.602 -0.1602 -0.0047 -0.1680
28784W        W44593  11.273  10.263   0.717 -0.2161 -0.1089 -0.0832
28785W        W44594   7.161   6.587   2.035  0.1291 -0.0123  0.0519
28786W        W44595  17.960   1.778  11.727 -0.1714 -0.1785 -0.0494
28787W        W44596   8.658  15.228  12.496 -0.1316 -0.1071 -0.0867
28788W        W44597  17.709  12.093   3.921 -0.0876 -0.2137  0.0304
28789W        W44598  13.305   0.492  10.635  0.0648 -0.1122 -0.1893
28790W        W44599   2.210   1.000  11.881 -0.0329  0.0085 -0.0226
28791W        W44600   7.443   3.969   2.492 -0.1839 -0.0779 -0.0955
28792W        W44601   1.034  15.086  12.339  0.2743 -0.1030  0.1086
28793W        W44602   9.775  12.100  13.724  0.0879  0.0989  0.1489
28794W        W44603  12.318   0.416   0.102  0.0144 -0.2635  0.0344
28795W        W44604   1.596   9.310  12.179  0.0702 -0.0143 -0.1266
28796W        W44605   9.774  11.019  12.852  0.0538  0.0731  0.1068
28797W        W44606  10.810  10.499  10.732  0.0828 -0.0185 -0.1665
28798W        W44607   7.509   4.623   0.501  0.1040  0.0982  0.2884
28799W        W44608  15.865   1.960   1.970  0.0462 -0.0055 -0.1429
28800W        W44609   3.641  17.133  13.302  0.0344  0.0346 -0.0858
28801W        W44610   1.190  13.056  13.757  0.2090  0.2645  0.1831
28802W        W44611   4.276  11.440  11.290  0.0604  0.0662  0.1628
28803W        W44612   1.693  13.349  14.628 -0.0716 -0.1401  0.0715
28804W        W44613  13.408   8.182   4.186 -0.1600  0.2194 -0.2218
28805W        W44614   3.253   7.479   5.121 -0.2173  0.0335 -0.2079
28806W        W44615   7.981  12.520  11.490 -0.0407  0.2004 -0.0519
28807W        W44616   0.829   5.583  11.253 -0.0940 -0.2143  0.0925
28808W        W44617   0.888  11.065   1.929 -0.2862  0.1343  0.0100
28809W        W44618  12.410   9.758   1.752  0.3262  0.0277  0.1033
28810W        W44619   5.137   0.533  12.255  0.1119 -0.1556  0.0699
28811W        W44620  17.888   0.240   0.644  0.0203  0.0765  0.1616
28812W        W44621   7.435  12.175   1.925  0.1920  0.0757 -0.0049
28813W        W44622   0.215   9.127   0.584 -0.2848  0.2707 -0.1277
28814W        W44623   5.761  16.129   1.972  0.3213 -0.2012 -0.1546
28815W        W44624  11.678  15.432   3.487  0.2678  0.0383  0.2147
28816W        W44625   2.868   2.506   1.666  0.0373 -0.0537 -0.2776
28817W        W44626  14.870   3.819   3.497  0.0825 -0.3003 -0.0634
28818W        W44627   3.038   8.452  12.861  0.0203  0.0234 -0.1561
28819W        W44628   6.728  14.193  15.248  0.0147 -0.0180 -0.0690
28820W        W44629  17.276   5.146   3.733  0.0296 -0.1048  0.3061
28821W        W44630  15.104   1.516  10.399  0.2453  0.1615  0.0973
28822W        W44631   9.102   1.129  10.204 -0.2231  0.2533 -0.2400
28823W        W44632  13.674   1.192  13.378  0.3269  0.0011  0.1700
28824W        W44633   1.943  10.677  10.431 -0.0879 -0.3588 -0.0752
28825W        W44634   0.889   7.181   2.755  0.1829 -0.1801  0.2456
28826W        W44635  18.122  11.097   2.672  0.2297 -0.3072 -0.2310
28827W        W44636  17.566  13.399  11.663  0.2847  0.1280 -0.0242
28828W        W44637  11.624  10.869  11.143 -0.0341 -0.2260 -0.2637
28829W        W44638  15.323   7.157   3.691  0.0810 -0.1796 -0.0134
28830W        W44639   5.021   0.596   3.677  0.0103 -0.2099 -0.2122
28831W        W44640  10.470  13.882  14.705 -0.0730 -0.2039  0.0938
28832W        W44641   2.153   3.477   5.026 -0.2376 -0.1747 -0.0845
28833W        W44642  18.596  18.054   1.860 -0.1158 -0.0073 -0.0699
28834W        W44643   4.928  16.001  14.123  0.1743  0.1906 -0.0201
28835W        W44644  17.286  13.054  15.402  0.0826  0.3358 -0.1819
28836W        W44645   8.540   8.023  10.867  0.0329 -0.1144  0.3158
28837W        W44646   2.164  14.758  14.294 -0.3508  0.0641  0.1536
28838W        W44647   9.375   2.005  10.873  0.2291 -0.3432  0.2803
28839W        W44648  12.381  10.565   4.415  0.0870  0.2848 -0.2391
28840W        W44649   2.139   5.942  11.657 -0.0678  0.3339  0.1430
28841W        W44650   2.128   1.373   4.626  0.3290 -0.0196 -0.2904
28842W        W44651   5.912   6.488   3.130 -0.3542 -0.1148  0.0371
28843W        W44652  12.822   0.810  10.909 -0.0855  0.1118  0.1110
28844W        W44653   9.128   6.444   4.744 -0.3490 -0.0673 -0.3135
28845W        W44654  14.975   2.118  10.489  0.0848  0.1346  0.2428
28846W        W44655  10.803  10.176   5.960 -0.1403 -0.1568 -0.1968
28847W        W44656   7.732  12.643   2.245  0.3243 -0.0607  0.0824
28848W        W44657   0.341   0.777   0.242  0.2472 -0.1888  0.1702
28849W        W44658  12.555   0.598  13.196  0.0881  0.1905  0.4979
28850W        W44659   1.481  17.049  13.793 -0.2178 -0.1950 -0.0639
28851W        W44660  15.573   6.680   1.650  0.1017  0.1715  0.1106
28852W        W44661   9.664  15.672   2.577  0.2387  0.0731 -0.1485
28853W        W44662  10.735   8.829   1.013  0.0432  0.2823  0.1493
28854W        W44663  15.283  14.460  15.552 -0.1830  0.3362  0.0612
28855W        W44664  17.593  10.080  13.286 -0.0224 -0.0354  0.1622
28856W        W44665  13.562   2.629   1.741 -0.0864 -0.0479  0.0506
28857W        W44666   0.001  14.390   4.057 -0.2137 -0.2193  0.2228
28858W        W44667  15.603   3.493   4.222  0.4347 -0.2613  0.0600
28859W        W44668   9.724  13.308   4.140 -0.1067  0.0047  0.3204
28860W        W44669  14.467  12.290  15.358 -0.3644 -0.2440  0.2091
28861W        W44670   0.391   3.969   4.915  0.2135  0.0276  0.0650
28862W        W44671   3.522   8.222   1.021 -0.0631  0.1126 -0.0126
28863W        W44672   8.076  18.558   3.833  0.2153 -0.1346 -0.0808
28864W        W44673   8.199   7.320   2.358  0.1854 -0.3205 -0.2184
28865W        W44674   5.692   7.024   1.335  0.3233  0.1013  0.0246
28866W        W44675   0.002  16.920  13.849  0.1614  0.2159  0.0259
28867W        W44676   8.077  13.291   4.729  0.1619  0.0033 -0.1980
28868W        W44677  16.884   2.607  14.342  0.0913  0.1834  0.0903
28869W        W44678   0.863   7.783  13.321  0.0466  0.1246 -0.0366
28870W        W44679   5.625   8.756  12.865  0.2615  0.1321  0.0848
28871W        W44680  17.382  10.521  14.983  0.1026  0.2036 -0.3751
28872W        W44681  18.013  15.756   2.859  0.5551  0.0168 -0.3138
28873W        W44682  17.044  10.582  12.499  0.1769  0.0129 -0.0547
28874W        W44683   5.492   1.356  12.732 -0.0005  0.2268 -0.1777
28875W        W44684   4.780   6.335   5.755 -0.2193  0.0845  0.3373
28876W        W44685   3.596  17.908  10.982  0.1966 -0.0586  0.0932
28877W        W44686  12.295  18.413   0.609  0.3018  0.1815 -0.3149
28878W        W44687  15.946  18.140   2.848 -0.2671 -0.2728 -0.2904
28879W        W44688  10.930   6.774  14.006 -0.0850 -0.0139  0.0785
28880W        W44689  16.266  11.805  14.641  0.0891  0.1825 -0.2124
28881W        W44690   1.982   9.119  13.577  0.2464 -0.0479  0.0710
28882W        W44691   0.287  12.225   2.803  0.1159  0.1858 -0.2172
28883W        W44692  15.475   7.321   4.212  0.0636 -0.0099  0.3525
28884W        W44693   6.668  14.498   1.801  0.0390 -0.0222 -0.0160
28885W        W44694   0.338  11.219  13.141  0.3277  0.2080  0.1881
28886W        W44695   7.176  16.197  13.765  0.1305  0.1312  0.0064
28887W        W44696   5.764  16.420   3.864 -0.0665 -0.0427 -0.1526
28888W        W44697   4.895   7.485   1.088  0.0531  0.1252  0.0652
28889W        W44698   5.688   7.554   5.143 -0.1558 -0.0107  0.0367
28890W        W44699  10.367   3.968   0.743 -0.1796 -0.1743 -0.2489
28891W        W44700  18.491   2.074   5.175 -0.1653  0.2215  0.1635
28892W        W44701  11.222  13.616   3.007  0.1583  0.1103 -0.0374
28893W        W44702  15.202   4.466   1.056  0.0564  0.4690 -0.0008
28894W        W44703   4.183   0.645  11.348 -0.3980  0.2761  0.0138
28895W        W44704   5.641  15.284   4.343 -0.1320 -0.0076  0.1217
28896W        W44705   0.875   0.704  10.086 -0.0576  0.0186 -0.1402
28897W        W44706  16.096  14.199  15.152  0.1665 -0.2046 -0.0830
28898W        W44707   0.657   8.774   3.621  0.0730 -0.2146  0.2465
28899W        W44708  17.788   2.359  11.815 -0.0267  0.2316 -0.4207
28900W        W44709  13.444   1.517  12.005  0.1124  0.0751  0.0086
28901W        W44710  15.374   3.994   3.335 -0.2918 -0.1313  0.0014
28902W        W44711   5.147  15.405   4.394 -0.2474  0.1557 -0.2269
28903W        W44712  14.525   1.913  10.392  0.1229 -0.2225 -0.2227
28904W        W44713   2.632  10.432  12.961  0.4476 -0.4810 -0.1233
28905W        W44714  16.630  17.775  12.655  0.0046 -0.2730 -0.1541
28906W        W44715   2.357   0.141   5.408  0.3584  0.3115 -0.0424
28907W        W44716  16.548   2.046   3.933  0.2268  0.1361 -0.0282
28908W        W44717   7.605  14.576  12.374  0.0047 -0.1163 -0.2485
28909W        W44718   3.425  15.660  13.206  0.1170  0.2502 -0.2531
28910W        W44719   1.526  14.505   4.872  0.1808 -0.1902  0.1255
28911W        W44720   9.178   2.865  14.336  0.1978  0.0070  0.2066
28912W        W44721  10.644   9.648   9.699  0.0009  0.2490  0.2149
28913W        W44722  15.816  16.233  12.018 -0.0682  0.0573  0.0374
28914W        W44723   7.104   0.086  13.898 -0.0257 -0.0121 -0.1917
28915W        W44724   0.284   1.100   5.441  0.0237 -0.1956 -0.0596
28916W        W44725  13.858   9.232   2.258 -0.1019  0.4242 -0.1227
28917W        W44726  14.824  11.558   1.176  0.2643  0.1342  0.0335
28918W        W44727  12.948   4.124   2.384 -0.2926 -0.0535  0.3027
28919W        W44728   4.694  11.619  12.643  0.2101 -0.1692  0.1675
28920W        W44729   5.805   0.352  12.087  0.1031  0.1403 -0.2329
28921W        W44730  10.403   3.997   3.747  0.0624  0.1346  0.0101
28922W        W44731  15.808  12.455   4.660 -0.0831 -0.1495  0.0632
28923W        W44732  15.727   9.410   0.516 -0.0062 -0.0433  0.2764
28924W        W44733   6.253  12.567   3.860 -0.1327  0.4351 -0.3644
28925W        W44734  12.257   7.380   4.980 -0.0179 -0.1264  0.0798
28926W        W44735  18.178  11.444  13.685 -0.3385  0.0981  0.0099
28927W        W44736  18.580   9.400   2.715  0.2530 -0.2056 -0.2365
28928W        W44737  10.044  16.492  14.659  0.0065  0.1113 -0.3726
28929W        W44738  16.849  10.036   4.022 -0.1729  0.3986  0.0106
28930W        W44739   1.843   9.820  13.220 -0.1403 -0.3445 -0.1399
28931W        W44740   0.651  14.041  14.058 -0.1055 -0.0243  0.0074
28932W        W44741  18.479   4.988  14.783 -0.2831 -0.3770 -0.3181
28933W        W44742  11.599  11.001   0.764  0.0555 -0.3560 -0.0190
28934W        W44743   0.189   1.999  12.212  0.3198  0.1612  0.2610
28935W        W44744  17.257   6.095  10.632  0.0079  0.1114 -0.1146
28936W        W44745  11.031   4.511   2.536  0.1923 -0.2467  0.1165
28937W        W44746   6.035  18.484  11.915 -0.1445  0.2923  0.0480
28938W        W44747  11.080   9.429  15.265  0.1917  0.1227 -0.3269
28939W        W44748  16.724   9.136   2.015  0.1176  0.0757  0.0424
28940W        W44749  18.202   1.363   0.382  0.1325  0.1148  0.0292
28941W        W44750  10.382   5.720   0.781 -0.0259 -0.0111 -0.1815
28942W        W44751   3.476  12.564   2.871 -0.0438  0.2805 -0.1168
28943W        W44752  10.526  11.042   2.990 -0.1824 -0.1123  0.2875
28944W        W44753  11.618  11.214   3.485  0.0429 -0.3047 -0.1014
28945W        W44754  18.530  17.209   2.637 -0.0124  0.2537  0.0968
28946W        W44755   4.240   0.438  12.498  0.2305  0.0646 -0.1577
28947W        W44756   8.606   5.553   3.281 -0.0557 -0.1111  0.2969
28948W        W44757   2.875  15.665  12.418  0.0132 -0.2769 -0.1051
28949W        W44758   1.043  10.131  12.489  0.0840 -0.1832  0.3392
28950W        W44759   4.875  12.667  10.994 -0.1925 -0.2108  0.0954
28951W        W44760   9.455   8.041  13.568 -0.2920 -0.0907 -0.0640
28952W        W44761   8.904  17.458  12.244 -0.0176 -0.2257  0.1212
28953W        W44762   4.725   1.822  14.374  0.2455  0.0432 -0.0736
28954W        W44763  16.353   9.619  11.375 -0.1530  0.1592 -0.0878
28955W        W44764  10.191   2.618  14.302 -0.0680 -0.1233  0.3013
28956W        W44765   8.573   3.168   3.098  0.0488  0.0558  0.2313
28957W        W44766  14.444  11.855   4.161  0.1549  0.0612 -0.2023
28958W        W44767  13.670  14.372  12.524 -0.0273  0.1283 -0.0835
28959W        W44768   5.328  10.400   3.783 -0.1457  0.2916  0.3496
28960W        W44769   1.549  16.916  10.891 -0.2854 -0.0508 -0.2051
28961W        W44770   5.431  12.865   1.711  0.0279 -0.3401  0.1226
28962W        W44771   8.566  17.874   0.757 -0.1819  0.2406  0.1829
28963W        W44772   0.865   9.047  11.501  0.0114  0.1820 -0.1587
28964W        W44773   3.619   6.947   4.195  0.4181 -0.3436  0.2758
28965W        W44774  14.242  17.261  12.583  0.1359 -0.0755  0.0701
28966W        W44775  10.970  18.502  14.307 -0.1114  0.0497 -0.3149
28967W        W44776  10.104   9.753  14.048  0.1084  0.3042 -0.0831
28968W        W44777   3.843   7.542  12.718 -0.1254 -0.1171 -0.1203
28969W        W44778  14.587   8.560  13.914  0.2582  0.1613  0.1433
28970W        W44779   0.810   5.141  14.993  0.1613 -0.3426  0.2843
28971W        W44780   1.332   0.708  10.514 -0.1346  0.0893 -0.0516
28972W        W44781   0.843   1.792  11.834 -0.0116  0.3782  0.0063
28973W        W44782   0.170  18.554   3.145 -0.0377  0.0349  0.0954
28974W        W44783  11.808  12.836   9.964 -0.3601  0.0620  0.0391
28975W        W44784  14.467   7.023  12.107  0.0446 -0.1637  0.2462
28976W        W44785  10.513  14.000   2.861 -0.0253  0.0690 -0.0870
28977W        W44786  13.583   8.926  14.099 -0.0919 -0.0339 -0.0044
28978W        W44787  16.421   9.952   0.109  0.1034 -0.2246  0.0651
28979W        W44788   3.137   6.681   2.787  0.2144 -0.0279  0.2061
28980W        W44789   6.807  17.513   4.153 -0.0950 -0.2687  0.0313
28981W        W44790   7.857  14.960   3.618  0.4119  0.0242  0.0512
28982W        W44791   7.532  11.022   4.057  0.2368  0.2187  0.0899
28983W        W44792   7.362   9.575   5.550 -0.0953 -0.3998  0.2693
28984W        W44793   9.749   2.795   2.580  0.0988 -0.2915 -0.0921
28985W        W44794  15.123   2.415  12.057 -0.2095  0.2428 -0.0390
28986W        W44795   0.324  11.482   1.746 -0.0302 -0.0287 -0.0825
28987W        W44796   0.363   9.485   4.074 -0.1408 -0.1455 -0.0074
28988W        W44797   6.049   6.061  10.060 -0.0565 -0.0751 -0.0014
28989W        W44798   9.953  17.685   3.238 -0.0740  0.1425 -0.1298
28990W        W44799   0.507   1.339   5.006 -0.2289 -0.1350  0.0156
28991W        W44800   0.836  15.118   3.043 -0.0016  0.0102  0.1749
28992W        W44801   7.479  12.719   1.756 -0.0999 -0.0411 -0.2539
28993W        W44802   6.521   3.714   2.850 -0.2388 -0.1839 -0.1688
28994W        W44803   4.424   8.193  12.520  0.3863 -0.2387  0.3101
28995W        W44804   3.322   0.515  11.399  0.2092 -0.0034  0.0029
28996W        W44805   9.566   5.246  15.677  0.0008 -0.1741 -0.2572
28997W        W44806  15.168   2.360   4.389  0.3279  0.3850 -0.0075
28998W        W44807   4.144   6.717  11.573 -0.4451  0.1486 -0.0186
28999W        W44808   9.829   8.016  15.109 -0.1462 -0.0051  0.0427
29000W        W44809   4.657   6.553  11.308  0.2707  0.0120 -0.0916
29001W        W44810   8.590  15.423   5.561  0.1202  0.2533 -0.2176
29002W        W44811   9.680   8.217  14.008  0.1138 -0.2919 -0.0713
29003W        W44812  16.907   8.990  11.683  0.2595  0.0207  0.1267
29004W        W44813   6.230   0.451  14.121 -0.0045  0.0875 -0.2881
29005W        W44814  10.125  14.634  14.294  0.1490 -0.0435  0.2479
29006W        W44815  16.165   0.560  13.700  0.0928 -0.0681  0.0285
29007W        W44816   9.976  14.344  13.829  0.2130 -0.2494  0.0190
29008W        W44817   8.604  12.394   0.990  0.0237 -0.0973 -0.3654
29009W        W44818  15.136   9.307  14.122  0.0170  0.2526 -0.0705
29010W        W44819   4.127   9.714   0.850 -0.1754  0.1923 -0.2962
29011W        W44820  18.542   9.957   4.721  0.0645  0.2160  0.3741
29012W        W44821   7.995  15.964   4.431  0.0969  0.1768  0.2047
29013W        W44822  11.645   7.674   3.653  0.2234  0.3664  0.0043
29014W        W44823  12.140  13.238  14.398 -0.2611 -0.0447  0.2888
29015W        W44824  12.657   1.275  10.802 -0.2412  0.2557 -0.1936
29016W        W44825  16.699   6.570   2.133  0.1654  0.2081 -0.2095
29017W        W44826  11.608   4.765   2.686  0.1113 -0.0819  0.0411
29018W        W44827  15.755   9.253  15.677 -0.1568 -0.3498 -0.3931
29019W        W44828   3.410  15.071  11.726  0.2633 -0.0807  0.0088
29020W        W44829  12.730   9.890   2.180 -0.1113  0.1234  0.1236
29021W        W44830   7.390  15.353  11.119 -0.2671 -0.1254 -0.0875
29022W        W44831   6.778   7.245   5.695  0.1444 -0.0043  0.2217
29023W        W44832   9.850  15.673  15.257 -0.1548 -0.4251  0.1923
29024W        W44833  12.114  15.426   3.261  0.0708  0.2281 -0.0907
29025W        W44834   7.133  14.289   2.024 -0.0872  0.0090 -0.1444
29026W        W44835   0.593  13.013  14.712 -0.1902  0.2905  0.1629
29027W        W44836  17.624   3.676   4.521 -0.1924  0.1901  0.2418
29028W        W44837  12.784   4.545   3.648  0.2190 -0.1008 -0.1167
29029W        W44838  16.240   0.794  14.573  0.0111  0.3404 -0.1142
29030W        W44839   3.476   6.014  14.943 -0.2320  0.0834  0.0998
29031W        W44840  14.070  15.532  11.914 -0.0140  0.1438  0.0696
29032W        W44841   6.380   7.213   2.966  0.2405  0.0579  0.0264
29033W        W44842  17.154   0.575   1.253 -0.1132 -0.1525 -0.2133
29034W        W44843  18.556  17.050  11.488 -0.0420  0.0134 -0.0172
29035W        W44844   9.495  15.522  15.551 -0.0153  0.1019 -0.0795
29036W        W44845   0.092  17.162   0.331  0.1419  0.4140  0.0815
29037W        W44846  17.696   9.717  10.841  0.1302  0.0604  0.1694
29038W        W44847  16.918   4.159  12.853  0.1907  0.1825 -0.2023
29039W        W44848   0.791   5.755  12.287 -0.1828 -0.1072  0.3563
29040W        W44849   1.549  18.421   5.021  0.1755  0.1704 -0.3227
29041W        W44850   6.539   6.217   3.982  0.1149 -0.0060  0.1575
29042W        W44851   8.754   4.412   1.373  0.0931  0.0364  0.1872
29043W        W44852  12.825   7.292   3.017 -0.0430  0.1080  0.6203
29044W        W44853  14.030   3.305  12.729 -0.0639  0.1706  0.1528
29045W        W44854  13.597   1.529   3.785  0.2303 -0.0895  0.0421
29046W        W44855  12.504   5.078  15.128  0.0552 -0.0885 -0.1232
29047W        W44856  16.172   5.534  12.420  0.0506 -0.3104 -0.2847
29048W        W44857   7.054  16.049   3.747 -0.1291  0.3678  0.2182
29049W        W44858  11.121  12.238   2.707  0.2205  0.0263  0.2463
29050W        W44859   7.192   2.481   3.496 -0.2114  0.4287 -0.0794
29051W        W44860   0.984   8.074   0.906 -0.2531  0.1226 -0.1319
29052W        W44861  12.813  14.181   1.959 -0.1594  0.0888  0.2123
29053W        W44862   7.803  13.302  11.094 -0.1733 -0.0841  0.0258
29054W        W44863   9.294  16.332  12.197 -0.1855  0.0592  0.1566
29055W        W44864   9.911  15.240   1.627  0.0888  0.0997 -0.1964
29056W        W44865  12.131   9.625  11.867  0.0824 -0.0471 -0.1572
29057W        W44866  13.241   6.784  13.473 -0.0591  0.1969  0.2509
29058W        W44867   2.391   4.297  13.908 -0.0616 -0.1868  0.0525
29059W        W44868  17.462   7.021  15.475 -0.0372  0.0452  0.3088
29060W        W44869  11.903  14.224  11.682 -0.0304 -0.1437  0.2786
29061W        W44870  17.390  13.284   1.535  0.4783 -0.2068 -0.3152
29062W        W44871  12.966  11.030  11.686 -0.0034 -0.2197  0.2233
29063W        W44872  13.407  10.747  11.787  0.2974 -0.0592 -0.2669
29064W        W44873  17.935   1.532   2.713 -0.4246 -0.2755  0.0774
29065W        W44874   8.207   8.731  11.524  0.0538  0.4624 -0.2287
29066W        W44875  13.400  16.928  10.386  0.2113 -0.0533  0.2003
29067W        W44876  14.744   2.012  13.930  0.0595  0.1356 -0.2840
29068W        W44877   8.490   9.707  15.486  0.3085  0.3344  0.0729
29069W        W44878  18.153   4.452  10.416 -0.1088  0.0101  0.3243
29070W        W44879  14.374   4.903  13.133  0.1097  0.1581 -0.0062
29071W        W44880  15.086  18.610   2.761 -0.2611  0.3014  0.0145
29072W        W44881   4.723  15.408  10.776 -0.2021 -0.0433  0.0216
29073W        W44882  11.231  16.964  13.779 -0.0504 -0.1228  0.0888
29074W        W44883   4.480   6.138   6.179 -0.3623 -0.0214 -0.0843
29075W        W44884   1.358  10.341   4.498 -0.0101 -0.1111  0.0402
29076W        W44885  10.672  16.648  14.503 -0.0380 -0.1063 -0.0132
29077W        W44886  10.881  14.317   2.346 -0.3900 -0.1622 -0.2049
29078W        W44887   1.553  11.565  15.110 -0.0496 -0.0477 -0.3503
29079W        W44888  10.111   4.953  11.567 -0.0632  0.1150  0.0403
29080W        W44889  15.492   5.995  15.274  0.3675  0.0089 -0.1790
29081W        W44890  18.051   5.981  15.257 -0.2156 -0.1425 -0.0199
29082W        W44891   8.393  12.883   4.995  0.0972 -0.1506 -0.0168
29083W        W44892   5.520  14.628  13.587 -0.2454  0.1852 -0.3323
29084W        W44893  16.222   2.438   3.729  0.0076  0.1157 -0.3467
29085W        W44894  17.258   7.289  13.537 -0.0449  0.1244 -0.1859
29086W        W44895   6.832   4.943  15.563  0.1886 -0.3092  0.0610
29087W        W44896  10.791  12.137   0.491  0.3414 -0.2596 -0.1317
29088W        W44897   6.918  12.553   4.317 -0.1907 -0.2280 -0.1304
29089W        W44898   5.534   5.820   2.239  0.1213 -0.0827 -0.0746
29090W        W44899   6.159  11.985  12.405 -0.1007 -0.1556  0.0022
29091W        W44900  13.215  12.512   0.385 -0.1113 -0.0355  0.0693
29092W        W44901   8.118   2.354   0.352 -0.0301  0.2366  0.1077
29093W        W44902   1.791   8.948   1.534 -0.3803 -0.0107  0.0699
29094W        W44903  11.213  15.964  14.730  0.0707  0.1515 -0.0969
29095W        W44904  15.914  18.443   1.605  0.2042  0.0417 -0.1290
29096W        W44905   7.614  16.771  14.456 -0.0838  0.2174 -0.4625
29097W        W44906   3.630   1.569   1.386  0.0114  0.1491 -0.0998
29098W        W44907   8.364  16.416   2.317 -0.0266 -0.1240 -0.0089
29099W        W44908   2.817  10.396  12.028 -0.1623 -0.1282 -0.0953
29100W        W44909  15.275   9.668  12.841  0.2167 -0.0609  0.1516
29101W        W44910  15.020  17.096  12.793 -0.0840 -0.0662 -0.0186
29102W        W44911   6.723  15.639   3.605 -0.1108 -0.2282  0.2767
29103W        W44912   7.853   5.819  12.885 -0.0674  0.0434  0.2252
29104W        W44913   1.825  12.330   0.929 -0.1246  0.4897 -0.3202
29105W        W44914   0.462   1.121   2.284 -0.1067 -0.2649 -0.0044
29106W        W44915   7.972  14.015  15.600 -0.1768  0.2184  0.0804
29107W        W44916   2.360   1.790   1.281  0.0987 -0.1868 -0.0855
29108W        W44917   6.425  15.160   3.264 -0.0334  0.0345  0.0380
29109W        W44918  16.063   8.582   0.488 -0.3777 -0.0590 -0.2100
29110W        W44919   2.703  10.119   2.792 -0.4621  0.1370  0.1863
29111W        W44920  18.032  10.109   0.565 -0.1463  0.3376  0.2100
29112W        W44921   2.335   9.007  11.844  0.0778 -0.0332 -0.1315
29113W        W44922  11.683  16.061  14.018 -0.1196  0.2586  0.0678
29114W        W44923  18.383   4.358   1.241  0.0551 -0.2620 -0.0325
29115W        W44924  10.884   3.327   3.721 -0.1526 -0.0638  0.1047
29116W        W44925   9.682   1.828   5.271 -0.0021  0.0209 -0.1581
29117W        W44926  16.038   8.569   3.491  0.1294  0.1568  0.0852
29118W        W44927  16.431  14.305  14.417 -0.1294  0.1185 -0.1953
29119W        W44928   9.527   3.237  14.099  0.0351  0.0508  0.3216
29120W        W44929  17.893   3.009   4.041 -0.0458 -0.3202  0.1075
29121W        W44930   9.988  12.365  14.032  0.2241  0.0411 -0.2203
29122W        W44931  13.464   2.330  14.650  0.1319 -0.3806  0.1451
29123W        W44932   2.979  10.099  11.018 -0.3661  0.0540 -0.2384
29124W        W44933  13.398  11.066   0.691 -0.2093 -0.0670  0.1447
29125W        W44934  16.176   9.010  15.607 -0.2652  0.0638 -0.2957
29126W        W44935   6.390   6.366  12.208  0.0154  0.1990 -0.4257
29127W        W44936   9.355  17.446  12.535  0.0793 -0.3734  0.1248
29128W        W44937  16.954  10.378  13.963  0.0334  0.1905  0.0722
29129W        W44938  15.010   8.268   5.324 -0.2367  0.3908 -0.1909
29130W        W44939  10.408   9.164   4.499 -0.1926  0.0000 -0.1953
29131W        W44940   7.470  16.662   2.674  0.0332 -0.0915  0.2318
29132W        W44941  11.352  15.801  11.033  0.0095 -0.1502 -0.0397
29133W        W44942  12.264  12.489  10.835 -0.5303 -0.2348  0.3214
29134W        W44943   6.961  15.136  14.863  0.2975  0.4479  0.0990
29135W        W44944  10.055   0.037   1.538  0.1043 -0.0840 -0.0768
29136W        W44945   1.077   6.696  14.146 -0.3124  0.0336 -0.1805
29137W        W44946  18.113  14.072   2.898 -0.0133  0.4564 -0.1138
29138W        W44947  14.556   3.412  11.356  0.2045 -0.2168 -0.0336
29139W        W44948   0.036  10.595  15.273 -0.0668  0.2181 -0.1238
29140W        W44949   3.968  17.928  14.528 -0.0605 -0.2290 -0.1123
29141W        W44950   6.057  11.900  11.146  0.1839 -0.2204 -0.1069
29142W        W44951   4.928   2.743  10.480  0.1443  0.0831  0.1031
29143W        W44952   3.612  12.021  14.574 -0.0282  0.2491 -0.2209
29144W        W44953  17.052  14.447   9.626 -0.0744  0.2469 -0.1283
29145W        W44954  15.724  10.005  13.850 -0.0949 -0.1030 -0.3170
29146W        W44955   1.154   5.464  13.802  0.3247  0.0828 -0.0588
29147W        W44956  11.203  13.945   1.519 -0.0864 -0.0869  0.0218
29148W        W44957  12.730   5.040  12.222  0.0093 -0.0314  0.0381
29149W        W44958  12.701   7.162   2.232 -0.1692 -0.4143  0.1343
29150W        W44959  13.157   4.840   4.381 -0.1660  0.1231  0.1233
29151W        W44960   9.411  14.688  11.494 -0.3496  0.0096 -0.1756
29152W        W44961   6.504   6.820  15.171 -0.0214  0.0243  0.1755
29153W        W44962   7.104   2.420  15.181 -0.2389  0.1761  0.0930
29154W        W44963   5.791   4.355   4.046  0.3564  0.0344  0.0709
29155W        W44964  18.041  16.286  11.141 -0.1603  0.0556  0.2124
29156W        W44965   8.829   1.140   2.158  0.0242  0.2722  0.2282
29157W        W44966  16.553   5.708  11.157 -0.4588  0.1336 -0.3771
29158W        W44967   6.398   3.378   0.777  0.0651  0.1686  0.3145
29159W        W44968   2.496   9.009   0.557  0.0823  0.2070  0.0251
29160W        W44969  14.544   8.857   4.165 -0.2373 -0.1657  0.1070
29161W        W44970   0.430   5.405   0.860  0.2524  0.2623  0.0994
29162W        W44971  12.824  17.595   3.338  0.0206  0.2449  0.0708
29163W        W44972  15.460  17.746  12.185 -0.2211  0.2775 -0.2915
29164W        W44973  14.350   6.825   4.089  0.4208 -0.0350  0.0608
29165W        W44974   2.764   1.923  14.400  0.2682 -0.2226  0.1211
29166W        W44975   7.655   9.549  10.326 -0.0745  0.1403  0.0885
29167W        W44976  18.091  10.574   2.808  0.1705 -0.2606  0.1806
29168W        W44977  16.766   5.974  13.446 -0.1762  0.0136 -0.4395
29169W        W44978   8.679   2.806  11.954 -0.0847 -0.3651 -0.1295
29170W        W44979   7.178  18.130   0.191 -0.1265  0.0731  0.0535
29171W        W44980   1.611  11.224  12.499 -0.0654  0.0786 -0.0905
29172W        W44981  17.177  10.694   0.464 -0.2612  0.0758 -0.1942
29173W        W44982   5.730  13.166   4.250  0.0045  0.0681  0.3683
29174W        W44983  15.323  12.825  14.113 -0.3097 -0.0044 -0.4206
29175W        W44984   1.460   8.277   3.325 -0.1975 -0.0256  0.2478
29176W        W44985   5.472   3.111   3.501 -0.3501 -0.4636 -0.4480
29177W        W44986   7.078  16.084   4.263  0.0308 -0.1711 -0.0322
29178W        W44987  11.789   3.143  14.977  0.0480  0.0194 -0.1955
29179W        W44988   7.892  10.042   1.640  0.0704  0.2390 -0.0128
29180W        W44989  16.057   4.994  14.963 -0.3336 -0.1057  0.1738
29181W        W44990  12.263   7.891   2.198 -0.5212 -0.0833  0.1369
29182W        W44991  18.304   7.594   0.588  0.2625  0.0325  0.0669
29183W        W44992   8.661   8.264  13.550 -0.0622 -0.0128 -0.4583
29184W        W44993   5.585  10.344  14.453 -0.1142 -0.1231  0.0901
29185W        W44994  13.067  10.094  13.621 -0.4346  0.1682 -0.1536
29186W        W44995   1.175  17.139  12.861  0.3073 -0.0348 -0.1496
29187W        W44996  17.441  17.931  11.649 -0.1203 -0.1497  0.0417
29188W        W44997  15.709   3.117  13.511 -0.1643  0.2201 -0.0615
29189W        W44998   7.836   1.605   1.596  0.0680  0.3197  0.1712
29190W        W44999  15.294   9.709   0.575  0.0323  0.0077 -0.0378
29191W        W45000  12.939  15.534  13.218 -0.0698  0.0645 -0.0772
29192W        W45001   1.700  13.476   0.338 -0.1110  0.3005  0.1480
29193W        W45002  14.437  18.457  10.417 -0.0400  0.1505  0.1192
29194W        W45003   8.930   2.830   0.441  0.0490  0.1889  0.0078
29195W        W45004   4.080  14.142   3.472 -0.1145  0.1108 -0.1045
29196W        W45005  13.572   4.924   0.422  0.4564  0.2229 -0.5454
29197W        W45006   9.263  14.503   3.834  0.2458 -0.1096  0.0238
29198W        W45007   6.744   9.566   2.072 -0.0301 -0.0530  0.1394
29199W        W45008   2.344  14.823  12.396  0.2481  0.2845  0.3429
29200W        W45009  15.316   4.148  11.695  0.3509 -0.0618 -0.2248
29201W        W45010  14.963   3.078  14.702 -0.0630  0.2133 -0.1377
29202W        W45011   2.855   0.355   1.441  0.0319 -0.1128 -0.0036
29203W        W45012  18.310   2.782  14.619  0.1058  0.1032 -0.1597
29204W        W45013   2.992  12.354  12.938  0.0632  0.1200 -0.1776
29205W        W45014   4.281   2.733  14.150 -0.0149 -0.0528 -0.1719
29206W        W45015   8.493   5.267   1.765 -0.1928 -0.1386 -0.1776
29207W        W45016  10.380   3.125  14.561  0.0638 -0.0588  0.0166
29208W        W45017   8.543  13.550   4.778  0.3767  0.4465  0.1058
29209W        W45018  13.591   7.081  10.776 -0.2336  0.2596 -0.2870
29210W        W45019  13.032  15.781  11.161 -0.0694  0.1058 -0.2699
29211W        W45020   4.265   6.145   1.909 -0.3535  0.0944 -0.0076
29212W        W45021  18.647  17.593   5.685  0.2188  0.1566  0.1245
29213W        W45022   2.071  13.032  12.942  0.0373  0.1218 -0.1306
29214W        W45023  11.458  12.557   2.997  0.1615 -0.0232 -0.2765
29215W        W45024  14.679  10.565  12.214  0.1913 -0.1475 -0.4389
29216W        W45025   5.072   5.290  12.795  0.0024 -0.1518  0.0218
29217W        W45026  10.167   4.529  13.629  0.1082 -0.0518  0.0612
29218W        W45027   8.445   3.005  10.670 -0.0897 -0.0510  0.2987
29219W        W45028  13.299  10.744   4.676 -0.0221  0.1463  0.1080
29220W        W45029  16.881   1.637   2.388  0.1716  0.1272 -0.1687
29221W        W45030   2.081  11.487   0.356 -0.1069 -0.1721 -0.2333
29222W        W45031   1.393   0.393  11.959 -0.2874 -0.0204 -0.1433
29223W        W45032  11.745  15.209  12.873 -0.1443 -0.0885 -0.0471
29224W        W45033   7.139  10.516   3.805 -0.1238  0.0740 -0.1654
29225W        W45034   6.705   8.500   3.266 -0.1737 -0.2131  0.1205
29226W        W45035  15.582  16.588   4.132  0.4502  0.1266  0.4386
29227W        W45036   5.158   0.786  14.211  0.1129 -0.1280 -0.2165
29228W        W45037   9.676  13.934  12.817  0.1988  0.2673  0.2600
29229W        W45038  13.924  11.457   1.195 -0.0139 -0.2812  0.2817
29230W        W45039  12.726  10.808  12.564 -0.3609 -0.3771  0.1836
29231W        W45040  12.374   4.158   0.659  0.1297  0.0294  0.2066
29232W        W45041  17.259   4.027   4.311  0.1230  0.0823  0.1083
29233W        W45042  15.403  15.761  13.290  0.3778  0.2533  0.1417
29234W        W45043  13.482  12.297   1.347 -0.1962  0.2007  0.0149
29235W        W45044   5.635  18.253   1.385 -0.1429 -0.2289  0.2052
29236W        W45045  13.179  16.867   2.751 -0.0152  0.0603 -0.1991
29237W        W45046   5.431   5.425  11.333  0.0258  0.0596 -0.3300
29238W        W45047  14.315  11.872   5.758 -0.1291 -0.2325 -0.0127
29239W        W45048  11.912   9.326  12.230 -0.2213 -0.2908  0.2953
29240W        W45049   5.697  10.871   4.421 -0.1547  0.1692 -0.1385
29241W        W45050  13.897   2.097  15.457 -0.1932 -0.1184 -0.1506
29242W        W45051   1.862  18.254  11.724 -0.3398  0.1517 -0.0083
29243W        W45052  15.644  10.608  11.510 -0.1184  0.0858 -0.1078
29244W        W45053  12.740  11.401   3.189 -0.0377  0.0083  0.3466
29245W        W45054  15.279   6.293  13.123  0.1780 -0.0997 -0.1193
29246W        W45055   8.555   9.146  14.728 -0.3473 -0.3023  0.0637
29247W        W45056  17.452   6.959   2.241  0.0623 -0.0605 -0.1281
29248W        W45057   9.886  16.693   1.420 -0.1025  0.0021 -0.1839
29249W        W45058   9.685   7.517   4.816  0.4392  0.0363 -0.1415
29250W        W45059  15.161   4.659   1.682  0.0059  0.2124  0.0198
29251W        W45060   5.035  11.480   4.934 -0.3752 -0.0473 -0.3596
29252W        W45061  10.822   7.112   0.580  0.4658 -0.0736  0.0310
29253W        W45062  15.763   2.923  15.648  0.0556 -0.1711  0.2815
29254W        W45063  12.362  16.695   5.474 -0.0328 -0.0599 -0.2976
29255W        W45064   9.331   0.228  15.561  0.0543  0.0439 -0.0996
29256W        W45065   2.975  16.850  15.050 -0.3111  0.3192  0.1575
29257W        W45066   3.514  10.141  15.216  0.1220  0.1098 -0.0123
29258W        W45067  12.410  16.272   3.743  0.3162 -0.1185 -0.0034
29259W        W45068   4.762   2.863   5.925 -0.3539  0.2109 -0.0609
29260W        W45069  18.312  18.306  11.519  0.0362  0.0431 -0.4412
29261W        W45070   0.402  11.520  12.089  0.4334 -0.0524 -0.0820
29262W        W45071   5.441   0.377   1.385  0.3028  0.0112  0.0125
29263W        W45072   5.372   1.032   2.632 -0.3099  0.1030  0.3094
29264W        W45073   8.953  10.852   3.893  0.0113  0.1126 -0.0404
29265W        W45074   2.237  16.179   3.631  0.1287 -0.2184  0.2954
29266W        W45075   2.585  14.618  11.904 -0.0305  0.4460  0.0698
29267W        W45076   3.888  14.855  15.463  0.0727 -0.2193 -0.2483
29268W        W45077   9.747  17.670  11.379 -0.0949  0.2401 -0.1672
29269W        W45078  11.822   6.413   3.118 -0.1055 -0.1849  0.0356
29270W        W45079  12.980   7.949   1.547 -0.0373  0.1016  0.1112
29271W        W45080  16.200  11.212  11.663 -0.2351  0.2058  0.1121
29272W        W45081   6.485  18.167   0.933 -0.1352  0.1037  0.0403
29273W        W45082   5.947  14.083   5.754 -0.3338 -0.1030  0.0304
29274W        W45083  11.730  10.503   0.715 -0.0888  0.2279 -0.1284
29275W        W45084   2.838   3.276  12.746 -0.0418 -0.1274  0.0064
29276W        W45085   3.127  17.726  11.834 -0.0302 -0.1473  0.0602
29277W        W45086  12.494   8.735   3.096 -0.3121  0.1274  0.1566
29278W        W45087   5.104  12.826  12.541 -0.1615  0.1817 -0.0366
29279W        W45088   8.773   6.442  13.237 -0.0464 -0.1299  0.0771
29280W        W45089   4.112  14.864   3.807  0.3011 -0.0761 -0.1648
29281W        W45090  11.507  10.374   4.766 -0.3958  0.2044 -0.1007
29282W        W45091  13.262   6.436  11.686  0.2775 -0.0797  0.0381
29283W        W45092   9.040   9.106  12.318 -0.3520 -0.1951 -0.2323
29284W        W45093   5.723   9.083   2.654  0.2572  0.2729  0.0064
29285W        W45094   7.690   6.981  12.013 -0.1156  0.0747  0.1043
29286W        W45095   9.449  17.403  13.107  0.0516  0.0288  0.2290
29287W        W45096   8.345   8.405   3.470  0.1439  0.2506 -0.2459
29288W        W45097   8.884  11.681   2.733 -0.1538 -0.1422 -0.3651
29289W        W45098  15.246   3.954  13.764 -0.2900 -0.0671  0.2893
29290W        W45099   1.710   8.034  14.275  0.1724 -0.0045 -0.1307
29291W        W45100  10.271   0.049   3.180  0.5871  0.1165  0.0338
29292W        W45101  18.336  16.867   4.479  0.1409 -0.2259 -0.0504
29293W        W45102  11.305   6.953   4.347 -0.1785 -0.0973  0.2092
29294W        W45103  14.988  12.279  15.540  0.2818  0.3023  0.0150
29295W        W45104   9.342   8.739  14.641  0.4452 -0.2055  0.0768
29296W        W45105   9.500  17.483  13.632 -0.2533  0.2988 -0.2088
29297W        W45106   1.572  10.439   2.372 -0.1960 -0.0428  0.0828
29298W        W45107   5.986  13.934  11.555  0.1956 -0.1488  0.0415
29299W        W45108  15.486  12.659  13.109 -0.1990 -0.1061 -0.2958
29300W        W45109   5.352  15.446  12.715  0.0508 -0.3815  0.0197
29301W        W45110  15.232   4.327  15.355  0.3135  0.0567  0.1419
29302W        W45111  17.827  15.826  13.651  0.2844  0.0606  0.0509
29303W        W45112  15.144  17.640  11.708 -0.3775 -0.1999  0.1736
29304W        W45113   6.471   4.953   0.687 -0.0217  0.0327  0.0489
29305W        W45114  18.512  15.302  14.496 -0.0634 -0.0726  0.1162
29306W        W45115  15.495  11.420  13.494 -0.0383 -0.5382 -0.0158
29307W        W45116   1.075   4.850  15.414 -0.0259  0.2741  0.1285
29308W        W45117  10.055   8.874  15.023 -0.1773 -0.0380 -0.1049
29309W        W45118  12.619  17.466  13.761  0.1531  0.2391 -0.0165
29310W        W45119   9.562  13.822   1.757  0.0680  0.1895  0.1021
29311W        W45120  14.751  14.915   4.482  0.1410 -0.2550  0.2411
29312W        W45121   4.949  10.827   1.421 -0.0118  0.2148 -0.1018
29313W        W45122   5.489   7.679  12.262 -0.1686  0.3183 -0.0990
29314W        W45123   5.208  13.903   4.095  0.1302  0.0811  0.1355
29315W        W45124   0.911  10.745   0.250 -0.2822  0.1181 -0.1281
29316W        W45125   5.893  10.249   1.420 -0.1298 -0.0300 -0.0342
29317W        W45126   7.060  15.413   3.811 -0.1964  0.2981 -0.3074
29318W        W45127  11.584   7.012  14.565 -0.1240  0.0572  0.0593
29319W        W45128   2.823   1.649  11.393  0.2467 -0.0653 -0.3586
29320W        W45129  12.524  11.342   1.594  0.3159  0.2174 -0.3188
29321W        W45130  16.164  10.033   5.461 -0.1785 -0.0253 -0.1057
29322W        W45131  18.404   3.595   2.682 -0.0665 -0.1331 -0.1266
29323W        W45132   3.926   7.559   4.719 -0.2661 -0.0713 -0.0021
29324W        W45133  13.210   5.550   2.341  0.1614  0.3771  0.1574
29325W        W45134  14.459   9.208  11.473 -0.2909 -0.0971  0.0345
29326W        W45135  12.935   1.204  15.195 -0.1257 -0.1819  0.0544
29327W        W45136  16.879   9.190   1.127 -0.2567 -0.1801 -0.2903
29328W        W45137   4.150  17.072  13.373 -0.0510 -0.0623 -0.0491
29329W        W45138   2.743   0.343  12.570 -0.3018 -0.0730  0.1226
29330W        W45139  16.205  12.641  14.511  0.0347 -0.2048  0.0184
29331W        W45140   5.806   7.787  13.980 -0.2347 -0.0277  0.2281
29332W        W45141  12.836   5.554  12.137  0.4566  0.0890  0.0770
29333W        W45142  17.734  10.952  12.091  0.1336 -0.1971  0.1740
29334W        W45143   7.038   2.882  14.907  0.0973 -0.1714  0.2014
29335W        W45144   1.523  11.173   2.980 -0.2623 -0.0753  0.3150
29336W        W45145   7.543  16.119   2.403 -0.3990  0.3907 -0.2871
29337W        W45146   1.311  10.463   0.356 -0.0846 -0.0998 -0.2161
29338W        W45147  11.747  18.458   0.722  0.2072 -0.1254 -0.0319
29339W        W45148  10.346   3.620   2.056  0.1745  0.0675  0.3806
29340W        W45149  12.730   8.000   3.407 -0.0623 -0.4153  0.0551
29341W        W45150  13.444   7.337  14.773  0.0342 -0.1150  0.3487
29342W        W45151   1.773  10.010   4.044  0.0466  0.1008 -0.2648
29343W        W45152   3.443  17.590   4.474  0.0697 -0.2215 -0.0743
29344W        W45153   3.283  12.993  11.819  0.3331 -0.4282  0.3245
29345W        W45154  18.028   0.766  13.973  0.0358  0.0937 -0.0372
29346W        W45155  12.601  16.677  15.408 -0.1033 -0.3098 -0.2143
29347W        W45156   8.884  15.400  14.037 -0.0319 -0.1001  0.2653
29348W        W45157  16.028  17.152  12.804 -0.0724  0.1346  0.0899
29349W        W45158  13.308   5.836  15.172  0.2720  0.0051 -0.1156
29350W        W45159  16.775   3.551   5.032  0.0509  0.0398 -0.1589
29351W        W45160   3.978  13.705  11.055 -0.1583 -0.1753  0.0006
29352W        W45161  11.692  12.732  13.599  0.1680  0.1518 -0.1759
29353W        W45162  10.010   7.778   0.673 -0.2396  0.1647 -0.1523
29354W        W45163  12.799   6.244   1.567  0.0400  0.2529  0.0286
29355W        W45164  18.414   2.279   2.420  0.0927 -0.2244  0.0109
29356W        W45165   2.529  15.112   0.242 -0.0599 -0.0585 -0.1326
29357W        W45166  12.868  11.336  13.250 -0.2176 -0.4924 -0.1739
29358W        W45167  16.379  13.298   4.763 -0.0597  0.1015  0.0109
29359W        W45168  11.231  11.675   1.329 -0.0845 -0.1266 -0.2973
29360W        W45169   9.771  13.100   6.171 -0.3055 -0.0817  0.0261
29361W        W45170  12.480  15.558   1.411  0.1497 -0.1549 -0.2618
29362W        W45171  16.874   1.388  13.515 -0.0142 -0.0742 -0.0543
29363W        W45172   6.883   6.083   0.258  0.0654  0.3261 -0.0142
29364W        W45173  16.917   3.602   4.425  0.1335 -0.0297  0.1740
29365W        W45174   8.230   8.984  13.121  0.0115 -0.0122 -0.2889
29366W        W45175  11.487   7.273   0.422  0.2576 -0.0757  0.0773
29367W        W45176   3.098   8.324   0.622 -0.0206 -0.3140 -0.1594
29368W        W45177   6.237  15.204  14.441 -0.0837 -0.2952 -0.0202
29369W        W45178  12.853   6.645   0.556  0.0162  0.1947 -0.0331
29370W        W45179   8.519   2.917  15.028 -0.2740 -0.1914  0.0942
29371W        W45180  12.640   6.462   2.822  0.1328  0.0160 -0.2729
29372W        W45181  12.254  11.418   4.552 -0.1616 -0.1973 -0.1301
29373W        W45182   7.072   7.971   2.177 -0.4079 -0.3565  0.1386
29374W        W45183  10.900   2.756  13.849 -0.0587  0.0165 -0.0431
29375W        W45184  16.698   6.429  15.661  0.2217 -0.1512 -0.2919
29376W        W45185   0.711  16.784   4.591  0.1900  0.0070 -0.0121
29377W        W45186  11.805  15.634   5.244  0.1616  0.1105  0.0138
29378W        W45187  15.237  12.113  13.772  0.1158 -0.2471 -0.0443
29379W        W45188   2.799  15.804   2.450  0.1541  0.0251  0.3931
29380W        W45189   2.071  15.012   3.087 -0.2092  0.2858 -0.3717
29381W        W45190  15.555   5.176   2.861  0.0982  0.0507 -0.4551
29382W        W45191  13.967   5.326   2.120 -0.0166  0.1843 -0.1427
29383W        W45192   1.637   5.037   4.116  0.0043  0.0009  0.1848
29384W        W45193  17.146  10.890   1.707 -0.1181 -0.1914 -0.1209
29385W        W45194   7.506   1.512  10.175  0.0003 -0.3152  0.0373
29386W        W45195  15.855   0.701   4.186 -0.0334 -0.2699  0.0702
29387W        W45196   4.708  15.525   3.337 -0.1388  0.1764 -0.1206
29388W        W45197  17.241   4.259   2.964 -0.0828 -0.2609  0.1950
29389W        W45198   0.522   6.320   1.567 -0.0948  0.0485 -0.0911
29390W        W45199   7.942  11.449  13.549 -0.0229 -0.2193 -0.1109
29391W        W45200   3.061   3.102   2.665  0.1403 -0.1078 -0.0318
29392W        W45201  12.363   2.756  11.464 -0.0414  0.0464  0.2487
29393W        W45202  14.962   3.245   2.666  0.0710 -0.2838 -0.0997
29394W        W45203  11.522   7.279  15.674  0.1697 -0.0943  0.0103
29395W        W45204   7.917   2.722   4.408 -0.0023  0.0039  0.1452
29396W        W45205   2.254   4.242   1.885 -0.1707 -0.1359 -0.2128
29397W        W45206   5.819   1.704   0.226 -0.0188  0.0102  0.1140
29398W        W45207   9.906   1.081  14.115 -0.1136 -0.1303 -0.1468
29399W        W45208  16.902   5.809  13.922  0.0206  0.0926 -0.1822
29400W        W45209   8.954   4.052   4.008 -0.1775  0.0835  0.1765
29401W        W45210   7.637   3.071   5.262  0.2984 -0.0870  0.2533
29402W        W45211   6.074   2.506  11.486 -0.2794 -0.1262 -0.1620
29403W        W45212  18.652   7.265   5.655  0.1434  0.0737  0.3430
29404W        W45213  10.122  10.970  15.033 -0.0055 -0.2147  0.0559
29405W        W45214  11.343   8.209   2.127  0.0016  0.0500  0.0473
29406W        W45215  14.917   6.771   3.104  0.2119  0.0162  0.0743
29407W        W45216  13.924  10.455  14.612  0.1405 -0.1938  0.0923
29408W        W45217  15.790  12.024   4.368 -0.2877 -0.0677  0.0412
29409W        W45218  15.414  11.772   9.606 -0.0588  0.1483  0.0989
29410W        W45219   3.532   3.243   3.823 -0.5063  0.0254  0.2429
29411W        W45220  11.352   9.846  10.461 -0.0169  0.0763 -0.0283
29412W        W45221  14.715   0.850  15.126 -0.0272 -0.0641 -0.0949
29413W        W45222   5.458  14.920  11.599 -0.2498  0.0119 -0.0024
29414W        W45223  14.156  18.526   2.531  0.2102 -0.3215  0.0090
29415W        W45224   9.784  11.981  12.845  0.3451 -0.3416  0.0820
29416W        W45225   8.487  13.780  13.311  0.0691  0.0396 -0.0438
29417W        W45226  17.600  13.366   0.507  0.1752 -0.2756 -0.0213
29418W        W45227   7.288   9.593   4.890  0.1881 -0.1236 -0.1947
29419W        W45228  15.408   3.472  13.481 -0.2014 -0.1685  0.1709
29420W        W45229  11.718   0.169  12.435 -0.2166 -0.2732 -0.2187
29421W        W45230  15.064   5.321  10.825 -0.0820 -0.2099 -0.1568
29422W        W45231  17.956  18.552   1.474  0.1622 -0.1887  0.3056
29423W        W45232   1.983  12.291   3.387  0.3556 -0.1628  0.2011
29424W        W45233  10.237   4.262  15.556  0.2248 -0.0146  0.0965
29425W        W45234   1.338  12.196   0.008  0.1474 -0.0017  0.0533
29426W        W45235   6.113  17.626   4.844  0.1310  0.0691  0.0056
29427W        W45236   7.220  13.081  14.189  0.1529 -0.1544  0.0580
29428W        W45237   9.225   9.372   4.663 -0.0910 -0.3672 -0.1394
29429W        W45238   0.534  12.787   2.912 -0.0381 -0.2450 -0.1045
29430W        W45239   3.635   8.255  11.977 -0.0410  0.0026 -0.4663
29431W        W45240  15.452   6.687  12.883  0.1016 -0.0246  0.1185
29432W        W45241  13.143  16.739  15.555 -0.1316 -0.4229 -0.2359
29433W        W45242   5.065  16.623   0.458  0.2523 -0.1361 -0.3351
29434W        W45243  11.078   9.440   1.392  0.1056  0.0034 -0.0383
29435W        W45244   7.439  11.676  14.247 -0.1101 -0.0924  0.0680
29436W        W45245   4.336  16.187   0.864  0.1861 -0.2548  0.0061
29437W        W45246   8.586   0.772   0.537 -0.0984 -0.1861  0.3589
29438W        W45247   2.239   8.288   1.136  0.0606 -0.0334  0.0271
29439W        W45248   0.252  14.841   2.540  0.3592 -0.1754  0.2530
29440W        W45249   5.972   8.415   5.593  0.0320 -0.1428 -0.0162
29441W        W45250   9.333   8.566   0.560  0.3139  0.3620  0.1088
29442W        W45251   2.895   1.146   0.066  0.0918  0.0902  0.1065
29443W        W45252  16.834   1.234   3.817  0.1518  0.1747  0.2815
29444W        W45253   2.676   6.426  15.193  0.2127  0.2747  0.2647
29445W        W45254   7.044   3.975   3.670  0.1453  0.0948  0.0502
29446W        W45255  13.968  17.341  15.103  0.0177  0.0211  0.0186
29447W        W45256   2.130   7.788  15.709  0.0558  0.1142 -0.1060
29448W        W45257   8.831   5.584   1.552 -0.2218 -0.0227 -0.2437
29449W        W45258   4.684   1.622   2.931 -0.0454 -0.0470 -0.0245
29450W        W45259  11.834   7.360   4.669 -0.0367  0.2142  0.2016
29451W        W45260  17.252   7.627  13.912  0.0399 -0.1449  0.1951
29452W        W45261  16.657   5.011  14.528 -0.0663  0.0102  0.0963
29453W        W45262   4.987   2.313   4.910 -0.1154  0.1285 -0.2084
29454W        W45263  11.250  18.334   3.929 -0.0329  0.2891 -0.0850
29455W        W45264  16.899   3.590  15.129  0.1580 -0.0744  0.0680
29456W        W45265   7.338  16.565  12.938 -0.0023 -0.1296 -0.2011
29457W        W45266  12.761  15.077   9.924 -0.0577 -0.2509  0.2955
29458W        W45267   4.176  11.034   4.963 -0.2604  0.0847  0.0123
29459W        W45268   8.744  10.771   3.447  0.0795 -0.1537  0.1092
29460W        W45269  15.880   3.991   1.258 -0.1102  0.0140  0.0273
29461W        W45270   9.544   4.599  11.125  0.0205  0.3564 -0.2599
29462W        W45271   8.382  11.185  15.191 -0.1962  0.4893 -0.1189
29463W        W45272  17.833   9.321   2.169  0.3188 -0.0638  0.4956
29464W        W45273   2.997   0.273  15.579 -0.1393 -0.1426 -0.0309
29465W        W45274   9.468  11.294  11.931 -0.2863 -0.5164  0.2962
29466W        W45275   0.851  17.992  10.598 -0.2518  0.0573 -0.0884
29467W        W45276   7.665  12.098   5.897  0.0388 -0.0745  0.4470
29468W        W45277   1.039  15.675   1.168 -0.1197 -0.2970 -0.0296
29469W        W45278  11.229  17.580  10.589  0.3297 -0.0057  0.1060
29470W        W45279  15.708  11.238   0.709 -0.2828 -0.0141 -0.1714
29471W        W45280   3.410   6.975  13.264  0.1008  0.1664  0.1720
29472W        W45281  14.180  14.318   1.342 -0.1388  0.2379  0.2876
29473W        W45282  10.231  14.881  11.834  0.0082  0.0254  0.1501
29474W        W45283   2.820   5.728   2.964 -0.1874  0.1256  0.4269
29475W        W45284   4.623   5.073  12.695 -0.4755  0.1636  0.1341
29476W        W45285   5.104   3.866  12.226 -0.3318  0.0610 -0.0877
29477W        W45286  18.561   5.430   0.801  0.1203  0.2143  0.0271
29478W        W45287  10.968  14.071   3.764 -0.2210 -0.2974 -0.3750
29479W        W45288   5.238  17.195   4.586 -0.0224 -0.0419  0.2295
29480W        W45289   1.134   3.691   1.310  0.3940  0.1962  0.0989
29481W        W45290   9.788  14.253   1.517 -0.1179 -0.3221  0.0037
29482W        W45291   0.203   0.135  13.823  0.2732  0.4730 -0.1616
29483W        W45292  14.992   6.642   2.187  0.1935 -0.3761 -0.1373
29484W        W45293   2.168   8.689  13.956 -0.2187 -0.1615  0.2959
29485W        W45294   2.670   2.056  13.621  0.0276 -0.3819  0.3212
29486W        W45295   7.399   7.892  13.568 -0.1239 -0.0521  0.0808
29487W        W45296   2.143  14.415  14.671  0.1350 -0.3207 -0.0982
29488W        W45297   7.155   8.580  15.199  0.0384 -0.2516 -0.3250
29489W        W45298  13.352  10.432   5.558  0.0170 -0.0974  0.2476
29490W        W45299  15.678  14.901   0.549  0.2286  0.0052 -0.3667
29491W        W45300   2.987   4.623   2.262 -0.2251  0.1234  0.0552
29492W        W45301  10.648  13.191   4.887  0.0132 -0.4104  0.0753
29493W        W45302  16.058  17.558   0.366 -0.3439 -0.1719  0.1383
29494W        W45303   5.685  17.485   4.544  0.2828  0.0826  0.0089
29495W        W45304  15.075   4.723  15.084  0.1529  0.0802 -0.2755
29496W        W45305  14.118  14.167  11.590  0.1118 -0.2790 -0.0672
29497W        W45306  11.706   1.721  11.502 -0.3542  0.0378 -0.0744
29498W        W45307   3.880   1.975   4.403  0.1221 -0.1876  0.1472
29499W        W45308  15.028  16.247  15.643 -0.0942 -0.1139 -0.0134
29500W        W45309   2.158   9.646   4.141 -0.2058 -0.4593  0.1028
29501W        W45310  16.590   6.172   1.551  0.2734  0.2455 -0.1713
29502W        W45311   1.581  13.658   1.034  0.0096  0.0630  0.0229
29503W        W45312  15.139  10.333  10.491  0.0865  0.0730 -0.1497
29504W        W45313  16.618   1.783   5.193  0.0975 -0.3751 -0.1132
29505W        W45314   2.890  15.724   4.535 -0.0544  0.1105  0.1287
29506W        W45315  15.743   2.334  14.915 -0.1939  0.3723 -0.2247
29507W        W45316   1.398  12.637  12.490  0.1503 -0.1761  0.0547
29508W        W45317  16.568   0.900  15.631  0.2941  0.2145  0.0552
29509W        W45318   7.836   0.608   1.764  0.0075  0.0481  0.0376
29510W        W45319  11.621  13.020   1.843 -0.1287 -0.1737  0.1158
29511W        W45320   0.640   9.736  14.995  0.0413  0.0656 -0.0333
29512W        W45321  10.233  11.586   3.378  0.0615  0.0648  0.4453
29513W        W45322  10.786   1.269  13.281 -0.0561  0.3119  0.1186
29514W        W45323   5.034  14.472   2.303  0.2276 -0.1106  0.0365
29515W        W45324  14.338   9.434  13.721  0.0888  0.1157  0.1313
29516W        W45325   8.834   8.676   3.108  0.2136  0.1200 -0.7233
29517W        W45326  18.308  13.384   3.680 -0.0439 -0.2248  0.1446
29518W        W45327   7.654  10.905   0.053 -0.0015 -0.2313 -0.0880
29519W        W45328  15.001  12.447   0.699  0.1515 -0.1364 -0.0876
29520W        W45329   1.403   4.967  11.311  0.0110  0.1345  0.0085
29521W        W45330  10.066  15.383  11.115 -0.1889 -0.1875 -0.2120
29522W        W45331   1.571   6.938   3.958  0.0540  0.0349 -0.2946
29523W        W45332   8.806   9.941  12.017  0.2400  0.0640 -0.1324
29524W        W45333   4.551  12.116   1.292 -0.1093  0.2100 -0.1270
29525W        W45334   5.381   6.901   5.247  0.0702  0.0148  0.3154
29526W        W45335  10.602   9.297   1.452 -0.1508 -0.1281 -0.6056
29527W        W45336   4.205  18.351   2.444  0.1406 -0.3897 -0.0998
29528W        W45337   9.848   5.641   1.624  0.3159  0.0049 -0.0609
29529W        W45338  14.368   9.838  11.919  0.3408 -0.2623 -0.0770
29530W        W45339   3.990  13.706   2.110  0.2673  0.2143  0.0075
29531W        W45340  18.486   9.552  12.163  0.0697 -0.2788  0.0543
29532W        W45341   5.555  10.098   2.622 -0.2938 -0.3535  0.0203
29533W        W45342  12.988   1.953  13.331 -0.0273  0.2560  0.0809
29534W        W45343   1.715  15.362   3.680 -0.0147 -0.1883  0.2386
29535W        W45344  16.219  14.816   5.422  0.0983  0.1663  0.1396
29536W        W45345   9.338   1.055   2.586  0.0400  0.3115 -0.1023
29537W        W45346   9.909  14.812   5.015  0.3095  0.0390 -0.2492
29538W        W45347   0.192  16.407   2.915 -0.1379 -0.2801  0.0276
29539W        W45348   7.474   0.215  11.297 -0.1115 -0.1173  0.3742
29540W        W45349  17.591   9.076   3.563 -0.1633 -0.3566 -0.1068
29541W        W45350  18.160  15.109   3.734  0.1613  0.0267 -0.1884
29542W        W45351   6.254   0.036   3.321  0.3782  0.3933  0.1784
29543W        W45352   6.458  12.657  14.132  0.0077 -0.2483  0.0835
29544W        W45353  16.841   5.105   3.109  0.0036  0.1020  0.3845
29545W        W45354   1.737   3.481   1.179 -0.2370  0.2850 -0.1300
29546W        W45355   7.320  14.417   0.243  0.0073  0.0017  0.0784
29547W        W45356  13.113  11.909   1.453  0.2213  0.2027  0.0811
29548W        W45357  15.101  15.827  14.112 -0.1085 -0.0339 -0.0561
29549W        W45358  10.170   9.836   0.346 -0.1091  0.3466 -0.1466
29550W        W45359   9.387  14.885  11.931  0.0433  0.2953 -0.0628
29551W        W45360  11.566   8.346   5.192 -0.0547  0.2831  0.0615
29552W        W45361  14.953  18.400   0.855 -0.0211 -0.1131 -0.0712
29553W        W45362  13.305  12.827  14.453 -0.0466 -0.2623 -0.0672
29554W        W45363   6.832  16.576   3.989 -0.1014 -0.2662 -0.0882
29555W        W45364   9.968  12.471  12.638  0.1286 -0.0452 -0.1685
29556W        W45365  15.252  17.222  11.418 -0.0951 -0.2725  0.2242
29557W        W45366  13.954   1.821  11.574 -0.2673 -0.1377 -0.0011
29558W        W45367   6.049   6.845   2.709  0.0010 -0.1125  0.0618
29559W        W45368   1.283   0.270   3.267  0.0192  0.1800  0.1714
29560W        W45369   8.554   9.097  14.218 -0.1530 -0.1161 -0.1687
29561W        W45370  13.449  10.182  10.452  0.0667  0.2419 -0.3078
29562W        W45371  17.213   8.585   2.832  0.2945  0.1142 -0.2156
29563W        W45372  17.721  11.303  11.660 -0.2207  0.0147  0.0315
29564W        W45373   9.273  14.481   1.929  0.1157 -0.1128 -0.0398
29565W        W45374  14.675   8.945   2.958  0.0108  0.0249  0.2293
29566W        W45375  14.769   5.907   5.157 -0.0767 -0.0032  0.2153
29567W        W45376  10.663   6.048   1.182  0.3452  0.0758  0.0370
29568W        W45377   1.287   0.351   1.431 -0.2229 -0.0033  0.1267
29569W        W45378  15.550  14.203   4.070 -0.0133 -0.0097  0.1297
29570W        W45379   6.577   0.562   0.778  0.0279 -0.0473 -0.1872
29571W        W45380   1.369  10.440   1.488 -0.1897  0.2318  0.4228
29572W        W45381   7.729  12.463   5.558  0.4606 -0.1244 -0.2249
29573W        W45382   5.769   9.196   3.743  0.1634 -0.1008  0.0995
29574W        W45383   5.780   0.860   2.783  0.1516  0.0279  0.1216
29575W        W45384  10.057  18.465  15.476 -0.1234  0.0114 -0.2692
29576W        W45385   5.755   3.297  11.463  0.1473  0.0866  0.2118
29577W        W45386   9.595  18.282   3.738  0.3454  0.1696 -0.0540
29578W        W45387   9.853  14.713   0.244  0.1752  0.0806 -0.0088
29579W        W45388  14.001   0.233   0.704  0.1005  0.2717 -0.1605
29580W        W45389   5.925   0.180  12.607 -0.1021  0.0889 -0.1121
29581W        W45390   4.596  13.121   5.160  0.2831 -0.1192 -0.0561
29582W        W45391  14.661   3.449   1.833  0.0520  0.0688 -0.2303
29583W        W45392  12.860  16.419   0.334 -0.1640  0.1707  0.0868
29584W        W45393   6.702  13.517  11.575 -0.0614  0.0511  0.1459
29585W        W45394   2.116   3.095   2.742 -0.1871 -0.0408  0.0252
29586W        W45395  13.286   3.978  12.628 -0.1131  0.0118 -0.2951
29587W        W45396  18.418  17.899  11.817 -0.0346  0.0615  0.0006
29588W        W45397   5.435  11.571   1.081  0.3173  0.3899  0.2486
29589W        W45398   1.065   7.589   4.616  0.0071  0.0706 -0.1524
29590W        W45399   4.576  11.411   0.788  0.1873  0.2245 -0.0155
29591W        W45400  16.153  13.264   3.715  0.3828 -0.1007  0.1673
29592W        W45401   3.153   5.023   4.017  0.0988 -0.2729 -0.1387
29593W        W45402  17.194   7.790   4.465 -0.0692 -0.0709 -0.0782
29594W        W45403   7.555  14.006   5.093  0.1794 -0.1489  0.1234
29595W        W45404   5.493   5.156   0.156 -0.2138 -0.4310  0.1421
29596W        W45405  12.393  14.019   5.824  0.0528  0.0739  0.1104
29597W        W45406  15.083   5.727   2.857 -0.3551  0.1768 -0.2135
29598W        W45407  11.253  12.843  12.543 -0.1740  0.2104  0.5663
29599W        W45408  13.423  18.432  12.561 -0.0101 -0.1554  0.0780
29600W        W45409   4.551  15.263   2.874 -0.0702  0.1948  0.4370
29601W        W45410   9.390   8.263  11.704  0.1000  0.3489 -0.0429
29602W        W45411   0.617   2.885  10.934 -0.3044  0.0194  0.2142
29603W        W45412   7.899  13.066   1.552  0.2762  0.1412  0.0557
29604W        W45413  13.886   7.105  14.661  0.1263  0.1068  0.1938
29605W        W45414   1.783  16.399   3.554 -0.0480  0.1208  0.3054
29606W        W45415   9.334  16.392   3.149 -0.2464 -0.2197  0.5813
29607W        W45416  12.158  11.711   2.106  0.1407 -0.1680  0.1356
29608W        W45417  18.612  13.895   3.278  0.2665 -0.1299 -0.1265
29609W        W45418  10.163  16.048  12.352 -0.0264  0.0182 -0.3294
29610W        W45419   7.905   9.252   3.724 -0.0353  0.0229 -0.0170
29611W        W45420  11.146   8.739   2.092  0.1736  0.3466  0.0927
29612W        W45421   7.807  10.847   5.018  0.2237  0.2253 -0.5376
29613W        W45422   5.361  14.128   0.075 -0.3920  0.2278 -0.0387
29614W        W45423  11.387   9.017  12.555  0.2378 -0.1783 -0.1299
29615W        W45424  12.562   6.934  15.371  0.0039  0.0281 -0.0950
29616W        W45425   6.714   5.157   1.491 -0.2298  0.2416  0.0323
29617W        W45426  15.307  11.299   1.194  0.1030 -0.0161  0.0687
29618W        W45427  12.884  13.094  12.279  0.0756 -0.1016  0.0617
29619W        W45428   9.376   2.060   3.085 -0.1957 -0.3467  0.0276
29620W        W45429   5.198   8.939  13.167 -0.3541  0.0734  0.3445
29621W        W45430   5.892  15.720  14.176  0.0810 -0.1537  0.4145
29622W        W45431   8.806   0.912  13.783  0.4629 -0.2333  0.0085
29623W        W45432  17.876   1.488  14.504 -0.0516  0.3464 -0.3176
29624W        W45433  16.249  11.166  14.584 -0.0893 -0.1958  0.0617
29625W        W45434   0.935   1.000  12.272 -0.2158  0.1975  0.0548
29626W        W45435  16.591   5.817   3.444 -0.0408  0.2395  0.2338
29627W        W45436  17.678   8.975   4.976  0.0533  0.0258  0.1207
29628W        W45437   5.948  10.262  14.803  0.1957  0.2085 -0.0107
29629W        W45438  14.914   8.425  15.252 -0.2447  0.2559 -0.0160
29630W        W45439   7.985   1.437  13.559  0.3475 -0.0749  0.0422
29631W        W45440   5.012  16.147  12.795 -0.0514 -0.0099 -0.0151
29632W        W45441   3.914  13.295  14.811  0.0159 -0.1012 -0.1498
29633W        W45442   5.670  12.637   1.261  0.3529  0.2725  0.2358
29634W        W45443  12.537  17.274  12.244  0.1357  0.0595  0.2372
29635W        W45444  15.692  10.954  11.104  0.0685  0.0386 -0.0580
29636W        W45445   7.935   0.434  11.654 -0.0621  0.0694 -0.2501
29637W        W45446  15.198   8.772  13.186  0.1561 -0.0053 -0.0170
29638W        W45447   6.628   4.167  12.282 -0.4483 -0.0847  0.3150
29639W        W45448  18.097  15.082  12.657 -0.1699 -0.0959  0.2705
29640W        W45449   5.284  11.294  14.522  0.2344 -0.2443 -0.0623
29641W        W45450   7.319  18.610  13.402 -0.1526 -0.0351  0.0834
29642W        W45451   4.980  15.203   3.773  0.0205  0.1023  0.0964
29643W        W45452  14.613   7.207   3.912 -0.1489  0.0996 -0.1781
29644W        W45453  17.951  12.881   0.799  0.1412  0.0231 -0.1739
29645W        W45454  17.429   6.739   1.399 -0.1635 -0.0664  0.2235
29646W        W45455   1.553   7.272   3.102  0.0814  0.0354 -0.0301
29647W        W45456  17.868   6.584   3.042 -0.0551 -0.0681 -0.0071
29648W        W45457  14.771   6.632  15.303 -0.2169 -0.1138  0.1193
29649W        W45458  15.087   0.599  11.478  0.1275 -0.2330  0.0902
29650W        W45459   3.396   0.523   3.319  0.0483 -0.0781 -0.1914
29651W        W45460  18.008  17.282  10.613  0.2714  0.1760  0.0809
29652W        W45461   5.790  13.760  13.341 -0.0905 -0.0527  0.1040
29653W        W45462   2.521  11.538  11.464 -0.0769  0.0739 -0.1864
29654W        W45463  13.493  11.746   2.882  0.3233  0.0860  0.0977
29655W        W45464   9.439  11.114   3.370 -0.2675  0.2703 -0.3104
29656W        W45465  17.293  16.936   4.467 -0.1147 -0.0571 -0.0895
29657W        W45466   0.283  15.532   3.276 -0.0712  0.1333  0.0956
29658W        W45467  17.686  14.311  11.524 -0.2365  0.3342  0.1830
29659W        W45468  13.720  12.654   0.519  0.5874 -0.0113  0.2422
29660W        W45469   6.864   2.024   1.656  0.1673 -0.0603  0.0460
29661W        W45470  15.374   2.760  13.239 -0.0302  0.1352 -0.0905
29662W        W45471  11.882  17.462   1.905 -0.3440 -0.1709  0.3229
29663W        W45472   4.899   1.880  12.268  0.3458  0.0229  0.1930
29664W        W45473   2.219   9.091  12.673  0.0810  0.4075 -0.0791
29665W        W45474   8.485   2.219  10.678  0.1637  0.3646  0.1035
29666W        W45475  11.887  17.598  12.972  0.1186 -0.0875 -0.0478
29667W        W45476   4.267   9.746   1.437 -0.0547  0.2600 -0.1002
29668W        W45477   5.794  16.941  15.208  0.2686  0.0866  0.0558
29669W        W45478  17.311  16.226   3.907  0.3330  0.0889  0.1400
29670W        W45479   7.166  17.423  12.771  0.2094 -0.0107  0.1223
29671W        W45480  11.321   8.264   0.577 -0.2934 -0.0577 -0.2759
29672W        W45481   2.723  18.073   4.799  0.1330 -0.1199 -0.0005
29673W        W45482  11.592  16.891   0.847 -0.1718  0.2094  0.0550
29674W        W45483   0.784  15.433  12.938  0.0986 -0.1214  0.0837
29675W        W45484   5.208  10.117   0.772  0.1731 -0.2138 -0.0897
29676W        W45485   7.399   9.599  13.384 -0.2881  0.2387  0.0499
29677W        W45486   4.915   5.714  14.694  0.2910 -0.5966  0.1081
29678W        W45487  13.677  12.164   0.629 -0.0093 -0.0465 -0.2039
29679W        W45488  15.282   9.365   3.738 -0.1376 -0.0881  0.1155
29680W        W45489  10.965   0.204   1.267  0.1876 -0.2727 -0.0052
29681W        W45490   7.097  15.329   0.271 -0.4138 -0.0038  0.0745
29682W        W45491   4.554  11.244  12.299  0.2569 -0.3801  0.1783
29683W        W45492   1.164  18.162   2.557  0.0722  0.0414  0.1122
29684W        W45493   4.427  10.852  13.117 -0.1426  0.1276 -0.3601
29685W        W45494   6.025  12.433   1.548 -0.0286  0.1992  0.1181
29686W        W45495   1.200  12.134   0.585 -0.2314 -0.1722 -0.0846
29687W        W45496  17.908  10.323   3.190  0.0234  0.1507 -0.3378
29688W        W45497  10.130   1.510  15.106 -0.0054 -0.1441 -0.1178
29689W        W45498   8.818  14.978   1.693 -0.1338  0.0958 -0.1634
29690W        W45499   8.359  15.837  13.830 -0.0705 -0.2110 -0.1598
29691W        W45500   9.926  13.474   3.068 -0.1854 -0.0055 -0.3971
29692W        W45501   3.085  13.946   0.144 -0.1939 -0.0232 -0.1433
29693W        W45502   4.703   8.684   1.349  0.0517 -0.0342  0.0081
29694W        W45503   3.460  17.385  11.081  0.2227 -0.0436  0.1064
29695W        W45504   4.930   1.441  10.824 -0.0313  0.2140 -0.1185
29696W        W45505   8.638  13.665   1.373  0.3578 -0.0298  0.2691
29697W        W45506  15.497  10.444   0.641 -0.1186  0.1633 -0.2722
29698W        W45507   5.357  14.070   9.871  0.2445  0.0602  0.1050
29699W        W45508  12.921   9.917  12.156 -0.4023  0.1110  0.1925
29700W        W45509  17.563   4.759  13.361 -0.1794  0.2367 -0.2131
29701W        W45510  14.749   6.292   1.217  0.1083 -0.0280  0.2235
29702W        W45511   9.483  18.326  13.460  0.0995 -0.0495  0.1798
29703W        W45512   7.344   4.491   4.689  0.0405  0.0206  0.2445
29704W        W45513   8.596  18.623  10.325 -0.3466  0.1132 -0.1952
29705W        W45514   8.291   4.046   5.778  0.1031  0.1429  0.0562
29706W        W45515  14.720   8.622   0.122 -0.2575 -0.0374  0.0984
29707W        W45516  12.177  15.140  15.388 -0.0479 -0.0084 -0.1971
29708W        W45517  14.093  11.512  13.161  0.0383  0.0575 -0.1697
29709W        W45518  18.362   3.581  15.734  0.0873 -0.2032 -0.1558
29710W        W45519   7.097   9.899   3.103  0.1562 -0.0036 -0.0251
29711W        W45520  17.565  17.646   2.244  0.1222 -0.3680  0.0649
29712W        W45521   1.286  15.476  13.300 -0.2268  0.4534  0.4096
29713W        W45522   9.642   6.981   4.006 -0.1086 -0.1513  0.0832
29714W        W45523  16.025  14.448   9.935 -0.2538 -0.2528 -0.0361
29715W        W45524  15.142   0.735   3.358  0.3035 -0.2080  0.0435
29716W        W45525  15.694  13.741  13.034  0.2598 -0.1553 -0.2270
29717W        W45526  10.218   8.196  13.183 -0.2988  0.0031  0.2089
29718W        W45527  17.968  12.476   3.685 -0.1036 -0.0409  0.0648
29719W        W45528  18.656   5.484   3.969  0.0531  0.3093  0.1387
29720W        W45529  15.756   9.324   1.380  0.2453 -0.0320 -0.0612
29721W        W45530   1.691   6.779  12.206  0.0135 -0.0467  0.1817
29722W        W45531   3.892   2.836   0.853  0.2781  0.2401  0.1639
29723W        W45532   0.986   8.138   4.854  0.2181  0.0505 -0.0506
29724W        W45533   3.087  15.257  11.434  0.1622  0.0616  0.1130
29725W        W45534   6.496  12.500   0.510  0.0187 -0.1232 -0.2551
29726W        W45535  15.592  10.493  12.045 -0.4793 -0.2160  0.1914
29727W        W45536  11.128   2.695   4.312  0.0312 -0.1920  0.0029
29728W        W45537   6.546   9.165   5.460  0.0825 -0.0209  0.2586
29729W        W45538   8.665  11.071  12.923 -0.1965 -0.0991 -0.0322
29730W        W45539  17.861   1.134   0.115  0.1742 -0.0802 -0.2226
29731W        W45540  18.149   0.406   0.234  0.1881  0.4351 -0.0266
29732W        W45541   8.896   0.027  12.263  0.2823 -0.0494  0.0549
29733W        W45542   5.215   0.757  15.485  0.0169 -0.1208 -0.3382
29734W        W45543   9.738  16.734  14.302 -0.2066 -0.1147  0.2101
29735W        W45544   1.587   1.337   0.717 -0.2763  0.0893 -0.1158
29736W        W45545  15.812  16.699  10.120  0.1646  0.0752 -0.0985
29737W        W45546  11.337  15.856  13.636 -0.0244 -0.1890 -0.5013
29738W        W45547  17.187  17.849   3.126 -0.0310  0.1254  0.1821
29739W        W45548   7.305   2.357   1.833  0.0446  0.1703  0.0428
29740W        W45549   7.083   0.806  13.462 -0.2207 -0.0734 -0.0367
29741W        W45550   3.142  14.583   0.468 -0.1248 -0.0357 -0.2433
29742W        W45551  14.896   7.024   0.977  0.3800  0.1679 -0.4515
29743W        W45552  18.155  17.999  11.153  0.1322 -0.2914  0.0228
29744W        W45553   9.724  10.453   4.217  0.1082 -0.0876  0.1069
29745W        W45554  10.020  14.123   2.938 -0.1719 -0.0294  0.1810
29746W        W45555   0.814  14.051  11.903  0.0913 -0.0983 -0.0892
29747W        W45556  12.122  17.722  12.399 -0.0592 -0.0130  0.2263
29748W        W45557  13.355   5.199   1.329 -0.0526 -0.0832  0.2477
29749W        W45558   9.771   6.262   2.110  0.0284 -0.0606 -0.0325
29750W        W45559  18.500  17.717  10.914  0.0243  0.3644 -0.0048
29751W        W45560   2.853  15.879   0.601  0.1444 -0.0448 -0.1301
29752W        W45561  11.296   8.487   2.568 -0.4647 -0.1284  0.1642
29753W        W45562  13.140   7.691   3.403  0.3311 -0.1756  0.0027
29754W        W45563   7.282  16.729  11.694 -0.0422 -0.0037  0.1297
29755W        W45564   7.340  10.139   5.195 -0.1574 -0.2544 -0.1911
29756W        W45565  10.639   9.675   5.792  0.3338 -0.2258 -0.0313
29757W        W45566  12.090   0.593   2.768  0.0463 -0.0957  0.1026
29758W        W45567  14.132  15.932  10.512 -0.1816 -0.2759 -0.0385
29759W        W45568  14.069   8.511  11.891 -0.0050  0.1003  0.1898
29760W        W45569  11.129  16.843   2.062 -0.3488 -0.1703  0.2606
29761W        W45570  14.372  13.877  12.833 -0.0177 -0.0057 -0.1654
29762W        W45571   1.387   6.064  14.988  0.1149  0.0687  0.2002
29763W        W45572  10.321  11.128   3.680 -0.2559  0.0658  0.2160
29764W        W45573  10.277  11.155  14.161 -0.0875 -0.2594 -0.1116
29765W        W45574  13.762   7.742   0.925 -0.0030  0.2239  0.0353
29766W        W45575  14.794  12.136   3.039 -0.1311  0.0625  0.1690
29767W        W45576   2.398   7.480   5.236 -0.0140 -0.1536 -0.0103
29768W        W45577   2.089  13.533  12.800  0.1434 -0.3816  0.1452
29769W        W45578  16.054  15.631  14.495  0.0856 -0.1259  0.2085
29770W        W45579  16.440  17.653  11.392  0.1885  0.2077  0.1766
29771W        W45580  16.335   8.206   4.804  0.0377  0.0887 -0.1205
29772W        W45581  11.181   8.291  10.867 -0.1552  0.0132 -0.2634
29773W        W45582  13.770   6.554  12.694 -0.0229  0.0999  0.0824
29774W        W45583   7.029   0.753  15.701 -0.0589  0.1486  0.1188
29775W        W45584   5.723  13.711   9.764  0.0464 -0.0430 -0.0230
29776W        W45585   7.845   9.369   5.529 -0.3592  0.1610 -0.1743
29777W        W45586   4.760   6.281  12.975 -0.0301  0.0349 -0.0518
29778W        W45587   4.400   8.835   3.196 -0.0436  0.2418  0.0106
29779W        W45588   2.896  18.370   2.425 -0.0284  0.0965  0.1134
29780W        W45589  16.106  18.498  14.242 -0.0840  0.1822 -0.2142
29781W        W45590  13.706   0.652  14.950  0.0366  0.2936  0.0539
29782W        W45591  16.106   9.196   5.741  0.0480 -0.1414 -0.1296
29783W        W45592  11.553  16.600   1.956 -0.1339  0.0583  0.0444
29784W        W45593  14.883  11.625   2.215 -0.1265  0.2748 -0.0523
29785W        W45594  10.932   1.511  13.705  0.0593  0.0883  0.1714
29786W        W45595   3.818  16.774   2.831  0.1874 -0.1316 -0.1264
29787W        W45596   0.320  17.590  14.663 -0.2219  0.2311  0.1049
29788W        W45597  14.595   2.079   3.551  0.3474  0.4134  0.4329
29789W        W45598  16.099   0.775  15.350 -0.3417 -0.0715 -0.0403
29790W        W45599   3.678   1.933  14.901 -0.0945 -0.2586 -0.0032
29791W        W45600   3.424  17.187  10.585  0.1946 -0.0419  0.0312
29792W        W45601   6.118  12.989  12.523 -0.1867  0.1681  0.1075
29793W        W45602  16.936  16.316   2.190  0.1385  0.0183 -0.0312
29794W        W45603   7.863   3.921  10.971  0.1420  0.0219  0.0379
29795W        W45604  13.536   7.513   2.415 -0.0084 -0.2849  0.0697
29796W        W45605  13.901   2.868   3.859 -0.3700 -0.1529  0.0004
29797W        W45606  13.186   1.391   2.158 -0.3050 -0.0439 -0.0262
29798W        W45607   4.632  15.783   0.260  0.0373  0.0477 -0.1228
29799W        W45608  14.053   6.159   0.262  0.0062  0.1668  0.1436
29800W        W45609   9.619  13.103   1.129 -0.2677 -0.0396  0.0213
29801W        W45610  14.522   4.275  11.024  0.0826 -0.4198 -0.0377
29802W        W45611   0.815  11.901   0.883 -0.4108 -0.0050 -0.2016
29803W        W45612   1.143  14.651  13.109 -0.4153 -0.0352 -0.1197
29804W        W45613   2.464  12.147   3.516 -0.2242 -0.0080 -0.0005
29805W        W45614   8.278  11.670  15.028  0.1281  0.3105 -0.2590
29806W        W45615  17.795  14.046  13.561 -0.3027 -0.2354  0.0848
29807W        W45616   9.322  11.402   6.182  0.3787 -0.3341  0.1700
29808W        W45617  17.269  14.088  11.311  0.1315 -0.0414  0.2901
29809W        W45618   3.167   2.159   1.075  0.0142  0.0139 -0.1366
29810W        W45619  14.322   0.625   0.137  0.0606 -0.2031  0.1692
29811W        W45620   0.336  15.796   2.822  0.0349 -0.4092  0.0012
29812W        W45621   0.995   2.868   5.410 -0.0209 -0.1661  0.0685
29813W        W45622  13.717  11.431  15.540  0.0627 -0.1912  0.1324
29814W        W45623  14.537  17.457   0.329  0.2063 -0.2786 -0.0839
29815W        W45624   8.336   1.338  12.740 -0.1942  0.0966 -0.1067
29816W        W45625  13.878   7.975   1.692  0.0213  0.2675  0.0785
29817W        W45626  15.759  16.540  12.967 -0.0747 -0.2948  0.0400
29818W        W45627   2.347  12.444  11.108 -0.0093  0.0426 -0.0727
29819W        W45628   1.871  14.658  10.828 -0.2392  0.1226  0.1544
29820W        W45629   1.922   4.792   0.826  0.0589  0.3402  0.0950
29821W        W45630  18.011  17.233   4.549  0.1993 -0.0344  0.0989
29822W        W45631  14.008  16.722  12.674  0.0461  0.1181 -0.1300
29823W        W45632   7.209   4.258  12.022  0.0777 -0.0493 -0.0901
29824W        W45633  18.269   0.270  13.394  0.2871  0.0701  0.4263
29825W        W45634   5.705  13.791   0.334  0.0288  0.0317  0.1682
29826W        W45635  10.459   3.699  12.362 -0.1048  0.1353  0.1652
29827W        W45636  16.047  14.702  14.247 -0.2837  0.0620 -0.1670
29828W        W45637   2.403   3.206  15.223  0.1405  0.0281  0.0742
29829W        W45638  16.626  12.023  12.331 -0.0687 -0.2031 -0.1514
29830W        W45639   3.194   0.327   4.982  0.0854 -0.0819  0.0085
29831W        W45640  14.648   8.397  10.236  0.2172 -0.2547 -0.0206
29832W        W45641   6.785  12.359  15.692 -0.2303 -0.1280  0.1647
29833W        W45642   0.149  13.357  11.802  0.0089  0.3658  0.0488
29834W        W45643   6.929   8.615  13.876 -0.0489  0.0297  0.3011
29835W        W45644  12.693  12.675   4.263 -0.2415 -0.1278 -0.0010
29836W        W45645  10.868   2.544   1.913 -0.2658  0.2231 -0.4186
29837W        W45646  11.432   0.099   1.554  0.0284  0.1479 -0.0431
29838W        W45647  12.865   1.085  11.321  0.0049  0.0986  0.3336
29839W        W45648  12.439   2.282  11.818 -0.0523  0.1526  0.2668
29840W        W45649  12.308   7.174   3.153  0.1241 -0.1601  0.0020
29841W        W45650   4.620  12.174  13.447  0.0548 -0.4841  0.2760
29842W        W45651   9.488   4.569  14.852 -0.1013  0.0795 -0.1179
29843W        W45652   9.004   0.896   4.696 -0.2218  0.0597  0.1048
29844W        W45653   1.933   9.213   1.134 -0.2177  0.6287  0.1115
29845W        W45654  14.174   7.381   4.123 -0.0184  0.1557  0.0021
29846W        W45655   0.347   4.124  14.597  0.2855  0.3133 -0.3937
29847W        W45656   0.277   0.972  15.155 -0.3764  0.2216 -0.1616
29848W        W45657  17.999  11.685   0.978 -0.2383 -0.0776  0.0459
29849W        W45658  11.667  11.678  12.813  0.0524  0.1850  0.3002
29850W        W45659   8.771   4.991  15.093  0.2582  0.2462 -0.1580
29851W        W45660  15.836  13.378   1.618  0.0495 -0.0280  0.0883
29852W        W45661   7.391   3.804   0.141 -0.2530  0.1556  0.0366
29853W        W45662  10.103  10.509   2.422 -0.0586 -0.1514  0.0019
29854W        W45663  17.199   3.036  12.378 -0.3729  0.3822  0.2707
29855W        W45664   8.133  11.402   5.705 -0.1858  0.1763 -0.1721
29856W        W45665   0.316  12.475   0.213  0.0225 -0.1024 -0.1423
29857W        W45666   8.187  11.658   2.244  0.1443 -0.0834 -0.3951
29858W        W45667  18.176  13.479   5.279 -0.1618 -0.2895  0.0366
29859W        W45668   4.168   5.930   3.544  0.0394  0.1605  0.2145
29860W        W45669   7.183   0.466   2.858  0.1860 -0.0004  0.0421
29861W        W45670   9.667  12.250  13.291  0.1215  0.0470 -0.1401
29862W        W45671   9.490   5.485  15.220 -0.0216  0.1461  0.0251
29863W        W45672  17.436  12.937   5.776 -0.1202 -0.0466  0.1052
29864W        W45673  11.704   5.456   4.620  0.0760 -0.1222  0.0856
29865W        W45674  14.247  11.896  14.456 -0.2604  0.1186 -0.0821
29866W        W45675   2.418   6.179  14.894 -0.1685 -0.0639  0.0570
29867W        W45676   6.336   7.235   2.461 -0.4420  0.1426  0.0328
29868W        W45677  13.423  15.338   1.143  0.0914  0.1824  0.0204
29869W        W45678   9.494   7.308   3.072 -0.0553  0.0941  0.1339
29870W        W45679  10.636   4.339  12.392 -0.1836  0.0516  0.3313
29871W        W45680   0.142   2.727   2.103 -0.0053 -0.2126  0.1870
29872W        W45681  12.676   2.426   3.592  0.0096  0.1381 -0.0027
29873W        W45682  17.303  14.604   0.274 -0.1782  0.1947  0.2970
29874W        W45683  14.197   3.459   5.165 -0.4347  0.2415  0.0545
29875W        W45684  13.793  15.289   3.192 -0.0405  0.0896  0.0276
29876W        W45685   7.618  18.505   2.736  0.2909 -0.3205 -0.1384
29877W        W45686   1.720  10.670   2.878 -0.1700  0.0619  0.0790
29878W        W45687  16.061  11.016   1.063 -0.0898 -0.1275 -0.2520
29879W        W45688  10.785   4.740   2.878 -0.1900  0.1044  0.0772
29880W        W45689   0.772  11.652   2.772 -0.0166  0.0651  0.1677
29881W        W45690   3.489   4.270   3.919  0.2672  0.2938  0.2632
29882W        W45691  14.862  14.725  15.745  0.2879  0.0611 -0.0347
29883W        W45692   0.382  18.471  10.853 -0.1902  0.3674 -0.0133
29884W        W45693  17.116  13.595   0.352  0.0873 -0.1220  0.2494
29885W        W45694   9.079   6.863  12.078 -0.0180 -0.1459 -0.2916
29886W        W45695   4.624   9.862   0.909 -0.0601  0.0571  0.1302
29887W        W45696  13.028   9.196  13.758  0.2808  0.0387 -0.1606
29888W        W45697   8.313   9.683   5.354  0.0356  0.1993  0.0750
29889W        W45698   1.371   2.656  11.965 -0.0895  0.0841  0.2360
29890W        W45699  18.636   6.883   1.021  0.0600  0.0135  0.1430
29891W        W45700  11.455   1.044  14.995  0.2551  0.0382 -0.2172
29892W        W45701  15.358  10.452   5.923  0.0857  0.2966 -0.2600
29893W        W45702   6.116  14.143  11.115 -0.3338 -0.0282 -0.2558
29894W        W45703   0.053  14.763   0.193  0.1890 -0.4485 -0.2677
29895W        W45704   9.621   4.135  14.127  0.0550  0.4590  0.0990
29896W        W45705  14.037  16.590  11.849 -0.1668 -0.0767 -0.3943
29897W        W45706  16.674   4.202   0.051 -0.3125 -0.1079  0.2048
29898W        W45707  16.264   9.423  12.559  0.1288  0.1425  0.0030
29899W        W45708   8.489  17.964  11.929  0.0324  0.0075 -0.3034
29900W        W45709  11.719   2.315  10.745  0.0645 -0.0896  0.0204
29901W        W45710  13.086   5.962   2.998 -0.0064  0.0595 -0.0237
29902W        W45711   1.911   7.903   1.211  0.2167 -0.3047  0.1901
29903W        W45712  16.828  13.312   5.103  0.2116  0.2228 -0.2574
29904W        W45713  18.563   0.987  14.698 -0.1345 -0.0264 -0.0714
29905W        W45714  10.419   2.729   1.695 -0.0477 -0.0271 -0.0626
29906W        W45715   9.255   2.555   1.221  0.0808 -0.2772  0.1597
29907W        W45716  16.146   8.392   2.481 -0.1027 -0.3265  0.2959
29908W        W45717   7.332   1.486  10.672 -0.1518 -0.2926 -0.3298
29909W        W45718   3.334   8.771  13.854  0.1825 -0.3983  0.0755
29910W        W45719   1.424   0.102   3.786 -0.2824  0.1774  0.0764
29911W        W45720  11.171  18.182   2.222 -0.0761 -0.0438  0.0265
29912W        W45721  13.484  10.444   0.028  0.1249  0.3072  0.2998
29913W        W45722   8.811   1.197  12.395 -0.1316 -0.0648  0.1221
29914W        W45723   4.838  12.725  12.099  0.0690 -0.1234 -0.2033
29915W        W45724   3.792  15.961  14.762  0.3102  0.1344  0.1184
29916W        W45725  17.524   9.712  11.394 -0.2635 -0.0334 -0.0462
29917W        W45726   5.835   3.047  12.962  0.0910 -0.0725 -0.2226
29918W        W45727  13.170   2.369   4.514  0.3881  0.0848  0.3099
29919W        W45728  12.125   5.897  12.524  0.0268 -0.0188 -0.2053
29920W        W45729   3.431   5.965   2.157  0.0123 -0.4014 -0.1590
29921W        W45730  18.568   5.112   2.113  0.0011  0.1584  0.0033
29922W        W45731   5.492  13.599  15.567 -0.0765 -0.0567  0.2556
29923W        W45732   2.880   9.527  15.747  0.1090  0.2242 -0.1405
29924W        W45733   0.655   6.954  12.263 -0.0322 -0.0779 -0.2163
29925W        W45734   0.042  11.489  14.188 -0.1146  0.4656 -0.1553
29926W        W45735  13.969   6.229  11.856 -0.0827 -0.3558  0.3319
29927W        W45736   1.381   3.581   5.890  0.1135  0.1770  0.1188
29928W        W45737   7.580   6.195   0.835  0.5705  0.1250  0.2973
29929W        W45738  16.853   0.248  13.465 -0.1199 -0.0296  0.0003
29930W        W45739  17.090  11.341  15.042  0.2110 -0.0270 -0.0288
29931W        W45740  14.683   0.984  11.608 -0.1344  0.1620  0.1378
29932W        W45741   2.667  16.088   0.139  0.4169  0.5307  0.1205
29933W        W45742   9.751  10.453  14.061  0.1043 -0.2534 -0.2152
29934W        W45743  16.173   7.018  11.288  0.0814 -0.1142  0.3056
29935W        W45744  11.187  16.284  13.275 -0.0515 -0.3210 -0.1241
29936W        W45745   3.874   7.369  14.502 -0.0952  0.3271  0.0962
29937W        W45746   7.535  10.367  13.244 -0.3008 -0.2476 -0.0305
29938W        W45747   5.252   2.769   0.461  0.1339 -0.2428 -0.1135
29939W        W45748  15.785  16.264  12.520  0.1837  0.1662 -0.1246
29940W        W45749  17.434   5.830   2.323 -0.1038 -0.2617  0.0766
29941W        W45750   0.203  17.021   2.941  0.1112 -0.4205 -0.0189
29942W        W45751  17.083   6.190   1.949 -0.0661 -0.1299  0.0050
29943W        W45752  11.836  16.177   3.706 -0.3414  0.2991  0.4560
29944W        W45753   5.359   4.903   4.527  0.4022 -0.1732  0.1970
29945W        W45754  15.414  15.850   2.414 -0.0247 -0.2501 -0.1708
29946W        W45755   3.437  16.313   1.035  0.3539 -0.2246 -0.0015
29947W        W45756   7.967  13.355  12.065  0.1390 -0.1481 -0.0469
29948W        W45757  11.347  14.072  11.661 -0.0275  0.4153 -0.1168
29949W        W45758  13.587  13.782  10.549  0.0067  0.3195 -0.2338
29950W        W45759  14.690   4.975  14.700 -0.1369 -0.1282 -0.3059
29951W        W45760   2.983  16.150  12.518  0.1359 -0.0610 -0.0106
29952W        W45761  17.526  15.314  11.250  0.0380  0.1152 -0.0477
29953W        W45762  14.082   5.289  12.495 -0.0918  0.0088  0.2156
29954W        W45763   3.894   5.560  15.746 -0.2115  0.0160  0.3929
29955W        W45764  10.773   8.484  11.131 -0.1997 -0.1071 -0.0785
29956W        W45765   7.044   6.579  11.596  0.0515  0.0810 -0.2424
29957W        W45766  16.869   3.224   1.862  0.1504 -0.1276 -0.2271
29958W        W45767  17.119   0.084   0.416  0.1242 -0.1117 -0.0056
29959W        W45768   6.839  15.846   0.164 -0.3235 -0.2148  0.2208
29960W        W45769   7.773   9.835   5.237  0.3341  0.2034  0.1015
29961W        W45770   0.397   0.972   3.755 -0.1732  0.0524 -0.1212
29962W        W45771   3.234   8.112   2.167 -0.1590  0.0748 -0.2452
29963W        W45772   0.753   4.581  12.668  0.1467 -0.1565 -0.1168
29964W        W45773  15.011  12.434  14.093 -0.0095 -0.0320  0.0450
29965W        W45774   1.625  10.759   1.109  0.0425  0.1743 -0.0266
29966W        W45775  12.308   8.129  14.075 -0.0840 -0.0006 -0.0219
29967W        W45776  10.180   0.246   4.620  0.0050 -0.2189  0.1353
29968W        W45777   8.069  17.715  11.957 -0.0111 -0.0253  0.2852
29969W        W45778  11.728   2.655   4.650  0.1693  0.1848  0.0938
29970W        W45779   2.924   1.170  11.665  0.2006 -0.2220 -0.0045
29971W        W45780   5.861   7.153   2.329  0.0582 -0.0392  0.2087
29972W        W45781  12.528  12.952   9.412  0.0762  0.1824 -0.0110
29973W        W45782   4.081  10.886  14.851  0.3222 -0.2442  0.3369
29974W        W45783   9.155  10.644   0.336 -0.0146 -0.2826 -0.0122
29975W        W45784   5.308   3.099  13.078 -0.0084 -0.0371  0.0338
29976W        W45785   4.314  18.293  13.603  0.1982  0.1917 -0.0007
29977W        W45786   8.103   1.803   4.440  0.1129  0.1003  0.0571
29978W        W45787  17.981   8.058   4.037  0.2339 -0.1598  0.0581
29979W        W45788  17.487  15.948  15.193  0.1617  0.1223 -0.0264
29980W        W45789   2.242  13.814  14.862  0.2084  0.0020  0.0400
29981W        W45790   8.070  11.908  10.742  0.2015 -0.0327  0.2398
29982W        W45791   5.088  13.803  15.337 -0.1565 -0.0974 -0.1549
29983W        W45792  10.368   7.379   1.392  0.0532 -0.0213 -0.0544
29984W        W45793  15.800   6.665  11.164  0.1464  0.2793  0.0555
29985W        W45794  13.874   7.858   3.784 -0.0063  0.1160 -0.2582
29986W        W45795   6.456   7.053   5.334  0.3716 -0.0780 -0.1872
29987W        W45796   2.397   6.000  14.071  0.1177  0.0892  0.1181
29988W        W45797   2.452  15.170  11.786  0.1720  0.0315  0.0226
29989W        W45798   4.482   2.549   1.195  0.0226  0.1832 -0.0866
29990W        W45799  14.670  17.465   3.775 -0.0989  0.0247 -0.0212
29991W        W45800  17.064  17.500  15.370 -0.0868  0.0394 -0.0265
29992W        W45801  18.652   8.793  12.684 -0.1004 -0.7061  0.3208
29993W        W45802   7.159   3.328   5.156 -0.1196 -0.2971  0.0533
29994W        W45803  18.482   3.175   2.930  0.0017 -0.0500 -0.2197
29995W        W45804  13.898  18.576  12.722 -0.0524 -0.0852  0.1460
29996W        W45805  18.162   1.024   4.962 -0.0742  0.3325  0.2557
29997W        W45806   4.572  10.429  15.398  0.0654  0.3409  0.0822
29998W        W45807   1.203  13.773  12.203  0.0401  0.0535  0.2415
29999W        W45808   3.646   9.885   0.877 -0.2312  0.2181  0.1267
30000W        W45809   3.780  11.885  14.023 -0.1772 -0.0292  0.0623
30001W        W45810   7.214   5.528  13.202  0.1254 -0.4289 -0.1242
30002W        W45811   4.237  10.099   2.331  0.2034  0.0520  0.2501
30003W        W45812   8.063  10.927   2.155 -0.0914  0.0620  0.0787
30004W        W45813   0.956  16.997  14.501 -0.0112  0.0400  0.3855
30005W        W45814   1.422   8.099  15.182  0.1989 -0.0271 -0.2767
30006W        W45815   0.683   1.105  14.888 -0.0726 -0.0979  0.2633
30007W        W45816  18.297  10.664   5.295  0.3434  0.2222  0.3153
30008W        W45817   6.265  13.608   4.859 -0.0813 -0.1521 -0.2696
30009W        W45818   8.135  13.561  13.078 -0.3404  0.0870 -0.0741
30010W        W45819   1.849   0.908   3.626 -0.0159 -0.1415  0.0103
30011W        W45820  14.348   0.554   3.044  0.1182 -0.0683 -0.4139
30012W        W45821  11.787  16.389   0.894 -0.0825 -0.4004 -0.1654
30013W        W45822   3.149   1.412   2.277  0.0496  0.2151  0.1024
30014W        W45823  12.679  10.077  13.317  0.0926 -0.0880 -0.0572
30015W        W45824  14.820   0.334   0.828  0.0593 -0.1761  0.0710
30016W        W45825   7.469  15.740  13.696  0.1234 -0.3540  0.0292
30017W        W45826  17.874   3.240   3.246 -0.3445  0.1123  0.1046
30018W        W45827   4.837   1.025   5.031 -0.1746 -0.0519 -0.3067
30019W        W45828   4.831   4.735   4.541 -0.1820  0.1139 -0.0372
30020W        W45829  16.669  14.521  10.657  0.0664  0.0034 -0.1801
30021W        W45830  15.099   2.068   2.386  0.1432  0.0800 -0.0751
30022W        W45831  13.112  15.945   3.101 -0.0940 -0.0162 -0.0585
30023W        W45832   0.758  17.952   4.928 -0.0414  0.3916 -0.0540
30024W        W45833  16.115  13.235   0.148 -0.1264 -0.1315 -0.0194
30025W        W45834   1.171   9.723   2.743  0.0581 -0.2952  0.2821
30026W        W45835   1.587  11.443   5.161 -0.1516 -0.1795  0.0845
30027W        W45836  16.037   9.378   4.563  0.0701  0.0734  0.3667
30028W        W45837   6.809   4.115  10.764  0.2642 -0.0263  0.1342
30029W        W45838   8.020   2.753  10.012  0.0738  0.1912 -0.2786
30030W        W45839   7.087  10.089  13.141  0.2168 -0.3190 -0.5779
30031W        W45840   4.808  12.285   5.287 -0.3151  0.0630 -0.0787
30032W        W45841   7.568   4.665   5.305  0.0464 -0.2012  0.1989
30033W        W45842   1.886   4.487  12.283 -0.3576  0.0386 -0.1825
30034W        W45843  11.813   6.732  10.417  0.0838 -0.1137  0.3246
30035W        W45844   8.377  13.171   1.737 -0.0082 -0.1576 -0.1586
30036W        W45845  17.742   2.350   4.674 -0.4145 -0.0588  0.0117
30037W        W45846   3.863  15.682   9.720  0.3037  0.1320  0.1081
30038W        W45847  13.645  18.503   2.365  0.0408 -0.3756 -0.0608
30039W        W45848  16.497  15.638   1.388 -0.2792  0.1465  0.2106
30040W        W45849   4.069  14.813   5.255  0.0156  0.3038 -0.1437
30041W        W45850   9.774   6.325   3.196 -0.1041 -0.1881 -0.0002
30042W        W45851  13.153   5.521  15.645  0.3715 -0.0896  0.1038
30043W        W45852   6.879  12.215  11.038 -0.0277 -0.0454 -0.1150
30044W        W45853   4.260  16.659  13.169 -0.3080 -0.0198  0.2743
30045W        W45854  16.457   2.758   0.770  0.0148 -0.3014  0.1236
30046W        W45855  15.301  16.028  12.691  0.1578 -0.0869  0.2163
30047W        W45856  18.527  10.432   2.682 -0.1017  0.0014 -0.1067
30048W        W45857   5.283  18.168   1.743 -0.1381  0.3291 -0.1683
30049W        W45858   2.151   0.429   2.245 -0.0654 -0.0906  0.0073
30050W        W45859   0.456   1.599  13.857 -0.0819 -0.3720 -0.0765
30051W        W45860  16.368   9.670   0.513 -0.0455 -0.1506  0.1508
30052W        W45861   8.414  10.044  15.133 -0.0430 -0.3118 -0.2428
30053W        W45862   3.186   9.662   0.557 -0.0628 -0.0769  0.0679
30054W        W45863  10.244  16.086  15.338  0.1222 -0.1900  0.0409
30055W        W45864  11.314   0.126   2.068  0.0636  0.0294 -0.3458
30056W        W45865  18.009  15.576  14.489 -0.1045 -0.0595 -0.2530
30057W        W45866  12.589  12.077  10.800  0.1279  0.2985 -0.0035
30058W        W45867  17.053   1.551   0.199 -0.0294  0.2487  0.0049
30059W        W45868   7.104   3.687  13.207 -0.1979  0.1154  0.2742
30060W        W45869  15.288   7.661  12.357  0.1824  0.0044  0.1830
30061W        W45870  13.893  15.832   2.391  0.0794  0.0030 -0.1203
30062W        W45871   0.883  10.690   4.224 -0.0849 -0.2940  0.1806
30063W        W45872   0.867  11.158   1.401 -0.2739 -0.0871  0.0505
30064W        W45873  12.670   7.216   0.502 -0.1547 -0.2460 -0.0430
30065W        W45874   1.166  11.929   1.523 -0.1657  0.1346  0.0445
30066W        W45875   1.293   7.793  14.155 -0.0548  0.2789 -0.0415
30067W        W45876   3.291  17.189  14.843 -0.2385 -0.0474 -0.0930
30068W        W45877  12.324   9.369  15.241  0.0364  0.1438  0.2699
30069W        W45878  12.019   0.327  14.063 -0.1082 -0.1642  0.2992
30070W        W45879   7.249  16.084   9.729 -0.0370 -0.1246 -0.1519
30071W        W45880  11.045  15.804   2.887 -0.2921 -0.3532  0.1480
30072W        W45881   9.720   0.592   2.918  0.0926 -0.2207 -0.1196
30073W        W45882   4.594  12.242  14.044  0.0970  0.0020 -0.1323
30074W        W45883  10.223  18.204   3.327  0.2603  0.1357 -0.3487
30075W        W45884  13.003  10.815   2.044  0.1110  0.3195 -0.2090
30076W        W45885   4.372  18.129   1.737 -0.1608 -0.0234 -0.0971
30077W        W45886  16.853  17.795   0.839  0.0610  0.0237 -0.2258
30078W        W45887   0.380   1.767  14.351 -0.1062 -0.1694 -0.3208
30079W        W45888   9.077   3.873   1.255  0.4299 -0.1730 -0.1270
30080W        W45889   9.823   2.073  11.910 -0.1165  0.2225  0.2243
30081W        W45890  12.719   5.762   4.895 -0.0557 -0.1106 -0.0173
30082W        W45891   0.163  11.024   3.872 -0.2951 -0.2631  0.2950
30083W        W45892   3.329  12.332   4.593  0.0304  0.0793  0.2602
30084W        W45893   5.506  17.305   1.295 -0.0053 -0.1112  0.3868
30085W        W45894   6.755  17.331  13.109 -0.0633 -0.3049  0.1312
30086W        W45895   5.916  15.124   2.955 -0.0345 -0.2580  0.0190
30087W        W45896  18.224   9.573   5.528 -0.0807  0.0841  0.2273
30088W        W45897   7.284   5.723  13.719 -0.0507 -0.5511  0.0095
30089W        W45898   6.381   4.114  11.695 -0.3291 -0.0843  0.1807
30090W        W45899   2.315   2.765   4.668 -0.3417  0.1773  0.1074
30091W        W45900   0.535   0.791   3.072  0.1093  0.0441  0.0950
30092W        W45901   9.245  11.643   3.151  0.1043  0.0331 -0.3871
30093W        W45902   7.593  17.538   1.742  0.2559  0.2259 -0.0985
30094W        W45903   8.567   5.593   4.305 -0.0562 -0.0361  0.1754
30095W        W45904   8.240  13.322  13.909 -0.0491 -0.1939  0.2780
30096W        W45905   4.055   2.604  12.170  0.0971  0.2113 -0.1106
30097W        W45906   4.776   0.466   0.553  0.2408  0.2282  0.0172
30098W        W45907   6.379  12.652   2.080 -0.3000  0.0400  0.0045
30099W        W45908  14.802   5.006  13.409 -0.0617  0.0785  0.3680
30100W        W45909  10.878  11.756   5.161 -0.2532  0.1774  0.1370
30101W        W45910   9.466  11.692  13.544 -0.1932 -0.0487 -0.0963
30102W        W45911  17.276  16.007   2.443 -0.1960 -0.3312 -0.2592
30103W        W45912  13.956   4.788  14.512  0.0222 -0.1558 -0.2111
30104W        W45913  16.140  15.734   2.299 -0.1913 -0.0323 -0.1454
30105W        W45914   7.679   0.183   4.085  0.1158  0.0179  0.4519
30106W        W45915   3.273  15.326  12.383 -0.1655 -0.0030 -0.1146
30107W        W45916  12.568   5.982   3.077  0.0404  0.0395 -0.0821
30108W        W45917  16.977   8.765   3.670 -0.1216 -0.1953  0.2998
30109W        W45918  11.330   0.778  12.751  0.0855  0.3962 -0.1518
30110W        W45919   1.177  16.682  12.574  0.2464  0.1419  0.0707
30111W        W45920  18.533   5.831  12.532 -0.1627  0.0992 -0.1147
30112W        W45921   2.569   2.010   4.103  0.0576 -0.2048 -0.3030
30113W        W45922  17.326  17.154  15.625  0.0074  0.2187 -0.1099
30114W        W45923   6.021   0.295  13.665 -0.0052  0.0871 -0.3526
30115W        W45924   5.313   9.499  13.958 -0.0847  0.1961 -0.2149
30116W        W45925  14.348  10.221   3.260  0.4155  0.1036  0.2533
30117W        W45926   5.475  16.878   2.087  0.2028 -0.0839  0.0845
30118W        W45927  11.905   7.267  12.399  0.0690 -0.3291 -0.1630
30119W        W45928   0.454  11.519   4.885  0.0327  0.1935  0.2227
30120W        W45929  15.112   0.547   0.093  0.1406 -0.1236 -0.3299
30121W        W45930  11.498   9.117   3.650  0.0921 -0.2200 -0.0882
30122W        W45931  18.096   1.851  13.138 -0.2670 -0.2308  0.0281
30123W        W45932   8.685  18.354  15.018  0.0398  0.0151  0.2219
30124W        W45933   7.573   3.009  12.009 -0.2400  0.3875 -0.1513
30125W        W45934   4.415  17.132   4.456  0.0067  0.2099 -0.0134
30126W        W45935   4.188  15.070   4.250 -0.2193  0.0687  0.1685
30127W        W45936   2.473  12.029   2.208  0.0348  0.2037 -0.1434
30128W        W45937   5.418  14.419  11.630  0.1065  0.2060 -0.3731
30129W        W45938  12.868  17.530  11.809  0.5121  0.0411 -0.0318
30130W        W45939  14.763  12.091  13.155 -0.0954  0.1020 -0.1013
30131W        W45940  15.318  16.600   9.996 -0.2130  0.2324  0.0676
30132W        W45941   7.838  18.252  13.116  0.2601  0.0248 -0.0312
30133W        W45942   0.368  18.587   0.195 -0.1964  0.3792 -0.2140
30134W        W45943  17.575   5.694   4.479  0.1306  0.1516 -0.1390
30135W        W45944  11.713   9.075   4.152  0.1712 -0.2530  0.1542
30136W        W45945   7.989  17.197   0.357 -0.0765 -0.0482 -0.0735
30137W        W45946  18.082  12.932   3.812  0.0203  0.0722  0.3663
30138W        W45947   3.702   7.831   5.174  0.2184 -0.4250 -0.2233
30139W        W45948  10.074  10.202   0.823  0.0971  0.1301 -0.0723
30140W        W45949   6.063   9.233   5.440 -0.1517  0.3687 -0.3657
30141W        W45950  11.501   5.159  13.251  0.3725 -0.1769  0.2577
30142W        W45951   2.361  17.958   3.118  0.2634 -0.0335  0.0938
30143W        W45952  11.488   4.516   0.329  0.0776  0.0756 -0.2788
30144W        W45953  14.798   2.412   0.517 -0.1539 -0.0245  0.3440
30145W        W45954  13.447  16.189   4.358 -0.0531  0.1319 -0.0592
30146W        W45955  18.128   0.552  11.441 -0.0028  0.0127 -0.2136
30147W        W45956  16.429  12.489   3.711  0.3940  0.2835  0.1631
30148W        W45957  14.970   4.507   5.809 -0.1758  0.0609  0.0475
30149W        W45958   4.961   0.851  13.638  0.3161 -0.1213 -0.2983
30150W        W45959  13.267   5.284  14.056  0.0512  0.0753 -0.0860
30151W        W45960  14.171   9.430   1.135  0.0358 -0.4051  0.0518
30152W        W45961   9.303  13.912  12.463 -0.0533 -0.0352  0.3652
30153W        W45962  17.786  11.149  13.946  0.3608 -0.1628 -0.0779
30154W        W45963   5.124  11.831   2.075  0.0369 -0.0627  0.1760
30155W        W45964   3.372  15.273   4.296  0.2969 -0.1227  0.0674
30156W        W45965  17.536   4.948  12.309  0.1348 -0.1378  0.2612
30157W        W45966   5.556  16.171   9.612  0.2683 -0.1037 -0.0585
30158W        W45967  10.302  16.278  11.490 -0.0102 -0.4420  0.0571
30159W        W45968  10.791  10.877  14.092  0.0433 -0.3113 -0.1054
30160W        W45969   9.012   0.852   1.780  0.1659  0.1882 -0.0607
30161W        W45970   4.812   1.428   0.764  0.0204 -0.3859 -0.4006
30162W        W45971   7.281  17.871  12.577  0.2959  0.1510 -0.0373
30163W        W45972  14.882   7.090  14.169 -0.4376  0.1389  0.0510
30164W        W45973  13.339  13.951  14.266  0.1874  0.0395 -0.2983
30165W        W45974  15.692  10.232  14.308 -0.1680 -0.2512 -0.1397
30166W        W45975  11.882   2.339  12.769 -0.1295 -0.2360  0.0587
30167W        W45976   1.511   7.376   5.364 -0.0807 -0.0853  0.0025
30168W        W45977  17.920  12.547  13.383  0.0041  0.2302  0.0758
30169W        W45978  11.650   8.687   2.161  0.5116  0.0800  0.0649
30170W        W45979   6.821  12.750  13.745 -0.0776 -0.0275  0.4956
30171W        W45980   3.523  10.548   2.936 -0.2722  0.0260  0.1453
30172W        W45981   4.570   7.520   1.851 -0.0113  0.0088 -0.4063
30173W        W45982  16.791  14.812   0.186  0.0962 -0.1033 -0.0490
30174W        W45983  18.443  11.762  13.321  0.0851  0.0943 -0.1968
30175W        W45984  15.529  10.180   3.553  0.0380  0.1678 -0.1702
30176W        W45985   8.918   6.373  15.448 -0.1488  0.1159  0.1773
30177W        W45986   0.757  10.212  14.859 -0.0286 -0.2445 -0.2374
30178W        W45987   9.378   3.670  13.905  0.0650  0.0653  0.0293
30179W        W45988  12.054   2.352  14.492  0.1016 -0.2434 -0.0005
30180W        W45989   2.649   8.394   1.938 -0.2773 -0.3881  0.0233
30181W        W45990  17.807  16.813  13.662 -0.0868  0.1080  0.1076
30182W        W45991  15.270  13.634   0.248  0.3976 -0.1977  0.1157
30183W        W45992  10.554   9.309  12.793  0.1611 -0.1050  0.2057
30184W        W45993   7.369  14.796   3.794 -0.1472  0.0959 -0.0271
30185W        W45994  15.570   6.836   5.452 -0.1926 -0.0273 -0.0124
30186W        W45995  14.026  17.250   0.135  0.0465  0.1218  0.2655
30187W        W45996   1.289  18.079   1.594  0.2732  0.3035 -0.0485
30188W        W45997  11.275  13.106   2.992 -0.0951  0.3249 -0.1060
30189W        W45998  13.646   9.964   2.630 -0.1256  0.0879  0.0894
30190W        W45999  12.376  12.135  12.184 -0.0971 -0.0282  0.0627
30191W        W46000   7.116  14.611  12.319 -0.2396 -0.0482  0.0504
30192W        W46001   5.095   9.300   2.491 -0.2790  0.0757 -0.1372
30193W        W46002   7.699   1.926   1.253  0.0516 -0.0581  0.0290
30194W        W46003   7.262   2.683  11.739 -0.0567  0.1247 -0.0480
30195W        W46004  17.420  14.942  11.608  0.0507  0.2632  0.1033
30196W        W46005   9.201   1.580   5.292  0.0961 -0.4387  0.0035
30197W        W46006  14.558   0.592   2.040  0.1590 -0.0260  0.2147
30198W        W46007   8.540  18.591   2.603 -0.0225  0.0188 -0.1311
30199W        W46008  10.356  16.383   0.081  0.1576 -0.1129  0.0420
30200W        W46009  11.837   1.758   3.517  0.3876 -0.1376  0.1087
30201W        W46010   6.560  10.801  14.528  0.2881  0.1133  0.0725
30202W        W46011   2.786   7.354  11.317  0.1708 -0.0409 -0.0897
30203W        W46012   8.319  12.122  15.284 -0.2561 -0.2466 -0.1316
30204W        W46013  15.946  17.601   3.655  0.1301 -0.2530 -0.3416
30205W        W46014   4.953  12.609  13.019  0.0876  0.0751 -0.4047
30206W        W46015   4.379   3.210   0.331 -0.1409 -0.1299  0.0008
30207W        W46016   5.598   9.973   0.387 -0.0157  0.2655 -0.1427
30208W        W46017   2.250  12.412   5.078  0.0717  0.0208  0.2439
30209W        W46018  13.280  12.678  15.708  0.1104  0.3303 -0.1606
30210W        W46019  13.800  17.417  11.179 -0.1411 -0.0521 -0.0546
30211W        W46020  16.834  14.691  12.087 -0.2312 -0.0405  0.1370
30212W        W46021  18.545  17.833  10.429 -0.4033  0.0466  0.1361
30213W        W46022   6.636   4.495  14.988 -0.0957  0.0464  0.3421
30214W        W46023  16.881  14.264   0.355 -0.3514  0.0148  0.3300
30215W        W46024   5.815  10.368   3.089 -0.0635 -0.0187 -0.0219
30216W        W46025   6.932  17.009   0.061 -0.0768 -0.2679 -0.1524
30217W        W46026  10.558  15.813   0.802 -0.1126  0.0978 -0.2511
30218W        W46027  12.254   5.715  14.490  0.0998 -0.0500 -0.0521
30219W        W46028   7.136   4.742  15.186  0.2712 -0.3016  0.3558
30220W        W46029   2.670   1.505   4.206 -0.1338  0.2461 -0.1429
30221W        W46030  16.016   7.390   0.664  0.0896  0.1095  0.1646
30222W        W46031   9.280   6.634   3.912  0.0426  0.0882 -0.0234
30223W        W46032   7.247  12.199   0.129  0.1319 -0.2805  0.3357
30224W        W46033  15.723   0.168  12.924  0.1916  0.1179  0.0617
30225W        W46034   1.310  16.186  12.729 -0.0214 -0.0173  0.4388
30226W        W46035  11.075   1.952   1.296 -0.1399 -0.0463  0.0788
30227W        W46036   6.819  16.317  13.063 -0.0990 -0.1048 -0.0183
30228W        W46037   2.351   8.829   3.228 -0.1591 -0.0853 -0.1094
30229W        W46038  16.008  13.694  10.958 -0.0486  0.2080 -0.1008
30230W        W46039   6.352  17.623  13.251 -0.2598 -0.0371 -0.0340
30231W        W46040   2.189  18.405   5.631  0.0288  0.0716 -0.3852
30232W        W46041   5.120  12.473   2.473 -0.0397  0.0642  0.1968
30233W        W46042   6.880   4.324  14.500 -0.0324  0.1990  0.1567
30234W        W46043  10.913  16.021  15.664  0.0203 -0.0313 -0.1259
30235W        W46044   4.208  17.123   2.708 -0.0333 -0.1905  0.0945
30236W        W46045  14.171  17.412  14.517 -0.1877  0.1783 -0.0388
30237W        W46046   7.426   7.441   4.851 -0.1174 -0.1074  0.2080
30238W        W46047  15.005  12.588   4.580  0.0099 -0.0218 -0.1012
30239W        W46048  12.384  11.112   2.864  0.1290  0.0043  0.1811
30240W        W46049   7.181  13.799   4.776  0.0465 -0.1459 -0.3122
30241W        W46050   8.500   5.733   1.987 -0.1292  0.0934 -0.1428
30242W        W46051   7.885  14.039   3.130  0.0943  0.0444 -0.0645
30243W        W46052  10.112   9.149  13.032  0.0285  0.0055  0.3282
30244W        W46053  16.999  17.264  14.731  0.1950 -0.4293 -0.0436
30245W        W46054  12.313  17.949   4.642  0.0013 -0.0338 -0.0506
30246W        W46055  14.400   4.755   1.635 -0.0701 -0.0825  0.0830
30247W        W46056  14.075   0.067   1.578 -0.2388  0.0186  0.3817
30248W        W46057  16.718  11.967  11.228 -0.2866  0.1633 -0.1561
30249W        W46058  16.188   4.630  10.731  0.1215 -0.2172 -0.0345
30250W        W46059   7.996   5.986  14.526  0.0149  0.0629  0.0700
30251W        W46060  11.883   4.894  12.757  0.1779  0.2203 -0.1479
30252W        W46061   2.926  14.243  11.305  0.0969 -0.0323 -0.0339
30253W        W46062  13.859  13.401   4.344  0.3209  0.1231  0.0252
30254W        W46063   6.629   1.136   2.870 -0.2541 -0.0659  0.2110
30255W        W46064   7.456  14.793  15.257  0.1564  0.0409 -0.2191
30256W        W46065   5.636  16.799   1.268 -0.1342  0.2795 -0.2477
30257W        W46066   5.017   9.351   1.515  0.2373 -0.0832  0.0163
30258W        W46067  15.514   6.236  12.057 -0.0458 -0.1816 -0.1199
30259W        W46068   2.056  15.271   0.200  0.0075 -0.0397 -0.0348
30260W        W46069   1.536  14.743  10.476 -0.1232  0.4383  0.0906
30261W        W46070   9.365  15.206   2.633 -0.0217 -0.0666  0.2516
30262W        W46071   6.242  11.809   0.452  0.0458 -0.0447  0.0728
30263W        W46072   3.864  14.322   4.547 -0.0937 -0.1350  0.2176
30264W        W46073  11.801   1.324  13.087  0.1092 -0.3240 -0.1006
30265W        W46074  14.157  16.351   3.158 -0.3484 -0.3434  0.2377
30266W        W46075  10.960   6.593  10.943  0.0520  0.2813  0.0612
30267W        W46076  12.665   0.366   3.164  0.4177 -0.0157  0.4266
30268W        W46077   3.267  10.593   1.964 -0.0601 -0.2908 -0.0541
30269W        W46078   9.014   1.073   5.411 -0.2410 -0.3722 -0.0545
30270W        W46079   9.253   7.268  13.890  0.2299  0.0027  0.1452
30271W        W46080   8.991   0.647   5.131  0.1846 -0.0548  0.3382
30272W        W46081  17.445   8.570  15.000  0.0898 -0.1870  0.1010
30273W        W46082  11.648  12.512  12.029  0.1292 -0.1065 -0.0304
30274W        W46083   4.514   9.402   3.337 -0.0253 -0.3596  0.1025
30275W        W46084   3.417  11.822  15.161  0.1914  0.1441 -0.1962
30276W        W46085   8.835  11.801   1.706  0.0649 -0.4703 -0.3855
30277W        W46086   5.842   4.813  15.345 -0.0365 -0.1849 -0.1614
30278W        W46087  12.540   8.290   1.877  0.0058  0.0134 -0.0563
30279W        W46088  16.377   9.444  11.843  0.2595  0.0464 -0.0962
30280W        W46089   7.038   3.061   4.769 -0.0255 -0.1738 -0.1580
30281W        W46090  12.544   9.511  12.233 -0.0821 -0.1414  0.0552
30282W        W46091   8.766  14.666   2.109 -0.1948  0.0207  0.0982
30283W        W46092   7.052  15.149  12.972 -0.0098  0.1822  0.2579
30284W        W46093  14.319  13.311  12.012  0.2132  0.1284  0.1078
30285W        W46094  13.500   7.321  11.250  0.1354 -0.0946 -0.1732
30286W        W46095  12.056  10.697   0.376  0.0055 -0.1349 -0.0008
30287W        W46096   9.003  16.181   0.213 -0.0290 -0.1255 -0.1176
30288W        W46097   7.717   2.894   2.010 -0.4541 -0.0993  0.3522
30289W        W46098  15.183   6.951  13.739  0.0138 -0.0702 -0.2459
30290W        W46099  11.710  10.800  15.668  0.0916  0.2012 -0.1805
30291W        W46100   9.512   2.638  12.347  0.1182  0.1794  0.0607
30292W        W46101  10.735   5.921   5.019 -0.0509 -0.0801  0.1552
30293W        W46102  12.491  15.581   1.936  0.2051 -0.1273 -0.0880
30294W        W46103   5.329   5.469  15.292  0.0145  0.0131  0.0119
30295W        W46104   2.939   7.519   6.107  0.0439  0.1938  0.1068
30296W        W46105  14.052  12.102   4.714  0.0236  0.2374  0.1530
30297W        W46106  13.779   9.196  15.009 -0.3365  0.0078 -0.1152
30298W        W46107   2.204   0.533   0.083  0.2544  0.1239  0.1369
30299W        W46108  11.294   4.557   4.893  0.0663 -0.0281 -0.0888
30300W        W46109   8.974  14.122  11.455  0.0657 -0.1578  0.0887
30301W        W46110  12.238  12.115   1.228  0.0780  0.1185  0.0483
30302W        W46111  13.606  11.919   0.085 -0.0790 -0.3514  0.1251
30303W        W46112  13.278  12.507  11.917  0.0660  0.1957  0.1171
30304W        W46113   7.590   5.356   4.099  0.0340  0.2731 -0.1737
30305W        W46114  16.011  14.090  12.825 -0.1321  0.1209  0.0379
30306W        W46115  14.311  16.012   9.965  0.1461 -0.2298 -0.1022
30307W        W46116  11.945   8.051   3.413 -0.1911 -0.3677  0.2777
30308W        W46117  17.587  17.210   4.148 -0.1258 -0.1130  0.3093
30309W        W46118  16.396   5.339  14.896  0.0786 -0.1078  0.0271
30310W        W46119  17.909  14.243  12.010  0.0938 -0.3575 -0.1424
30311W        W46120   6.370  11.969   1.392 -0.1731  0.2179 -0.1487
30312W        W46121  15.382  15.859   0.607 -0.1374 -0.0774  0.4434
30313W        W46122   4.182  14.343  11.803 -0.1015  0.1085  0.0741
30314W        W46123  13.359  11.624   4.165 -0.1583 -0.0680  0.3587
30315W        W46124  16.686   8.967   2.736 -0.0143  0.2397 -0.0507
30316W        W46125   8.021   5.171  13.653  0.0995 -0.1766  0.0050
30317W        W46126   5.194   1.937   2.219 -0.1451  0.1181  0.0114
30318W        W46127   8.218  15.957   1.574 -0.0675 -0.3335 -0.1427
30319W        W46128   4.927  13.483   4.962 -0.0966 -0.0281 -0.2037
30320W        W46129   7.056   4.294   1.330  0.1712  0.1421 -0.0242
30321W        W46130  17.383   2.696   1.025 -0.0524 -0.0037  0.1803
30322W        W46131   9.870   6.111   2.706 -0.1034  0.1159 -0.3739
30323W        W46132  12.561  11.280  14.821 -0.2249 -0.0477  0.0750
30324W        W46133   3.325   7.832   1.756 -0.1912  0.1867 -0.0690
30325W        W46134   8.295   0.421  11.156 -0.0308  0.1920 -0.2402
30326W        W46135  17.851  15.568   3.785 -0.0842 -0.0604  0.4006
30327W        W46136  11.621  10.202   3.515 -0.2072 -0.2033  0.1158
30328W        W46137  12.304   6.079   1.604 -0.1069  0.2031 -0.0600
30329W        W46138  15.740   9.001  14.721 -0.2338  0.1881 -0.0323
30330W        W46139   4.830   9.005   0.254 -0.1655  0.1569  0.3113
30331W        W46140   8.043   6.519  14.180  0.1084  0.3140  0.3939
30332W        W46141   0.222  12.479   1.879 -0.1653 -0.0183 -0.3545
30333W        W46142  14.097   5.240  11.894 -0.1484 -0.1095 -0.0501
30334W        W46143   7.109   6.315   1.126 -0.2889 -0.0193  0.1708
30335W        W46144  12.404   8.141   0.640 -0.2337 -0.2572 -0.0116
30336W        W46145  14.567  11.664  12.889  0.3011 -0.3306  0.0506
30337W        W46146  14.120  13.061   5.032 -0.1658  0.0320  0.1144
30338W        W46147   1.857   7.854  14.861 -0.0473  0.2743  0.0040
30339W        W46148  16.466   9.115   0.750  0.4254  0.0276 -0.2893
30340W        W46149  15.829   8.134   3.087  0.1801 -0.2253  0.1247
30341W        W46150   3.854  12.941   2.930  0.3040 -0.0542  0.0339
30342W        W46151   3.335  13.497  15.198 -0.0114 -0.2629  0.0432
30343W        W46152  10.032   7.341  13.654  0.0997 -0.0506 -0.2356
30344W        W46153  18.048  12.331  12.741  0.3663 -0.2167  0.1828
30345W        W46154  10.581  18.036  13.120 -0.0561  0.5084  0.2653
30346W        W46155  10.119  14.516   4.676 -0.2628  0.2340  0.0102
30347W        W46156  16.611   1.200  14.481  0.1707 -0.1781 -0.1122
30348W        W46157  16.751   1.179   3.324  0.0225 -0.2780 -0.2354
30349W        W46158   0.215  14.466  10.973 -0.0030 -0.0027  0.1218
30350W        W46159  18.269   1.190  13.788  0.1146 -0.1094  0.1204
30351W        W46160   0.402  11.270  13.858  0.0244  0.3047  0.0122
30352W        W46161   4.274   6.780  15.249 -0.2983 -0.1070 -0.0714
30353W        W46162  12.207   5.234  10.843 -0.0471 -0.0303  0.0702
30354W        W46163   4.516  10.865   3.600  0.0587  0.3673 -0.1933
30355W        W46164   8.006  11.490  14.074 -0.0302 -0.1500 -0.1477
30356W        W46165   8.609   9.705   2.677  0.0632 -0.2002  0.1675
30357W        W46166  14.046   1.780   5.151  0.0512 -0.0551 -0.1908
30358W        W46167  10.023   3.806  12.675 -0.2311  0.3785 -0.0205
30359W        W46168  17.548  13.111   3.954  0.1810  0.2429 -0.1355
30360W        W46169  11.235   8.966   1.160  0.0421 -0.0074 -0.1650
30361W        W46170   9.587  16.931  12.921 -0.2387  0.5138  0.1626
30362W        W46171   9.651  17.041  11.687  0.0168 -0.2366  0.0595
30363W        W46172   2.802   5.271   4.300 -0.0395  0.0567  0.1766
30364W        W46173   7.586  16.063  11.213 -0.0739 -0.1019  0.1813
30365W        W46174   0.553   6.214   4.386 -0.1922 -0.1101 -0.1104
30366W        W46175  18.526  10.195  11.355 -0.1239  0.1435 -0.2808
30367W        W46176  18.633   1.171   2.348  0.0111  0.0520  0.1713
30368W        W46177   8.897   7.807  14.813 -0.0081  0.0296 -0.1878
30369W        W46178  13.269   7.812  12.096  0.0753 -0.1808  0.0326
30370W        W46179  16.656  14.441   3.170 -0.0260  0.1582 -0.0539
30371W        W46180   2.525   7.509  12.987 -0.1307  0.0817  0.0160
30372W        W46181  13.765   9.661   5.314 -0.0938  0.1949  0.0250
30373W        W46182   0.396   8.490   5.471 -0.4059  0.2313 -0.6322
30374W        W46183   6.565   3.589  15.350 -0.0881 -0.1809 -0.0678
30375W        W46184  14.079   4.328  14.408 -0.1688  0.2188  0.2425
30376W        W46185  15.889  10.416  10.998 -0.2374  0.1486  0.0627
30377W        W46186  16.292  18.316  15.707 -0.1270  0.1416 -0.2204
30378W        W46187  14.505  10.842   4.351 -0.0202  0.0661 -0.0884
30379W        W46188   8.788   8.085   4.543  0.0237 -0.1120  0.1200
30380W        W46189   1.482   2.505   1.689 -0.1154  0.1052  0.0456
30381W        W46190  18.386   3.951  13.364 -0.0367 -0.1072 -0.1376
30382W        W46191   4.718  13.679  11.664 -0.0389  0.1089 -0.0207
30383W        W46192  17.958   8.355   2.500  0.0202 -0.0385  0.0505
30384W        W46193   7.623   6.350  14.958  0.4146 -0.0616 -0.1499
30385W        W46194  14.606   8.807   1.008 -0.1448 -0.2060 -0.0942
30386W        W46195   0.929  18.474  10.645  0.3639 -0.1020  0.0847
30387W        W46196  11.773   3.765  14.793 -0.0283  0.0340 -0.2045
30388W        W46197   8.043   3.875  10.395 -0.0938 -0.1726  0.2190
30389W        W46198   2.135   2.440   4.013  0.3935  0.2190 -0.0566
30390W        W46199  10.656  17.069  13.213 -0.0451 -0.3623  0.2686
30391W        W46200  13.644  12.718  15.377  0.0307  0.1503 -0.1118
30392W        W46201   2.316   6.178   5.310 -0.2841  0.0722 -0.0147
30393W        W46202   6.240   2.132  13.765  0.1588 -0.2201 -0.2993
30394W        W46203   1.169   5.932  13.300  0.0932  0.0292  0.1014
30395W        W46204   3.891   1.212   5.040 -0.4661 -0.0821 -0.0209
30396W        W46205  17.598   1.696   0.956  0.0313 -0.0329  0.0333
30397W        W46206   8.167  15.557   4.640  0.1945  0.0369 -0.1284
30398W        W46207   8.548  17.467   5.134 -0.0486  0.0993  0.5092
30399W        W46208  15.529   6.378   5.213 -0.1251 -0.1232  0.0680
30400W        W46209  13.059   3.273  15.673 -0.0824  0.1588  0.2743
30401W        W46210  10.494  11.382  13.015  0.1312 -0.0291 -0.4116
30402W        W46211  11.836  18.090  14.052  0.4500 -0.3564  0.1443
30403W        W46212  13.592   4.434  14.589 -0.0132  0.2982  0.0369
30404W        W46213   1.306   1.340   1.145  0.0888 -0.1452  0.0500
30405W        W46214   8.957   9.240   5.396 -0.0793 -0.1241 -0.0695
30406W        W46215  11.869  17.054  11.055 -0.1172  0.1049  0.2427
30407W        W46216  15.907   7.907   2.606 -0.1828  0.0467  0.1734
30408W        W46217   5.665   5.101   5.426 -0.0370 -0.0111  0.0451
30409W        W46218   6.609  13.485   1.758 -0.2706  0.1070 -0.0985
30410W        W46219  12.353  16.311   0.245 -0.0080 -0.0563 -0.2253
30411W        W46220  17.442   2.718  13.233  0.3481  0.3065  0.2674
30412W        W46221   6.046   9.757  11.738 -0.0629 -0.1123 -0.2341
30413W        W46222   5.403   6.395   2.067 -0.0863  0.1835 -0.1918
30414W        W46223   3.361   4.975   2.901  0.0735 -0.0419  0.1014
30415W        W46224   0.772  17.495  14.511  0.1932 -0.0023  0.1667
30416W        W46225   1.788   8.213   4.282  0.0656 -0.0876 -0.0203
30417W        W46226  15.527  13.927  14.316 -0.0751  0.1098  0.1870
30418W        W46227   8.673   3.161   1.822  0.2675 -0.0231 -0.0134
30419W        W46228   0.830   6.065  11.535  0.2143  0.3298  0.0459
30420W        W46229  18.115  11.340  12.687 -0.1403 -0.0058 -0.1416
30421W        W46230  12.672   2.610  13.189  0.0678 -0.0528  0.2051
30422W        W46231  12.623   8.159   2.491  0.2312  0.2555  0.1445
30423W        W46232   8.135   3.473   3.228  0.0680 -0.0109 -0.0436
30424W        W46233  15.771  12.452   0.857 -0.0612  0.0695 -0.0979
30425W        W46234  10.959   2.853   1.503 -0.0604  0.0518  0.0875
30426W        W46235   6.674   6.949  14.717 -0.2561  0.2838 -0.1009
30427W        W46236  14.123  16.075  13.707 -0.1850  0.0339 -0.0084
30428W        W46237  17.542  11.125   4.434  0.1890  0.3221  0.1953
30429W        W46238  12.239   2.042  10.782  0.0203 -0.0069 -0.1895
30430W        W46239  16.710  14.986  14.814  0.4521 -0.3245  0.0774
30431W        W46240  18.076  11.608  14.514  0.0164 -0.4259  0.0154
30432W        W46241   4.588   8.195   5.421  0.1452  0.0273 -0.1731
30433W        W46242  14.862   7.272  11.768 -0.1757  0.1731 -0.0488
30434W        W46243   7.322   5.353  11.167  0.0150 -0.0094 -0.0027
30435W        W46244   4.932  12.641  14.187 -0.1154  0.0508  0.2241
30436W        W46245  13.336   6.729   5.273 -0.1422 -0.3139  0.3696
30437W        W46246   9.245  14.905   4.691 -0.3859 -0.3946 -0.0019
30438W        W46247  12.201   9.642  14.423  0.1762  0.0430  0.0663
30439W        W46248   5.442   9.685   0.776  0.1378 -0.1679 -0.1215
30440W        W46249   2.315  12.581   2.362  0.0744  0.0359 -0.1341
30441W        W46250  11.017  12.048   4.733  0.1863 -0.2217 -0.2148
30442W        W46251   6.584  11.123   0.827  0.2651  0.2063 -0.1996
30443W        W46252  14.936   6.895  12.152  0.0344  0.2687 -0.0110
30444W        W46253  12.172  13.847  15.182 -0.2455  0.0174 -0.4150
30445W        W46254  14.527  13.089   5.316 -0.0384  0.0613  0.1634
30446W        W46255   5.843  12.826  10.844 -0.0137  0.2050 -0.0866
30447W        W46256   8.943   8.925   4.631 -0.0613  0.1290  0.2272
30448W        W46257   3.730   6.875   3.196 -0.1392 -0.1108  0.1425
30449W        W46258   2.448  15.625   0.469 -0.2182 -0.0243  0.4313
30450W        W46259   3.064  18.089   5.386  0.0957 -0.0872 -0.1186
30451W        W46260  15.346   6.796   0.874  0.2202 -0.1807  0.1740
30452W        W46261   2.669   8.496   4.857 -0.0535 -0.0100 -0.0836
30453W        W46262   8.300   9.321   0.777 -0.2031 -0.4381 -0.2082
30454W        W46263   0.552  14.407   4.126  0.0895 -0.1930  0.1027
30455W        W46264   4.905  11.896  11.878  0.0999  0.0661 -0.3170
30456W        W46265   7.077   5.513   0.762  0.4379  0.0320 -0.1307
30457W        W46266  16.504  17.918   4.951  0.2729 -0.1969 -0.1355
30458W        W46267   3.036   2.553   4.773 -0.1859  0.1212 -0.1152
30459W        W46268   1.174   9.738   0.511  0.3334 -0.1632  0.0186
30460W        W46269   3.732   7.943   1.463  0.1808 -0.2223  0.1286
30461W        W46270   8.280   3.960  14.312 -0.0658 -0.2671 -0.0734
30462W        W46271  14.090  15.992  14.764 -0.3266  0.0759 -0.1495
30463W        W46272  13.236  15.618   2.366 -0.0582  0.0266  0.0872
30464W        W46273  15.847  14.585  11.300 -0.1162  0.1569 -0.1497
30465W        W46274   0.698  11.020  12.865 -0.3477  0.1654  0.0201
30466W        W46275  16.212   0.607  11.274 -0.3517  0.0234  0.1111
30467W        W46276  16.365  17.695  14.316 -0.2513  0.2318 -0.3833
30468W        W46277  12.359  12.673   4.679 -0.2758 -0.1110 -0.1630
30469W        W46278   3.054   7.876  13.202 -0.2918  0.0519  0.0423
30470W        W46279   1.530  13.167   0.749  0.1409 -0.0617 -0.2847
30471W        W46280   6.693  16.337   3.544  0.0219 -0.0864 -0.2294
30472W        W46281   6.668   1.076   4.798 -0.0338  0.0654 -0.0252
30473W        W46282   1.268  17.477   4.091  0.2571 -0.1945  0.3271
30474W        W46283  17.658  15.339  13.587 -0.2355  0.3310  0.2060
30475W        W46284  14.015  11.798  11.590 -0.1144 -0.5683  0.0959
30476W        W46285   2.111   7.960   0.714  0.0188  0.4396  0.2110
30477W        W46286  15.472  11.030   0.262 -0.1558  0.1951 -0.2053
30478W        W46287   8.169   7.366   3.290 -0.0285  0.1973 -0.0965
30479W        W46288   5.823   0.250  15.089 -0.0134  0.0755  0.3411
30480W        W46289  14.672  13.260   0.322 -0.1085  0.2902  0.0356
30481W        W46290   8.947   8.356  14.731 -0.4081  0.1667  0.1049
30482W        W46291   4.161   1.018  14.023 -0.0202  0.0187  0.0196
30483W        W46292   4.232   3.701  12.541  0.0712 -0.1081  0.1731
30484W        W46293  12.303  12.023   3.903 -0.1031  0.0765  0.0894
30485W        W46294   3.940   8.142   4.802 -0.0680 -0.1233 -0.3386
30486W        W46295   1.924   0.661  12.069  0.1782 -0.1010 -0.0950
30487W        W46296  13.003  15.356   3.761 -0.0285  0.2202  0.0403
30488W        W46297  10.918  17.459   0.002  0.1195 -0.0933  0.2124
30489W        W46298   9.475  17.987  11.678 -0.2224 -0.1566  0.0011
30490W        W46299  11.350  12.210   1.266  0.2177 -0.1339  0.3081
30491W        W46300  17.982  16.618   1.335 -0.3207  0.0394  0.2746
30492W        W46301   9.383   5.746   0.648 -0.0649 -0.3290 -0.1179
30493W        W46302   4.490   2.411   3.983 -0.0604  0.1608 -0.0131
30494W        W46303  14.737   8.772   2.033  0.0277  0.0985 -0.3239
30495W        W46304   3.962  11.066  11.134 -0.1028 -0.0040 -0.5457
30496W        W46305   8.154   3.049  11.806  0.1759 -0.3179  0.3406
30497W        W46306   1.126   8.345  15.496  0.0665  0.2000 -0.2702
30498W        W46307  11.321  14.959  11.926  0.0638  0.3279 -0.1789
30499W        W46308   9.434   4.785  13.040 -0.0926 -0.2881 -0.0074
30500W        W46309  13.533  11.124   1.217  0.2963  0.1358  0.1412
30501W        W46310   9.435   2.945  12.694 -0.0928  0.0544  0.1448
30502W        W46311  17.524   7.233  14.998 -0.1051  0.1505  0.0442
30503W        W46312   6.983   4.892  13.777 -0.0553  0.0627  0.3221
30504W        W46313   5.922  14.762  11.818  0.1029 -0.0548  0.1378
30505W        W46314   6.961   6.419   2.991  0.1584 -0.0406  0.2536
30506W        W46315   7.228   8.881  14.678 -0.4717 -0.3467  0.0133
30507W        W46316   2.382  14.782  13.872  0.0902 -0.2406 -0.0112
30508W        W46317  14.852   4.896  15.540 -0.1217 -0.1161 -0.1207
30509W        W46318   3.872  10.118  12.089 -0.1449  0.0333  0.0169
30510W        W46319   6.056   0.758  13.283  0.0597  0.0177  0.1904
30511W        W46320   5.121   0.637   4.845  0.0824 -0.1707  0.1075
30512W        W46321   4.791   5.774   3.391  0.1040 -0.0305 -0.1083
30513W        W46322   8.938   1.280   1.206  0.1221 -0.1657  0.4163
30514W        W46323  17.046   5.462  13.465 -0.3827 -0.1089  0.0299
30515W        W46324  17.391  10.595  12.065 -0.5814  0.1523  0.1172
30516W        W46325  11.718  18.116  13.025 -0.1642  0.0521 -0.1195
30517W        W46326  12.535   4.150   1.937  0.0400 -0.0396 -0.1825
30518W        W46327   2.097  17.612  11.500 -0.1105  0.2998 -0.0835
30519W        W46328   6.789   0.606   4.962 -0.1374  0.1724  0.0713
30520W        W46329   0.751   0.263   2.280 -0.0463  0.1645  0.2400
30521W        W46330  10.288   7.038  15.681 -0.1995  0.1943 -0.1637
30522W        W46331  13.880   3.901   1.732 -0.0723  0.0305 -0.1448
30523W        W46332  13.613  15.580   0.574 -0.4035 -0.0096  0.0356
30524W        W46333   2.477  14.294   1.099 -0.4680  0.1968  0.0263
30525W        W46334  17.180  18.451   5.191 -0.0006 -0.1415 -0.2051
30526W        W46335   1.905   3.350  10.938 -0.3625  0.1395 -0.0642
30527W        W46336  12.859  14.642  10.149 -0.0241 -0.2759  0.2427
30528W        W46337  11.067   8.464   1.014 -0.0948 -0.0688 -0.4739
30529W        W46338   6.030   7.932   5.860 -0.2936 -0.0179  0.2351
30530W        W46339  15.320  11.102   4.625  0.0728 -0.0449  0.0294
30531W        W46340   2.924   9.066   3.690  0.0479 -0.1330  0.2547
30532W        W46341  15.402   1.645  12.587  0.0040  0.0650 -0.1469
30533W        W46342   3.528   2.032  14.073 -0.1649  0.2349 -0.1822
30534W        W46343  17.222  16.071  14.739 -0.0866 -0.0643  0.0464
30535W        W46344   8.418  12.935   3.965 -0.0244 -0.1141  0.1173
30536W        W46345   8.127  13.698   0.276  0.0502  0.2524 -0.1836
30537W        W46346   0.276   2.303   5.068 -0.0732  0.0975  0.3007
30538W        W46347   5.094   1.506  11.992 -0.2690 -0.3649  0.0216
30539W        W46348   1.789  17.231   4.008 -0.1899  0.2122 -0.0435
30540W        W46349  17.026   2.046   3.285  0.1456  0.2677 -0.0936
30541W        W46350  10.412   2.406  11.227  0.3162  0.1401  0.2715
30542W        W46351  12.161  10.442   0.819 -0.0786  0.1138 -0.1496
30543W        W46352  14.178   5.482   2.927 -0.0296  0.4264  0.0894
30544W        W46353  13.145   6.089   1.198  0.2262 -0.1026 -0.0260
30545W        W46354  16.916   4.345   3.359 -0.0386 -0.1376  0.3581
30546W        W46355  13.904  16.415  13.410 -0.6667  0.3465  0.0088
30547W        W46356   8.217   6.164  12.873  0.0388 -0.6505 -0.1788
30548W        W46357   1.743  10.838  13.660  0.1583  0.1313  0.0830
30549W        W46358   4.456   0.920  10.773  0.3251 -0.2282 -0.3704
30550W        W46359  13.685  11.038  10.880  0.1889 -0.2714  0.0426
30551W        W46360  18.579  16.154   1.317 -0.1879 -0.0222  0.0156
30552W        W46361  13.543   9.805   1.759  0.1722 -0.2369 -0.3403
30553W        W46362  17.019   0.147  15.689  0.0366 -0.1977 -0.0854
30554W        W46363   8.832   1.920   0.957 -0.0427 -0.2521  0.1997
30555W        W46364   1.176  16.041  15.307 -0.1368 -0.0203 -0.1214
30556W        W46365   7.182  13.766   1.845 -0.1243  0.2868 -0.0126
30557W        W46366  10.363  11.771  15.100  0.2043  0.1477 -0.3451
30558W        W46367   2.256  17.519   0.519 -0.2487  0.0423 -0.0374
30559W        W46368  17.837  13.652  12.873  0.2635 -0.1385 -0.0224
30560W        W46369   4.271  16.226  15.163  0.3662  0.3987 -0.0572
30561W        W46370   3.074   7.383   0.003  0.2072 -0.1761 -0.1052
30562W        W46371   4.845   7.934   4.463 -0.1983  0.0201  0.2045
30563W        W46372   0.204  16.289  12.021 -0.4024  0.1638 -0.2017
30564W        W46373  16.313   6.726  13.177 -0.0875 -0.0724 -0.2270
30565W        W46374  16.907   5.713   2.141 -0.1881  0.0113 -0.1077
30566W        W46375  11.421  11.986   0.696 -0.0930  0.0618 -0.0979
30567W        W46376   3.458  13.434   3.520  0.4116  0.2682  0.1914
30568W        W46377  17.037   2.928   0.374 -0.0945  0.1587 -0.1724
30569W        W46378   8.267   4.520   5.772 -0.1012  0.0706 -0.2514
30570W        W46379   9.315  16.929   3.189 -0.2203  0.0362  0.2405
30571W        W46380  17.783  17.266  13.184  0.4885  0.1394  0.1025
30572W        W46381   2.339   0.322  13.359 -0.0617 -0.0569  0.1161
30573W        W46382   5.952  12.055   3.921 -0.0137 -0.1737 -0.1328
30574W        W46383   1.506   6.320  12.408  0.0714 -0.2936  0.1103
30575W        W46384  11.722   5.733   2.221 -0.1125  0.2065  0.2045
30576W        W46385  15.428  12.959  10.910 -0.0696 -0.0720  0.0107
30577W        W46386  11.410   0.427  10.985  0.1208 -0.3554 -0.0506
30578W        W46387   0.359  18.495   2.697  0.2836  0.2988 -0.0764
30579W        W46388   1.345   9.096   3.777 -0.1051  0.0889  0.1978
30580W        W46389   3.743  13.095  10.902 -0.0531 -0.4168  0.3205
30581W        W46390   0.991   9.384   4.850 -0.0900 -0.3123 -0.0435
30582W        W46391   0.651   2.875   1.534  0.4756 -0.3329 -0.0682
30583W        W46392   6.183   3.740   1.183 -0.0117 -0.0682  0.0973
30584W        W46393   2.724   5.359   5.754 -0.1640 -0.1530 -0.0099
30585W        W46394   8.603  10.396  14.730  0.0792  0.0803  0.2941
30586W        W46395  14.818   1.335  15.059  0.1020 -0.2660 -0.1242
30587W        W46396  17.191  14.508  11.510  0.4347  0.0948  0.2355
30588W        W46397  15.843   0.312   0.832 -0.0703  0.0677 -0.0103
30589W        W46398   2.307   8.433  12.122 -0.0655  0.0793 -0.4046
30590W        W46399   7.355  17.039  10.721 -0.0530  0.0766  0.0062
30591W        W46400  10.190   0.882  12.203  0.1732  0.0977 -0.2189
30592W        W46401  11.253  14.140  10.633 -0.2571  0.0033 -0.0012
30593W        W46402  11.375  17.186   0.503  0.0437 -0.1302  0.0481
30594W        W46403   4.565   8.454  11.899 -0.3814 -0.2206 -0.3199
30595W        W46404  16.740   4.115  11.307 -0.2273 -0.0770 -0.2621
30596W        W46405  14.113  16.352  12.320  0.0558 -0.0482 -0.3682
30597W        W46406   2.129   3.307  14.052  0.0748 -0.1059  0.0620
30598W        W46407  14.424  15.768  13.162 -0.0516  0.0922 -0.2285
30599W        W46408   2.431   9.765   3.013  0.0511 -0.0451  0.1501
30600W        W46409   9.754   8.153  12.736  0.1607 -0.1941 -0.0243
30601W        W46410  16.922   7.132   0.476 -0.1183  0.0728  0.2218
30602W        W46411   5.117  10.533   5.084  0.4366  0.1568  0.0730
30603W        W46412  11.203  11.993  13.302 -0.1578 -0.0503 -0.3600
30604W        W46413  14.737   7.534   4.943 -0.0813  0.1846 -0.0602
30605W        W46414   4.232   9.393  13.973 -0.0310 -0.4876  0.1104
30606W        W46415   3.843  16.155  10.501 -0.2393  0.1087 -0.1031
30607W        W46416  11.004   5.078  12.650 -0.0754 -0.1246 -0.2052
30608W        W46417  15.018   8.879   0.501  0.3201 -0.2058  0.1221
30609W        W46418   8.173   0.957   0.206 -0.0033  0.1471 -0.1112
30610W        W46419  17.944   7.847   2.864 -0.1443 -0.2541  0.1752
30611W        W46420   1.905  14.181   5.011 -0.1197  0.0809 -0.0403
30612W        W46421   4.269   4.232  15.241  0.1424 -0.1409 -0.3727
30613W        W46422  17.400  12.828  14.072  0.2521  0.2097 -0.1517
30614W        W46423  12.088   6.846  11.561 -0.0169 -0.0615 -0.1337
30615W        W46424  12.785  17.457   0.586 -0.3293  0.2353 -0.0761
30616W        W46425   5.449  16.374   3.048  0.1142  0.2076  0.2082
30617W        W46426   1.613  12.288   3.728 -0.3070 -0.0325 -0.2253
30618W        W46427  13.751   2.261  11.377 -0.3111  0.0582  0.1358
30619W        W46428  15.557  17.719   4.782 -0.0884 -0.0459 -0.0666
30620W        W46429   4.279  10.249   2.795  0.2201 -0.1381  0.1996
30621W        W46430  15.914  15.317  12.524 -0.1991 -0.0057  0.1066
30622W        W46431   9.046  11.244  11.103 -0.1956 -0.1182  0.0962
30623W        W46432  16.660   8.574   5.143  0.0366 -0.0313 -0.0308
30624W        W46433   5.386   8.913  14.626  0.0537 -0.1841  0.0683
30625W        W46434  15.724  12.227  12.981  0.2299 -0.1175  0.1427
30626W        W46435   5.798  11.308   1.324 -0.1089 -0.2803  0.2278
30627W        W46436  15.841  13.519  14.850  0.3128 -0.4280  0.0600
30628W        W46437   9.764  13.725  10.704 -0.0605 -0.0781  0.3205
30629W        W46438   0.056  13.001  13.320 -0.2416  0.2867  0.2917
30630W        W46439   6.260   1.989  14.850 -0.3396  0.0366 -0.1233
30631W        W46440   2.812  15.090  10.982  0.2711  0.1500  0.2693
30632W        W46441  17.161  18.465  13.534 -0.2010  0.0562  0.0613
30633W        W46442  14.715  15.033  10.283 -0.0758  0.1718 -0.0306
30634W        W46443   6.336  14.239  13.959  0.0650  0.3774 -0.0765
30635W        W46444  10.435   4.731   1.170  0.0115 -0.0987 -0.0699
30636W        W46445   9.289   9.853  15.631 -0.3081  0.0366  0.0651
30637W        W46446   6.596   5.835  11.660  0.1225 -0.1158  0.3672
30638W        W46447  13.148   2.400  13.054 -0.3861  0.0834 -0.0120
30639W        W46448   9.166   7.696  11.497  0.0070  0.1647 -0.0438
30640W        W46449  13.193   0.559   1.577  0.0398 -0.3623 -0.0349
30641W        W46450   1.959  12.003   2.287  0.2947 -0.0276 -0.2893
30642W        W46451  14.252  18.573  15.242 -0.0141  0.0787 -0.2837
30643W        W46452  16.981  12.339   1.740  0.0427 -0.1234 -0.0281
30644W        W46453  17.626   9.318   1.713  0.2013  0.2664 -0.0466
30645W        W46454   6.902  10.279   0.718  0.1133  0.0600 -0.1703
30646W        W46455   4.260   4.842  11.695 -0.0218  0.1050  0.0086
30647W        W46456   0.896  11.585  12.151 -0.4505  0.1893 -0.1065
30648W        W46457   9.500   9.334   1.846 -0.0439 -0.0221 -0.1010
30649W        W46458   2.720  13.434   1.516 -0.3866 -0.2430 -0.0689
30650W        W46459   9.736   8.428   4.690 -0.0012 -0.1325  0.0761
30651W        W46460  15.894   1.415   2.035  0.0888  0.0202 -0.1488
30652W        W46461  12.133  13.100   2.049  0.2335 -0.2474 -0.1159
30653W        W46462   6.957  11.599  12.782  0.0174  0.0085  0.1959
30654W        W46463   4.389   2.149  11.914  0.1063  0.0055 -0.4213
30655W        W46464   2.366  15.045   2.173  0.0155  0.0032 -0.2352
30656W        W46465  10.813  15.987  15.082 -0.0198 -0.2204 -0.1589
30657W        W46466  17.448   8.070  15.567  0.1386 -0.1940  0.0506
30658W        W46467   7.850   7.574  11.614 -0.1226  0.0526  0.0289
30659W        W46468   0.758  11.040  13.415 -0.0427  0.4170 -0.0508
30660W        W46469   6.774   2.677  12.794  0.1420  0.1336 -0.3046
30661W        W46470   0.627   1.590  12.230  0.1198  0.0753 -0.2948
30662W        W46471   2.239  16.522   1.417  0.1708 -0.2415  0.1226
30663W        W46472   0.669   8.977   0.814 -0.0361 -0.0329  0.2603
30664W        W46473   8.398  15.335  13.709 -0.1473 -0.0825  0.2587
30665W        W46474   7.271  17.003  11.282  0.0015  0.2448 -0.2451
30666W        W46475  12.750   7.285  13.175  0.1950 -0.1831 -0.1652
30667W        W46476  12.575  16.461   1.650  0.2790  0.1044  0.1021
30668W        W46477  14.783   1.139  12.108  0.0255  0.2014 -0.0254
30669W        W46478  16.036  17.425  11.222  0.0614 -0.4301  0.0728
30670W        W46479  11.036  11.626   0.413 -0.0152  0.2309 -0.1731
30671W        W46480  18.186  11.015   1.608 -0.1557 -0.0516  0.2332
30672W        W46481  16.466   9.270  13.219  0.0914 -0.3826  0.2776
30673W        W46482   9.485  17.549   2.178  0.3345  0.0651 -0.0783
30674W        W46483   0.827  13.916   0.566  0.0266  0.2142 -0.1648
30675W        W46484   5.612   9.292  11.911 -0.2392 -0.0279 -0.1650
30676W        W46485   1.554  17.190   0.436 -0.0811 -0.3243  0.1815
30677W        W46486   8.029   8.024   0.183 -0.0635 -0.1978 -0.2243
30678W        W46487   1.963  15.928   0.816  0.2284  0.0992  0.1366
30679W        W46488   8.434  16.319  13.959 -0.0974 -0.0343 -0.3345
30680W        W46489   0.247  11.940   4.613  0.0043  0.1283  0.3055
30681W        W46490  12.045   6.922   4.945  0.0422  0.1806 -0.1677
30682W        W46491   4.025  12.099  11.257 -0.0068  0.2654 -0.3157
30683W        W46492  16.555  13.662   2.552  0.1900 -0.2730  0.1097
30684W        W46493  12.136  11.610  12.038  0.2804 -0.1392  0.0177
30685W        W46494   6.689   1.425  13.102 -0.3047 -0.2579  0.2453
30686W        W46495  15.218   6.647   0.263 -0.0652 -0.0383  0.1074
30687W        W46496   5.663   6.826   6.177  0.1301 -0.0086 -0.2988
30688W        W46497   3.663   3.999   4.850  0.0564 -0.1464 -0.0538
30689W        W46498  13.965   2.623   2.081 -0.1372  0.0533  0.1848
30690W        W46499  10.514   4.911  11.904 -0.0283 -0.0486  0.0376
30691W        W46500  10.757  17.546   3.986 -0.1248  0.2049 -0.2299
30692W        W46501  18.085  16.404   2.451 -0.1018  0.2425  0.1328
30693W        W46502  12.115   2.371   2.916  0.2664 -0.3339  0.1107
30694W        W46503   2.469   0.301  14.100 -0.0282 -0.2195 -0.1213
30695W        W46504  16.126   2.067   2.818  0.0593  0.2823 -0.2157
30696W        W46505   1.663  11.721   4.336  0.0874  0.0707 -0.0369
30697W        W46506   7.152  12.612   4.768  0.0184 -0.0544  0.1345
30698W        W46507  11.630  14.465   0.479 -0.2296  0.0771 -0.1467
30699W        W46508  11.829   4.112   0.743  0.1124 -0.1482  0.1092
30700W        W46509   4.007  14.431  11.350  0.0223 -0.0853  0.0010
30701W        W46510   8.675  15.859  14.344 -0.0500 -0.1570 -0.0564
30702W        W46511   1.800  18.131   4.600  0.2683 -0.1121  0.2891
30703W        W46512   9.590  10.461  12.045  0.1188  0.0650  0.5075
30704W        W46513  10.215  15.966  13.388 -0.0516  0.3383 -0.2657
30705W        W46514  14.595  14.237  14.262  0.1152 -0.1648 -0.3833
30706W        W46515  13.852  12.112  11.210  0.1454  0.1363 -0.3456
30707W        W46516  15.693   4.833   0.160  0.0229 -0.0157  0.1179
30708W        W46517   4.455   0.626  13.709  0.1491  0.0704 -0.3287
30709W        W46518   3.885   6.216  15.714  0.2763 -0.0573  0.1235
30710W        W46519   1.493  12.163   4.208  0.0954  0.0501  0.0223
30711W        W46520  15.955  16.959   2.778 -0.2929 -0.2515  0.2439
30712W        W46521  10.245   5.495  13.065 -0.0838  0.0775 -0.3661
30713W        W46522  14.537   6.621   0.862  0.2605 -0.1492 -0.5370
30714W        W46523   2.664   7.195   0.246 -0.1812 -0.2565  0.2908
30715W        W46524   9.022  12.743   1.250  0.1535  0.1883 -0.0578
30716W        W46525  17.084   8.515  11.516 -0.1172  0.0247  0.0245
30717W        W46526   3.561  11.605   1.527  0.0014  0.0179  0.0906
30718W        W46527   5.520  14.832   2.231  0.0652  0.0002 -0.3206
30719W        W46528   1.183  11.544   0.720  0.1396  0.1908 -0.1409
30720W        W46529   0.039   4.285  13.726 -0.1916 -0.4386 -0.1633
30721W        W46530   6.363   9.356   4.514  0.1509 -0.0772  0.0452
30722W        W46531  18.341   7.639  15.238  0.2444  0.1309 -0.1846
30723W        W46532  17.356  11.325  13.168 -0.0098  0.0341 -0.0626
30724W        W46533   7.369   1.601  12.009 -0.0182  0.0279 -0.0758
30725W        W46534  13.933  12.817   2.573  0.0333 -0.0480 -0.0601
30726W        W46535   9.028   2.172  14.084 -0.1394  0.0179 -0.3680
30727W        W46536  14.665   8.355   1.223 -0.2049  0.0028 -0.1726
30728W        W46537   9.535  13.014   0.167 -0.1008  0.0616 -0.0057
30729W        W46538  12.073   7.524   3.495 -0.0840 -0.0065 -0.1887
30730W        W46539   4.604   0.473   2.127  0.3128 -0.0703 -0.2140
30731W        W46540   3.355   9.613  15.350 -0.0580 -0.0251  0.1046
30732W        W46541   3.724   8.667  11.658  0.0441  0.2069  0.3991
30733W        W46542   6.526  12.266   1.803 -0.1255  0.2687 -0.0931
30734W        W46543   3.213   4.199   0.393 -0.0636  0.1563 -0.1146
30735W        W46544   0.425   4.870   4.578  0.0744 -0.2734 -0.3932
30736W        W46545   6.932  16.698  10.869 -0.0157  0.2430  0.2657
30737W        W46546  11.154  12.677  12.035  0.1969 -0.0414  0.1254
30738W        W46547   8.825   3.575  13.829  0.0167 -0.1521 -0.1454
30739W        W46548  14.827  14.202  11.979  0.0024  0.5280 -0.1429
30740W        W46549  11.815  15.167  12.038  0.1374  0.1022 -0.0447
30741W        W46550   2.148   1.615   4.043  0.0924  0.0077  0.0666
30742W        W46551   2.411   6.029  12.538 -0.1219  0.0423  0.2234
30743W        W46552  14.495   9.050  15.474 -0.0160 -0.0651  0.1281
30744W        W46553  13.260  13.196   2.992  0.0202 -0.1697  0.1334
30745W        W46554   5.928  14.473  12.426 -0.0288  0.0342 -0.0015
30746W        W46555  13.917   6.739   2.569 -0.2092 -0.1167 -0.0457
30747W        W46556  15.614   2.041  13.636  0.1270  0.1131  0.2629
30748W        W46557  13.684   1.872  15.019 -0.2705 -0.2234 -0.2147
30749W        W46558  17.940   8.615  13.980  0.0782 -0.1926 -0.2721
30750W        W46559   0.146  16.017   3.244 -0.0877 -0.2084  0.0582
30751W        W46560   0.147  14.365  15.091 -0.1242 -0.0797  0.1330
30752W        W46561  14.276   1.577   5.638  0.0581  0.1426  0.1035
30753W        W46562   5.429   5.857  13.471  0.0735 -0.1954  0.0865
30754W        W46563  18.554  13.024  10.223 -0.0307  0.1851  0.1876
30755W        W46564  18.567  15.853  12.626  0.0029  0.0003  0.1360
30756W        W46565   7.640   1.015  10.935  0.2335  0.1398 -0.0380
30757W        W46566   7.818   4.244   4.948 -0.3442  0.0017  0.0102
30758W        W46567  10.849   4.132   4.089 -0.1065 -0.0700  0.1428
30759W        W46568   1.241   0.772  13.854 -0.4442 -0.1199  0.0872
30760W        W46569   4.666  10.559   1.751 -0.2830 -0.2061  0.0140
30761W        W46570  11.207   2.491   1.272  0.0970 -0.0885 -0.0517
30762W        W46571   8.487  18.329   1.014  0.2171 -0.1443  0.2543
30763W        W46572  16.219  15.834   9.665 -0.1285 -0.3162 -0.1173
30764W        W46573  14.617  16.979  14.576  0.0600 -0.1716  0.1562
30765W        W46574   7.883   3.032   3.195 -0.1591 -0.5137 -0.3238
30766W        W46575  15.333  10.290   2.948 -0.1675 -0.1236 -0.1096
30767W        W46576  17.414   9.516   3.248 -0.1935  0.0620 -0.2135
30768W        W46577   3.927   7.323   5.150  0.1740  0.3726 -0.2283
30769W        W46578  13.125  13.364   2.124  0.1789 -0.2318 -0.1972
30770W        W46579  17.986  10.488   5.608  0.2344 -0.1895 -0.2430
30771W        W46580   2.274   1.509  12.472 -0.3249  0.0857 -0.1280
30772W        W46581  14.906   2.568  13.516 -0.1967 -0.1038  0.1786
30773W        W46582  16.407   5.860  13.055 -0.2011  0.0057  0.0993
30774W        W46583   9.304   6.608   2.402  0.2741 -0.1180 -0.0590
30775W        W46584  13.107   7.981  14.862 -0.0343  0.1626 -0.4956
30776W        W46585   3.992   3.399  14.304 -0.1898 -0.1747  0.1048
30777W        W46586   0.413  15.578  11.329 -0.0075 -0.1717 -0.0336
30778W        W46587  17.380  12.417   2.562 -0.0168 -0.2309 -0.2268
30779W        W46588   8.824  16.704   2.971  0.1442  0.0128 -0.1818
30780W        W46589   8.207  16.928  11.564 -0.1147 -0.0940  0.1283
30781W        W46590   0.430   2.712   2.927 -0.1609 -0.0750 -0.0651
30782W        W46591  13.338  11.206   1.903 -0.0204  0.2280 -0.1353
30783W        W46592   6.081   3.642  12.896  0.3008  0.0304  0.0586
30784W        W46593  10.470   1.515  15.569  0.0428  0.0981 -0.0724
30785W        W46594   6.979   2.896   1.943 -0.2202  0.1962 -0.0139
30786W        W46595   8.954  10.340   3.736  0.0519 -0.3216  0.0728
30787W        W46596   3.984   4.770   3.871  0.3482  0.0668  0.0630
30788W        W46597   3.563   2.139  11.027  0.1337 -0.0017  0.0306
30789W        W46598  12.261  18.249   2.782  0.0872  0.0374  0.2269
30790W        W46599   1.803  15.542  14.555 -0.0367  0.0254 -0.0285
30791W        W46600  15.531   7.593   3.799  0.1149  0.3106  0.2268
30792W        W46601  17.830   7.924   9.914  0.0138 -0.0319 -0.0450
30793W        W46602  13.648  16.188   1.723 -0.0508  0.2506  0.1394
30794W        W46603   0.870   7.240  11.860  0.0393 -0.0728 -0.4211
30795W        W46604  13.753  14.460  11.845  0.2891  0.2923  0.0389
30796W        W46605  11.485  11.226  15.319 -0.0544 -0.1315 -0.1263
30797W        W46606  14.476  14.220  13.746 -0.1186 -0.0453 -0.0202
30798W        W46607   3.816   7.699  14.827  0.3106 -0.1062 -0.0182
30799W        W46608  13.827   3.033   0.937  0.0206  0.0326 -0.0057
30800W        W46609  16.309   4.108   6.190  0.0258  0.3133 -0.0462
30801W        W46610   1.494  13.941   0.175 -0.1514  0.0224  0.3453
30802W        W46611  11.007   0.723   2.045 -0.1543  0.4528 -0.0017
30803W        W46612   1.279  12.117  10.468 -0.0121 -0.1477 -0.3031
30804W        W46613  13.527   9.734   4.885  0.1457  0.2554  0.1899
30805W        W46614   4.982   9.182  12.247 -0.0066 -0.1864 -0.0507
30806W        W46615   9.069   8.843  13.447  0.2971 -0.3889 -0.2081
30807W        W46616  15.696   0.736   1.232  0.2883 -0.0138 -0.1348
30808W        W46617  18.525  15.342   5.172  0.1385 -0.1387  0.0667
30809W        W46618   4.140   7.607   5.544  0.3830  0.2133  0.3375
30810W        W46619  12.512  17.233  10.606 -0.0793 -0.1847  0.3104
30811W        W46620  10.900  12.782   5.214 -0.1457 -0.0983  0.2818
30812W        W46621  14.951  16.362  10.627 -0.0940 -0.0945 -0.0716
30813W        W46622   4.710  16.350   2.026 -0.1327 -0.1443  0.1854
30814W        W46623   7.572   0.240   5.047 -0.2412  0.0259 -0.1961
30815W        W46624  12.219  14.236   3.070 -0.0164  0.0290  0.2434
30816W        W46625   5.372  14.755   1.344 -0.0256  0.1200 -0.1396
30817W        W46626   9.757   9.108   2.270  0.1084  0.2546  0.2416
30818W        W46627   1.077  14.600   4.182  0.3296  0.0401  0.0240
30819W        W46628   9.730   5.791  15.549 -0.2334 -0.0513  0.1831
30820W        W46629  11.231  14.471  11.938 -0.3000  0.0032 -0.0147
30821W        W46630  15.501   8.455   3.381  0.0382  0.0128  0.0731
30822W        W46631  15.054   9.382   3.245  0.3940  0.2268  0.2212
30823W        W46632   8.815   7.487   2.250  0.1732  0.1626  0.2078
30824W        W46633   4.202  11.370   5.953 -0.0932  0.1225  0.2982
30825W        W46634  16.103  17.515  13.966 -0.1040  0.1170 -0.2844
30826W        W46635   0.324   2.970  12.044 -0.1637 -0.0923 -0.1935
30827W        W46636   4.157  17.266  13.900 -0.2130  0.3777 -0.2942
30828W        W46637   3.067   6.610  13.201  0.0684  0.1895 -0.1283
30829W        W46638   5.018   2.634   4.180  0.0443 -0.1294  0.4311
30830W        W46639   2.062   4.194   3.169  0.2132 -0.1208 -0.3057
30831W        W46640   4.833   4.102   4.046  0.4587 -0.3085  0.2738
30832W        W46641  17.418  10.921  14.675 -0.2914  0.0931  0.4680
30833W        W46642  13.220   8.585  11.535 -0.2613 -0.1479  0.0945
30834W        W46643  12.563  11.197   0.607  0.0368  0.1011 -0.1542
30835W        W46644   9.157   3.787   1.764 -0.3403 -0.0199 -0.0063
30836W        W46645  11.281  11.529   3.841 -0.1795 -0.3299  0.3166
30837W        W46646   6.427  14.663  10.686 -0.1812 -0.1612  0.1463
30838W        W46647   4.509  15.019  11.591 -0.0814  0.0563 -0.0447
30839W        W46648   2.569  15.514   4.958 -0.4511 -0.1826  0.0243
30840W        W46649  11.501   2.735   3.904  0.2143 -0.2345  0.2637
30841W        W46650  14.332   3.812   2.276  0.1607  0.4163 -0.0123
30842W        W46651   4.341   3.253   4.527  0.2540 -0.5028  0.0245
30843W        W46652  15.672  14.474   1.972 -0.1108 -0.1189 -0.2020
30844W        W46653  16.707   6.562  13.510 -0.0400  0.0588 -0.0920
30845W        W46654   5.943  12.230   5.639 -0.0083  0.3884 -0.1209
30846W        W46655  12.274   2.157   3.335 -0.2166 -0.0485  0.2779
30847W        W46656   1.510   9.969  14.245 -0.1021  0.0162 -0.2623
30848W        W46657   7.970  11.667  12.987 -0.0515 -0.0753 -0.0603
30849W        W46658   0.441   2.411   0.054 -0.3469  0.2058 -0.1107
30850W        W46659   7.894   3.757   5.799 -0.1970  0.0576  0.1980
30851W        W46660   0.339   0.553  13.490 -0.2344 -0.5289 -0.2015
30852W        W46661  16.907   3.799   0.798  0.4269 -0.0707 -0.2048
30853W        W46662  12.148   6.872   2.147 -0.2296 -0.1193  0.1288
30854W        W46663  14.426   7.092  15.164  0.2131  0.2375 -0.0089
30855W        W46664   9.105   8.298  15.581 -0.0834 -0.2883  0.2177
30856W        W46665   4.035   9.444  13.384  0.0031  0.3347 -0.2643
30857W        W46666  13.836   6.855   3.901 -0.0770 -0.2858  0.0936
30858W        W46667   7.605   2.478   4.099 -0.2987  0.2619  0.2518
30859W        W46668  14.690  12.475   1.647  0.2040 -0.1763  0.0497
30860W        W46669  18.031   2.282   3.559  0.0621 -0.0421  0.0961
30861W        W46670   0.659   2.183  12.082 -0.0659  0.0893  0.1812
30862W        W46671  11.428  15.878  13.142 -0.4512  0.2067  0.0551
30863W        W46672   0.534  16.339   9.890 -0.0255  0.1476 -0.1440
30864W        W46673   2.074   0.398  13.779  0.0011  0.3422 -0.0683
30865W        W46674   0.699   1.900  15.653 -0.0614 -0.0456  0.2221
30866W        W46675   2.671   9.033   1.927  0.4753 -0.0214 -0.0405
30867W        W46676   1.471  14.203   4.489 -0.0067 -0.0311  0.0584
30868W        W46677   1.905  14.981  15.204  0.1260  0.2697  0.0466
30869W        W46678  10.418   3.854  14.722  0.2880 -0.0677  0.0123
30870W        W46679   2.392   1.347   5.085  0.1627  0.0032  0.0847
30871W        W46680   7.565   7.652   1.387  0.2089 -0.0929  0.2356
30872W        W46681  14.762  14.811  14.892 -0.0716 -0.3929 -0.0384
30873W        W46682   2.796  16.764   1.573 -0.0973 -0.1912 -0.1338
30874W        W46683   4.837   9.966  11.616  0.0083  0.0888  0.1721
30875W        W46684  18.653  14.163   2.835 -0.1247  0.2334 -0.1666
30876W        W46685   1.986   6.038   4.128 -0.3047 -0.1911 -0.2445
30877W        W46686   0.949   5.906  10.227 -0.1174  0.2988 -0.0059
30878W        W46687  15.553   0.762  11.377 -0.2591  0.0084  0.0275
30879W        W46688  11.488   1.256   3.897 -0.2161 -0.0081 -0.1445
30880W        W46689   1.504   6.165   4.564  0.0026 -0.2714 -0.1050
30881W        W46690  13.005  14.451   4.664  0.1635  0.0133  0.0250
30882W        W46691   3.709  14.913   5.671 -0.2614  0.0517  0.0429
30883W        W46692  12.995  17.966  15.039 -0.2867  0.1004  0.3092
30884W        W46693   6.579   8.846  12.945  0.1724  0.2739  0.2448
30885W        W46694   0.782   6.899   3.635 -0.2687  0.0509 -0.3506
30886W        W46695  12.470  17.359   3.671 -0.0546 -0.2749  0.0828
30887W        W46696   7.749  14.140   0.282  0.1063  0.1934  0.0508
30888W        W46697   7.964   4.471   1.696  0.0009  0.0170 -0.3423
30889W        W46698   0.345   5.874  13.924  0.2264 -0.1154  0.0473
30890W        W46699   1.119   1.447   1.605  0.1147 -0.1436  0.1988
30891W        W46700  12.339  18.269   9.846  0.1898 -0.0380  0.1678
30892W        W46701  16.623   8.601   2.156  0.1237 -0.1387  0.0283
30893W        W46702   3.580   0.990   3.513 -0.2615 -0.3650  0.0726
30894W        W46703   7.895   6.786   4.459 -0.0554  0.1904  0.1045
30895W        W46704  16.938  12.318   2.257  0.2062 -0.0142 -0.0951
30896W        W46705  11.972  11.276  13.155 -0.0125  0.1472 -0.1298
30897W        W46706  10.611   7.158   3.612 -0.0723 -0.1968 -0.2469
30898W        W46707   8.379   9.176   3.941  0.2037  0.1506 -0.2409
30899W        W46708  14.997   9.670   4.949 -0.1107 -0.2378  0.1354
30900W        W46709   3.004  11.581   4.966  0.1016  0.2719  0.0608
30901W        W46710  14.457   7.537  15.373 -0.0796  0.2894  0.0796
30902W        W46711  12.937   4.645   3.122  0.0913 -0.0802  0.1588
30903W        W46712  17.560   3.629  13.036 -0.1068  0.1494 -0.2907
30904W        W46713   7.716  17.254  13.305  0.1712  0.1566 -0.0178
30905W        W46714   0.496  10.971   1.681 -0.1381  0.1963 -0.1075
30906W        W46715   5.905  10.890  11.394 -0.0734 -0.0707  0.2380
30907W        W46716   9.648  10.976  13.311  0.0710  0.0742 -0.2655
30908W        W46717   6.070   5.410   2.966 -0.0749 -0.0308 -0.1589
30909W        W46718   7.605  13.714  15.313 -0.0399  0.0856  0.2634
30910W        W46719   2.567  17.602  14.686 -0.1573 -0.1393 -0.2350
30911W        W46720  15.942  10.993   3.046 -0.0726 -0.0673 -0.1006
30912W        W46721   6.158   7.657   4.172 -0.2810 -0.1212  0.0402
30913W        W46722  13.586   3.415  13.867  0.0358 -0.0156  0.2652
30914W        W46723   9.888   3.587  12.259 -0.0447  0.0919 -0.0052
30915W        W46724   4.557   8.270   0.911  0.0159  0.1051 -0.5640
30916W        W46725   9.303  15.314  15.163 -0.2567  0.0882  0.1986
30917W        W46726  14.656  15.317  13.263  0.2044 -0.0651  0.0083
30918W        W46727  11.369  12.722  11.545 -0.0227 -0.2095  0.0001
30919W        W46728  13.412   7.450  15.287  0.1289  0.2317 -0.0723
30920W        W46729   8.235  11.557   4.025  0.1321 -0.0268  0.0815
30921W        W46730  14.130   0.029  14.361 -0.3531  0.5060  0.2549
30922W        W46731   6.176   8.721  10.953 -0.0511  0.1752 -0.6647
30923W        W46732   1.547  11.334  13.775  0.1374 -0.0376  0.0022
30924W        W46733   5.966   2.500   1.818 -0.1318 -0.2536  0.1495
30925W        W46734   5.831   5.317  12.166 -0.0064 -0.0667  0.2296
30926W        W46735   6.339   4.040  12.632 -0.1360  0.0044 -0.1916
30927W        W46736  17.641   5.032   5.411  0.1067  0.1388 -0.3654
30928W        W46737   7.086   5.037   5.273 -0.0525 -0.0575 -0.0240
30929W        W46738  15.348   3.010   5.916  0.1464 -0.0647 -0.2059
30930W        W46739  10.222   8.350   2.019 -0.0759 -0.0103  0.0953
30931W        W46740   5.989  12.777   2.417 -0.0870  0.2933 -0.1822
30932W        W46741   9.540   0.854  11.295  0.0464  0.1997 -0.2050
30933W        W46742   4.818  12.131  12.915  0.1231 -0.1638  0.0307
30934W        W46743  14.639  18.174  12.696 -0.0263 -0.2567  0.0233
30935W        W46744   6.388   2.497   4.884  0.1902 -0.0678  0.0327
30936W        W46745   6.790  13.913  13.256  0.0464 -0.2129  0.2831
30937W        W46746  14.723   4.824  11.182  0.2328  0.0905 -0.0403
30938W        W46747  15.396  13.122   1.492  0.2423 -0.1977 -0.1114
30939W        W46748  10.133   7.678   2.273  0.0202 -0.2260 -0.0010
30940W        W46749  11.238  15.483   3.285 -0.0941 -0.2470 -0.0959
30941W        W46750   2.001   9.966  12.662 -0.0917  0.2266 -0.1490
30942W        W46751   3.701  15.149   3.883  0.1593  0.2017 -0.3894
30943W        W46752   2.602   3.676   2.369  0.2748 -0.0874 -0.0524
30944W        W46753   9.853   4.390  15.208 -0.0303 -0.1351 -0.0883
30945W        W46754   2.279   5.091  13.607  0.0179 -0.3369  0.0102
30946W        W46755  12.417   6.426   3.307  0.3817 -0.1799 -0.2700
30947W        W46756  13.942  13.341  13.280  0.2840  0.3338 -0.1055
30948W        W46757   2.365   4.867  14.324 -0.3241 -0.3169  0.0288
30949W        W46758  13.029  14.341   2.441  0.0061  0.1701  0.1793
30950W        W46759   6.574  18.232   3.044  0.2687  0.2099  0.1358
30951W        W46760   4.656   1.302  10.454  0.1860 -0.0703 -0.1089
30952W        W46761  13.741  15.070  12.008  0.0298  0.1332  0.1634
30953W        W46762  17.369  17.062  11.422  0.0938 -0.1842 -0.0667
30954W        W46763   2.281   0.136  12.862 -0.0451 -0.2270  0.1252
30955W        W46764  11.793  16.837  12.084  0.1369 -0.3313  0.0696
30956W        W46765  14.665  15.411  11.102  0.4074 -0.0071 -0.0783
30957W        W46766   4.784  13.814   0.010 -0.0714 -0.0648 -0.0623
30958W        W46767  15.394  15.653   1.119 -0.1892  0.0488 -0.0015
30959W        W46768  14.899   9.302  14.524 -0.0668  0.0628  0.4210
30960W        W46769   9.735   2.845  13.838  0.0195 -0.4144 -0.1570
30961W        W46770   2.677  18.632   2.001 -0.3980 -0.1033  0.3918
30962W        W46771   3.769   2.879   1.929  0.3058  0.1013  0.0819
30963W        W46772  17.891   9.095  11.005  0.1290 -0.1060 -0.0093
30964W        W46773   0.570   6.631  15.677  0.0821  0.0655  0.1322
30965W        W46774   7.180   8.196  15.591  0.3982  0.3896 -0.0420
30966W        W46775   4.874   5.141   5.979 -0.2860 -0.0188 -0.0188
30967W        W46776  10.438   5.746   3.888  0.2244  0.0247 -0.1986
30968W        W46777   3.431  17.392   0.848  0.0504 -0.1355 -0.0966
30969W        W46778  16.356   9.148  13.872 -0.0837  0.0310  0.1197
30970W        W46779  15.315   7.895   4.164  0.0679  0.0758 -0.0274
30971W        W46780   9.503  15.417   3.847 -0.1714  0.0172  0.1069
30972W        W46781   9.468  10.007   4.019 -0.0037  0.3132 -0.0093
30973W        W46782  16.738  13.580   2.077 -0.0597 -0.0561 -0.1562
30974W        W46783  17.752  15.730  12.717 -0.0420  0.1549 -0.0992
30975W        W46784  15.788   7.282  11.893  0.0377  0.2520  0.0916
30976W        W46785   6.751   8.910  11.859  0.1568  0.1017  0.4433
30977W        W46786  18.081   7.165  12.371 -0.1334 -0.1577 -0.1236
30978W        W46787  16.040   1.687   2.405  0.1835  0.2159 -0.1763
30979W        W46788   5.932   5.034  14.591  0.0738 -0.1994  0.0636
30980W        W46789   6.863   0.586   2.175  0.0838 -0.0113 -0.1598
30981W        W46790  13.488   9.961   4.044 -0.4239  0.4276 -0.1616
30982W        W46791  14.403   5.726   4.837 -0.0661 -0.2643 -0.3940
30983W        W46792  13.515   8.871  14.678 -0.0426  0.0209  0.2916
30984W        W46793   5.956   7.641  13.476  0.4053 -0.0623  0.0946
30985W        W46794  10.962  14.991   0.189 -0.0999  0.0303 -0.0237
30986W        W46795  17.451   2.475   2.322  0.1496 -0.0913  0.0658
30987W        W46796   7.702  14.723   0.863 -0.4058 -0.2152 -0.1839
30988W        W46797   4.973  14.414   4.073 -0.1119 -0.1051 -0.0214
30989W        W46798  10.923  13.906  11.399 -0.1156  0.2139 -0.0138
30990W        W46799  14.980  14.063   1.810  0.0383 -0.2276 -0.1572
30991W        W46800   7.403  18.649  14.334 -0.0559  0.1317 -0.1843
30992W        W46801   1.693   7.795  12.095  0.0468 -0.0813  0.5803
30993W        W46802  17.303   4.364   3.855  0.0851  0.2372  0.0950
30994W        W46803  18.529   6.483  13.875  0.0234 -0.0776 -0.0947
30995W        W46804   4.231  13.518   0.765  0.3001  0.0812 -0.0292
30996W        W46805  12.791  12.559   0.171  0.1135 -0.0580  0.2064
30997W        W46806   4.350   5.931   0.827 -0.2147  0.1217 -0.1090
30998W        W46807   7.795  13.815   0.679 -0.3712 -0.2252  0.0059
30999W        W46808  10.845   3.386  12.033 -0.1543 -0.1109  0.2247
31000W        W46809   8.742   4.960  11.630  0.3765  0.1105  0.0379
31001W        W46810   7.861   4.223   2.763  0.6431  0.3066 -0.2687
31002W        W46811   0.968   2.614  11.471 -0.0593 -0.3682  0.2783
31003W        W46812   7.502   6.907  13.870  0.2003  0.0652  0.1059
31004W        W46813   6.992  17.756  10.176 -0.1739 -0.0786  0.0147
31005W        W46814  13.785  15.024   5.046  0.0717 -0.0380  0.0423
31006W        W46815  10.346  11.477   2.139  0.2036 -0.0162  0.2788
31007W        W46816  14.924   1.468   2.102  0.0941  0.0049  0.3678
31008W        W46817  10.867   8.559   0.503 -0.1407  0.1809 -0.0757
31009W        W46818  15.750   0.623  14.648  0.0984 -0.1465 -0.0691
31010W        W46819   1.684   9.477  12.678 -0.1256 -0.1154  0.1032
31011W        W46820   5.310   9.749   4.479 -0.0316  0.3443  0.1008
31012W        W46821  10.165   5.250  14.815 -0.0403  0.2949  0.0256
31013W        W46822  11.980   3.378   0.401 -0.1189  0.0115  0.1178
31014W        W46823   3.729  11.419   4.856  0.1797  0.1603  0.0575
31015W        W46824  17.430   9.567   2.784 -0.3527 -0.3049  0.1050
31016W        W46825   0.168   5.486   1.313 -0.0641 -0.0240 -0.1162
31017W        W46826  15.827  18.384   4.064 -0.2376  0.3318 -0.2745
31018W        W46827   5.523  17.507   3.151  0.0267 -0.0436 -0.3094
31019W        W46828   4.140   6.163  15.292  0.0231  0.0028  0.0090
31020W        W46829   0.076  14.346   3.436  0.0940 -0.2263 -0.0283
31021W        W46830   6.297  15.169  15.631 -0.0869 -0.0908  0.3137
31022W        W46831   5.598   1.075  15.132 -0.0932  0.3030 -0.0607
31023W        W46832   6.307  17.899  14.311  0.1714 -0.1529 -0.0128
31024W        W46833  10.287  12.037  12.712 -0.1069 -0.1111  0.0689
31025W        W46834   9.778  18.414   5.857 -0.2945 -0.0502  0.1194
31026W        W46835   0.860  11.206   0.905 -0.1492 -0.0449  0.2693
31027W        W46836   4.360  15.280  14.263  0.0517  0.0930 -0.2606
31028W        W46837  16.459  16.293   5.331  0.2649 -0.0804 -0.0690
31029W        W46838  15.677   8.848  13.209  0.4202  0.2710 -0.3143
31030W        W46839  17.359  13.765   5.224  0.1635 -0.0972  0.0601
31031W        W46840  13.234   8.100   0.122  0.6072  0.0380  0.1628
31032W        W46841  10.789   7.892  14.303  0.0262 -0.1560  0.1270
31033W        W46842   2.752  10.178  13.765 -0.1202 -0.2964 -0.0761
31034W        W46843   4.249   4.047  12.154  0.0437 -0.2161 -0.2599
31035W        W46844   3.437   6.074   1.347 -0.3260  0.2542 -0.1955
31036W        W46845   7.257   2.379  10.754 -0.1741 -0.1853 -0.3811
31037W        W46846   2.057   7.683   4.319 -0.1299 -0.2132 -0.3105
31038W        W46847  15.839   5.556   3.471 -0.2385 -0.2525  0.0830
31039W        W46848   6.311   6.350   1.711  0.2196 -0.1361  0.0671
31040W        W46849  12.235   5.442   0.746 -0.5459  0.2433 -0.0143
31041W        W46850   0.285   5.595   2.999 -0.0401 -0.4070 -0.1996
31042W        W46851  14.624  16.746  15.097 -0.0234 -0.1024 -0.2344
31043W        W46852   3.985   6.422   3.336 -0.1305  0.2606 -0.0108
31044W        W46853  12.273  15.665  13.841 -0.0863 -0.0364 -0.0651
31045W        W46854  14.007   2.043   0.990  0.2893 -0.3002  0.1210
31046W        W46855  16.234   3.203  11.574 -0.0679  0.2620 -0.3599
31047W        W46856  12.490   4.344   5.099 -0.0525  0.1030  0.1890
31048W        W46857   8.210   5.801   0.059  0.0217 -0.1231  0.3250
31049W        W46858  12.567   5.739  12.984 -0.1444  0.2809  0.0815
31050W        W46859   5.048   0.205  11.389  0.3445 -0.0314  0.5242
31051W        W46860   6.272   2.648   0.093  0.2408 -0.0833 -0.2822
31052W        W46861  18.282   0.508   5.500 -0.1007  0.0124  0.2955
31053W        W46862   2.118  10.369   4.989  0.3739 -0.1186  0.2963
31054W        W46863  11.436  11.304  10.773 -0.2722  0.0630 -0.0684
31055W        W46864  13.639  14.842  11.404  0.1025  0.1836 -0.0149
31056W        W46865   0.014   2.517  12.732  0.3349  0.2843  0.0328
31057W        W46866   7.777   1.929  15.463 -0.0064  0.0224  0.1109
31058W        W46867  13.343  15.575   0.169 -0.0568 -0.0538  0.1576
31059W        W46868   6.378  11.021   3.819 -0.0943  0.5707  0.2799
31060W        W46869  12.125  17.169  14.793 -0.2010  0.0637  0.1848
31061W        W46870   6.002  12.614   4.834  0.0966  0.2032 -0.1821
31062W        W46871  15.020  17.213  11.871 -0.2058  0.2275 -0.0246
31063W        W46872   2.757   8.952   4.654  0.0773  0.2192 -0.1183
31064W        W46873  10.338   2.287   5.006 -0.1691 -0.1010  0.0363
31065W        W46874   8.974  11.842   3.582 -0.1196  0.3291 -0.0343
31066W        W46875  10.734  11.642   1.303 -0.0579  0.0036 -0.2688
31067W        W46876  10.709  12.279  11.939 -0.0255 -0.0013 -0.1178
31068W        W46877   7.340   7.555  10.966  0.4145 -0.1100 -0.0674
31069W        W46878   0.575  14.083  14.924  0.2056 -0.1718 -0.2536
31070W        W46879   7.514   6.762  14.398 -0.4450  0.1264 -0.1520
31071W        W46880   9.081   9.919   0.906 -0.2644  0.0425  0.0197
31072W        W46881  18.559   6.326   2.773  0.6392 -0.0598 -0.2583
31073W        W46882  17.505   7.358   3.514 -0.0251 -0.0946 -0.0213
31074W        W46883   3.516   1.192  11.718 -0.1654  0.2883  0.2359
31075W        W46884  10.421  15.514  13.858 -0.0312  0.0011 -0.1568
31076W        W46885  10.060   7.950  10.682  0.2172  0.0641  0.1374
31077W        W46886   5.500   9.998   1.234  0.2170 -0.0822  0.0462
31078W        W46887  13.451  14.072   1.017  0.0539 -0.2197 -0.1157
31079W        W46888   7.261  17.489   4.654  0.1394  0.0988  0.4767
31080W        W46889  11.156  13.100   2.217 -0.2048  0.1680 -0.1674
31081W        W46890  10.747   2.764   0.358  0.0507  0.0664 -0.1160
31082W        W46891   1.689   8.740   5.088  0.1897 -0.2966  0.1493
31083W        W46892   9.004   3.194   2.249 -0.2921 -0.1702 -0.0681
31084W        W46893  16.118  15.874   1.672  0.3127 -0.2064 -0.0380
31085W        W46894  12.990   8.721  15.349 -0.2347  0.1888 -0.0880
31086W        W46895   2.761   5.567  13.259 -0.1525 -0.0635  0.2756
31087W        W46896   1.527  12.785  12.023  0.1008 -0.1348 -0.0809
31088W        W46897   4.225   7.127  14.827  0.3158 -0.1679 -0.2051
31089W        W46898   3.695   2.425   1.624 -0.0531 -0.0810 -0.1450
31090W        W46899   5.544  16.790  13.452  0.0118  0.1187  0.2113
31091W        W46900   1.700  16.841   3.109 -0.1672 -0.1630 -0.0421
31092W        W46901   4.127  12.997   4.731 -0.1528  0.0205 -0.0964
31093W        W46902   1.252   1.177  11.397 -0.0985 -0.2136 -0.1141
31094W        W46903   7.044  10.365  14.480  0.1139  0.1415  0.0681
31095W        W46904  17.893   5.847  14.759  0.0627  0.2075  0.0305
31096W        W46905   0.188   4.104   4.081 -0.0638  0.2237 -0.2446
31097W        W46906  17.422   8.864  11.738 -0.0693 -0.3435  0.1996
31098W        W46907  13.702   7.360  10.328  0.1155  0.1437 -0.3195
31099W        W46908   4.579   9.809  13.463  0.2856  0.0394  0.1199
31100W        W46909  16.088  15.701   4.779 -0.3579 -0.3248  0.2325
31101W        W46910  16.823   3.239  10.859 -0.0025  0.2094  0.0768
31102W        W46911  17.181   5.077  14.762 -0.0335  0.3738  0.0491
31103W        W46912   5.021   9.997  12.685 -0.0404 -0.0378  0.1040
31104W        W46913   4.392  10.856  15.212 -0.0708  0.0962  0.2595
31105W        W46914  17.733  11.215  15.659  0.0602  0.0598  0.1993
31106W        W46915  10.143   5.753  12.642  0.0770 -0.0786 -0.2647
31107W        W46916  12.350   6.207  15.285  0.0189  0.2553  0.0725
31108W        W46917   0.162   1.031  11.338  0.1233 -0.1581 -0.0597
31109W        W46918   3.428  14.373   5.113 -0.0213  0.1239  0.1655
31110W        W46919   9.476  16.229   5.874 -0.0019 -0.1408 -0.1051
31111W        W46920   5.472   9.399   2.914  0.1871  0.3141 -0.2312
31112W        W46921  13.134  10.248   3.818 -0.2730  0.0389  0.0197
31113W        W46922   1.918   1.209   1.257  0.2249 -0.0293  0.0041
31114W        W46923  10.307   2.680  13.664 -0.0555 -0.1046  0.0671
31115W        W46924  13.407  12.249   3.023  0.1229 -0.2048  0.0979
31116W        W46925   5.936  15.422   1.201  0.0360 -0.3342  0.0092
31117W        W46926  10.896   1.959   5.046  0.4132 -0.1174 -0.2506
31118W        W46927   3.314   7.461  12.986  0.2230  0.0261  0.1138
31119W        W46928  15.166  13.496  12.189 -0.0059 -0.2875 -0.2909
31120W        W46929  12.188  15.869   5.611 -0.3077  0.1647  0.0638
31121W        W46930   3.945  17.425   3.584 -0.4145 -0.2831  0.0257
31122W        W46931  12.461   2.979   1.460 -0.0823  0.0417 -0.0620
31123W        W46932   2.426   2.380  11.104  0.1841  0.1296  0.1052
31124W        W46933   8.963   8.347   5.179  0.1106  0.0710 -0.0909
31125W        W46934  12.910  11.524  11.323  0.0766 -0.2733 -0.0067
31126W        W46935   7.555  13.097   2.904  0.0772 -0.2849 -0.6003
31127W        W46936  11.331   2.169  12.771  0.2411 -0.1633 -0.3695
31128W        W46937   4.534  13.547   4.191  0.4572 -0.1174 -0.1868
31129W        W46938   6.765   2.716  10.608 -0.0114  0.1306 -0.0642
31130W        W46939   0.411  16.748  12.058 -0.0513 -0.1183  0.3708
31131W        W46940  11.953  10.435  11.099 -0.0394 -0.1932  0.0083
31132W        W46941   5.252  16.355  13.209 -0.2592  0.0448 -0.0037
31133W        W46942  17.613  11.759   3.268 -0.1882  0.0833 -0.0998
31134W        W46943   8.796   1.784  14.957 -0.0406  0.0701  0.0919
31135W        W46944   4.041  13.136   2.029 -0.4061 -0.0662  0.1118
31136W        W46945  10.072  16.054   3.713  0.0716 -0.1963  0.1184
31137W        W46946  16.883   8.830   1.526  0.1877 -0.3371 -0.0477
31138W        W46947  16.318  16.760  10.801 -0.0567  0.4267 -0.1334
31139W        W46948  10.540   0.324   4.956  0.1365  0.4124  0.0443
31140W        W46949  11.512  17.274  14.299 -0.0703  0.1370  0.1271
31141W        W46950  11.363  13.061  13.424  0.3477 -0.2033  0.0782
31142W        W46951   9.580  18.472   2.677 -0.1361  0.0862 -0.0030
31143W        W46952   4.216  14.841  12.428 -0.0383 -0.1036 -0.1449
31144W        W46953  13.913   5.087  13.000 -0.2474  0.0144 -0.0213
31145W        W46954   8.410  13.198  13.463  0.1466 -0.1902  0.2003
31146W        W46955  14.484   1.127   0.389 -0.0058  0.2929  0.0353
31147W        W46956  13.150  16.288  11.308 -0.1032  0.0875 -0.0954
31148W        W46957   7.529  18.002   1.960  0.2093 -0.1216  0.0369
31149W        W46958   7.678   4.656   2.942 -0.1718 -0.0369  0.1356
31150W        W46959   7.509  10.971   1.087 -0.1358 -0.5071 -0.4100
31151W        W46960  12.457   9.126  10.299  0.2373 -0.2564  0.1087
31152W        W46961  17.666  15.589  10.642 -0.2270  0.1025  0.0127
31153W        W46962  13.354  14.751   1.013 -0.1191 -0.5014 -0.2799
31154W        W46963   6.515   9.601   0.980  0.0264  0.0180 -0.4777
31155W        W46964  16.205  10.065  14.136 -0.3462  0.0759  0.0861
31156W        W46965  13.009   5.327   1.891 -0.0090  0.1041 -0.1318
31157W        W46966   7.666  17.721  13.730  0.0928  0.0098  0.1833
31158W        W46967  11.922  12.563   2.733  0.0472  0.0297  0.0116
31159W        W46968   0.878   0.011   2.710 -0.1620  0.2424  0.1406
31160W        W46969  17.294   4.723   1.509  0.1853  0.0679 -0.1455
31161W        W46970  11.616  15.078  15.173 -0.1666 -0.1652  0.3115
31162W        W46971  10.266   5.951  14.083  0.0252 -0.1120  0.0370
31163W        W46972   5.861  14.455  11.449 -0.4526 -0.1321  0.0161
31164W        W46973   1.522   5.236   2.710  0.0827 -0.0871 -0.2729
31165W        W46974  14.580   3.476  14.367  0.0887 -0.3497  0.0976
31166W        W46975  17.808   1.121   4.178  0.0604  0.0934 -0.2125
31167W        W46976  16.491  15.987   4.951 -0.2092 -0.3067 -0.2450
31168W        W46977   5.228  13.367   4.105  0.0513  0.1547 -0.0427
31169W        W46978  11.325   5.926   3.922 -0.2194 -0.0175  0.2450
31170W        W46979   2.405  11.062   4.460 -0.2184  0.3022 -0.0825
31171W        W46980  14.470   7.400   1.147 -0.2560 -0.1344 -0.0665
31172W        W46981   5.089   2.910  12.108 -0.1749  0.0625  0.3747
31173W        W46982  12.164  12.413  15.270 -0.1782  0.0423  0.2166
31174W        W46983  17.738   1.505  13.085  0.2535  0.1437 -0.1119
31175W        W46984   5.722   1.804   2.467 -0.0695  0.0434 -0.2116
31176W        W46985   8.454  12.477   4.184 -0.2616 -0.0621 -0.1764
31177W        W46986   1.454   6.024   5.106 -0.0765 -0.1184 -0.2291
31178W        W46987  16.796   7.810   3.423 -0.1325 -0.1552 -0.0280
31179W        W46988  10.309  14.917  10.391  0.0501  0.3066 -0.0703
31180W        W46989  14.763   6.300   0.008  0.1091  0.3918 -0.0901
31181W        W46990  15.859   8.070  11.643  0.0155  0.2606  0.0022
31182W        W46991  12.688  13.740   0.668 -0.3413  0.0311 -0.1259
31183W        W46992  10.685   3.643   4.105 -0.1485 -0.0541 -0.1181
31184W        W46993   6.914  18.430  13.086  0.1550 -0.0664 -0.1977
31185W        W46994   1.142  14.691  15.080 -0.0279 -0.2775 -0.2793
31186W        W46995   6.582   6.865  13.133  0.0105 -0.0734 -0.1126
31187W        W46996  15.704  12.777  12.143 -0.1573  0.0499  0.2372
31188W        W46997  18.299   6.507  14.450  0.0268 -0.0307  0.1845
31189W        W46998   7.853  13.953  14.942  0.1643  0.2821  0.1169
31190W        W46999  17.911   0.166   9.721 -0.1999  0.0733 -0.0281
31191W        W47000  13.045  12.545   3.760  0.0599  0.1871  0.0351
31192W        W47001  15.074   8.240  13.843 -0.1461  0.1544 -0.0317
31193W        W47002  10.147  15.856   2.469 -0.0735 -0.1675  0.0647
31194W        W47003  15.093  16.368   1.027 -0.1123  0.1854  0.0025
31195W        W47004   9.761   9.761   0.017 -0.0314 -0.0920  0.0113
31196W        W47005  10.469  14.222  11.478  0.1637 -0.2940  0.0457
31197W        W47006   4.074  15.502   3.210  0.0629 -0.1044 -0.2532
31198W        W47007   4.263  16.877   3.743 -0.0823 -0.0700 -0.2744
31199W        W47008   1.131  12.492  11.908  0.0290  0.2555 -0.2382
31200W        W47009   8.969  15.683  11.542 -0.1184 -0.1501 -0.1559
31201W        W47010  16.453   2.325   5.213 -0.1313 -0.3257  0.4155
31202W        W47011  11.692   6.824   0.351 -0.1154 -0.2727  0.0408
31203W        W47012   3.344  15.689   3.045 -0.1706 -0.0731 -0.1352
31204W        W47013  14.507   3.314   0.298 -0.1220 -0.0014  0.1097
31205W        W47014   3.411   2.036   0.130 -0.1158 -0.1485 -0.1952
31206W        W47015  13.529  14.825  14.139  0.1825 -0.4115 -0.0277
31207W        W47016  15.708  15.869  12.894 -0.1845  0.3079  0.2507
31208W        W47017  12.068  11.839  14.342  0.0897  0.0555  0.3420
31209W        W47018  16.498   7.066  10.907  0.0803 -0.3335  0.0901
31210W        W47019  11.681   9.869   2.988 -0.0846  0.1193  0.0643
31211W        W47020  16.924   5.485  14.723 -0.0797  0.2062 -0.2112
31212W        W47021  14.205  15.562  13.740 -0.1010  0.1589  0.0833
31213W        W47022  11.490   4.865  13.690  0.1013 -0.1512  0.0593
31214W        W47023   3.007  11.186   4.485 -0.1285 -0.0639  0.2219
31215W        W47024  17.648   5.467  15.043  0.2693  0.3865  0.0669
31216W        W47025   2.470  10.691   4.970 -0.1384 -0.3815  0.1441
31217W        W47026   2.439  14.203  12.344 -0.1956 -0.3689  0.4721
31218W        W47027  17.195   5.031  13.800  0.0953 -0.2364  0.1478
31219W        W47028  10.532  17.140   4.202  0.0002  0.1418  0.3144
31220W        W47029  15.758   6.911  12.533 -0.0418  0.0849 -0.0352
31221W        W47030   4.931   9.327  13.214 -0.2028 -0.2801 -0.0268
31222W        W47031   0.022  16.595  11.594  0.2480 -0.2417  0.1445
31223W        W47032   0.695   8.687  13.956  0.0656 -0.1106  0.1141
31224W        W47033  14.270   7.785   3.482 -0.4049 -0.0462  0.2250
31225W        W47034   6.730   7.767  12.258 -0.1130 -0.3679  0.0270
31226W        W47035  18.351  12.357  14.974 -0.2950 -0.1907 -0.2066
31227W        W47036   9.140   5.216  12.914 -0.1386 -0.1547 -0.1302
31228W        W47037   0.592  17.682   2.922  0.1165 -0.1622  0.2092
31229W        W47038   6.660   8.657   0.879  0.0129 -0.0699  0.4136
31230W        W47039  13.312   4.150  14.149  0.0346 -0.2282  0.2719
31231W        W47040  12.001  15.855  13.414 -0.1643  0.0514 -0.2964
31232W        W47041   1.461   5.018  15.695  0.0377 -0.1150 -0.1481
31233W        W47042  11.222   7.002  13.647 -0.0728  0.2970  0.1996
31234W        W47043   5.918   7.778   4.726  0.0700 -0.0781 -0.1515
31235W        W47044  17.390   4.873  11.265 -0.1059 -0.0933 -0.0887
31236W        W47045   2.252  14.702  15.068 -0.0667 -0.1646  0.0516
31237W        W47046  17.343   7.216   2.905  0.1148  0.2814  0.0608
31238W        W47047  14.861  13.222  12.483 -0.2287 -0.1289 -0.0188
31239W        W47048  17.038   4.463   4.411  0.2932  0.2052 -0.5601
31240W        W47049   6.639   5.913  12.189 -0.3435 -0.2358  0.3733
31241W        W47050   6.854   8.843   5.132  0.4087 -0.1489 -0.0158
31242W        W47051   7.830   9.863  12.275  0.0288  0.0884 -0.0121
31243W        W47052   7.027  14.170   1.477 -0.1033 -0.2882  0.2685
31244W        W47053  18.010   9.903  11.579  0.1853 -0.0732  0.2384
31245W        W47054  12.610   5.772   4.021  0.2969 -0.1163  0.1937
31246W        W47055  11.292  12.193  13.833  0.1075 -0.0299  0.0065
31247W        W47056   0.561  17.854   3.799  0.0746  0.1507 -0.0665
31248W        W47057  15.592   5.373   0.991  0.0606  0.1031 -0.5034
31249W        W47058   2.108   6.501  10.478 -0.0297  0.0665 -0.0720
31250W        W47059   3.089   9.074   0.050  0.1263 -0.5607  0.1544
31251W        W47060  17.217  10.607   4.192 -0.0262 -0.2962 -0.0243
31252W        W47061   5.742  17.309  10.931 -0.1217 -0.1710  0.0947
31253W        W47062  12.598  13.346  14.584 -0.1956 -0.3735  0.0997
31254W        W47063  11.194  13.137  10.648 -0.1636 -0.2899 -0.2379
31255W        W47064  14.866   1.945   0.308 -0.0020 -0.1640 -0.0944
31256W        W47065   8.236  17.464  15.732  0.0637 -0.0857 -0.1449
31257W        W47066  13.971   6.423   3.074  0.2948 -0.1026 -0.0890
31258W        W47067   4.739   3.805  12.601  0.2198  0.0457 -0.2412
31259W        W47068  17.464  18.569  10.932 -0.2985  0.1909  0.0401
31260W        W47069   2.864   0.728  14.081  0.1913 -0.2095 -0.0228
31261W        W47070   2.582   8.146   0.533  0.2649 -0.0234 -0.1218
31262W        W47071  12.318   9.525  11.312  0.0595  0.1680 -0.0923
31263W        W47072  11.299   7.582  12.984  0.1578  0.0570 -0.0303
31264W        W47073  14.114   4.412  13.315  0.3805  0.4392 -0.1498
31265W        W47074   7.547   8.996   3.963  0.1187  0.0042 -0.2047
31266W        W47075   2.336   2.513  10.323  0.0622 -0.2514  0.2539
31267W        W47076  16.517  12.954   0.411  0.0320 -0.0220 -0.1424
31268W        W47077   6.540   1.033  12.748 -0.0064  0.1586  0.0334
31269W        W47078  18.354  18.507   3.115 -0.1496  0.1441 -0.2571
31270W        W47079   3.088  17.353  12.151  0.2025  0.3293 -0.0084
31271W        W47080   7.087   1.415   5.312  0.1537  0.0720  0.1329
31272W        W47081  17.492  17.663  15.678 -0.2638  0.2183  0.0175
31273W        W47082  13.258   0.345  14.894  0.1617 -0.0898  0.1947
31274W        W47083   2.589  14.754   1.250 -0.0129  0.0449  0.0415
31275W        W47084  14.140   6.644   5.315 -0.0387  0.1537 -0.1615
31276W        W47085   7.559   6.020   4.788 -0.0037  0.2350  0.0247
31277W        W47086  11.676   2.087  12.465  0.1612  0.1504 -0.0294
31278W        W47087   4.459  16.621   4.234 -0.0474  0.0910  0.2060
31279W        W47088  17.109   2.500   1.912 -0.3564 -0.1264  0.0340
31280W        W47089   1.192  17.015   3.798  0.0103 -0.1896 -0.0532
31281W        W47090   1.633  12.441  11.636 -0.5607  0.0815  0.0153
31282W        W47091  18.592   5.181   1.587  0.1860  0.1684  0.1274
31283W        W47092  16.395   2.710  11.696 -0.0162 -0.1898  0.1738
31284W        W47093  17.182  17.192   3.798 -0.0556  0.3839 -0.1812
31285W        W47094   5.347   4.462   2.235  0.1533  0.0494 -0.4168
31286W        W47095  15.281  10.873  14.675 -0.1425  0.1926 -0.1353
31287W        W47096   7.358  14.866   0.520 -0.3137  0.2557 -0.0906
31288W        W47097  17.464  13.565  13.714 -0.0637  0.1082 -0.0723
31289W        W47098  11.966   8.333  14.553  0.0808 -0.5218 -0.1471
31290W        W47099   3.231  16.986  13.498  0.1432 -0.1422  0.0251
31291W        W47100   5.007   2.415   5.444  0.2671  0.0932  0.3380
31292W        W47101  16.459   5.021   4.734  0.2135  0.0736 -0.2876
31293W        W47102   3.770   9.551   1.279 -0.2046  0.1546  0.3318
31294W        W47103   1.729  10.274  13.027 -0.3095 -0.3639 -0.2100
31295W        W47104   9.935   2.001  15.307 -0.2892 -0.0341  0.0993
31296W        W47105  12.753   5.892  15.525  0.0392  0.1229  0.2660
31297W        W47106   4.835  11.099   2.841 -0.0643  0.0871 -0.1651
31298W        W47107  11.708   4.771   3.404  0.1663 -0.1533  0.1057
31299W        W47108  12.435  13.387   5.420  0.0836 -0.1023 -0.0767
31300W        W47109   7.942   2.886   4.886 -0.3414  0.1368 -0.0539
31301W        W47110   4.352   6.829   5.129 -0.2468  0.0866 -0.2856
31302W        W47111   9.024  10.200  13.410 -0.0017  0.0280 -0.1173
31303W        W47112  12.233   4.683  12.418 -0.3138  0.0231  0.1871
31304W        W47113   4.088  18.536   0.351 -0.1228  0.2351 -0.1684
31305W        W47114   0.075   9.718  15.531 -0.1155 -0.3000 -0.1606
31306W        W47115  12.608  18.039   3.124 -0.2255  0.0177 -0.2513
31307W        W47116   7.066  17.399   2.666 -0.1166  0.0297 -0.0375
31308W        W47117  12.270  18.349  12.413 -0.1431 -0.1290  0.0596
31309W        W47118   7.217   6.580  12.421  0.0490  0.3648  0.1282
31310W        W47119  10.809  14.778  11.736 -0.1155  0.0694  0.2735
31311W        W47120   2.304   5.070   4.632 -0.0433  0.1223 -0.2812
31312W        W47121  17.127   2.348   1.261  0.3158  0.0698 -0.1933
31313W        W47122   0.598   3.390  11.022 -0.0198 -0.0936 -0.0286
31314W        W47123   5.026  18.302   3.100  0.1845  0.1664  0.1209
31315W        W47124   2.718  16.408  15.106 -0.3516 -0.2030 -0.0786
31316W        W47125  13.395  10.636  10.878 -0.1131 -0.0006  0.3218
31317W        W47126  18.169   1.386  13.340 -0.0746  0.2553 -0.1639
31318W        W47127   5.842   7.426  10.841  0.0208 -0.0441  0.0260
31319W        W47128   2.256  16.032   5.585  0.1086  0.1729  0.3264
31320W        W47129  14.135   8.936   0.918 -0.0174 -0.1108  0.0992
31321W        W47130   5.567   5.808   5.342 -0.3180  0.0342 -0.0656
31322W        W47131  10.334   1.422  11.004  0.2009  0.0796  0.2033
31323W        W47132   7.193   8.375   3.170  0.0064 -0.1721  0.0820
31324W        W47133   8.896  16.895   5.609 -0.2430  0.2373  0.0025
31325W        W47134   0.005  13.015  15.392  0.2530 -0.1641  0.3068
31326W        W47135  16.971   1.342  12.576  0.2993  0.0434 -0.0459
31327W        W47136   0.975  17.717   1.280  0.2128  0.0746  0.2113
31328W        W47137  17.260   2.184  13.090  0.2022 -0.1415  0.0073
31329W        W47138   1.633  13.751  14.376 -0.2296  0.1251  0.2555
31330W        W47139   8.101  13.792  14.312  0.2726 -0.1368 -0.2255
31331W        W47140   5.652   9.655  12.541 -0.1346 -0.4021  0.1835
31332W        W47141  11.181   4.299  13.272 -0.1282 -0.3473 -0.3033
31333W        W47142   1.230  12.989  14.989  0.1591 -0.0306  0.0553
31334W        W47143   3.700   7.408  12.226 -0.4419  0.0658 -0.0715
31335W        W47144  14.144  14.878   3.737 -0.2705 -0.1423 -0.0113
31336W        W47145   3.722   6.268   4.861 -0.4830 -0.1232 -0.1764
31337W        W47146   6.344   1.196   1.832  0.1251 -0.0645 -0.2010
31338W        W47147  14.398   7.116  15.674  0.1126 -0.0700  0.1996
31339W        W47148  10.173   0.623  15.135  0.1045 -0.0175 -0.2692
31340W        W47149  17.573  14.954  13.981  0.0770 -0.2096  0.2164
31341W        W47150  15.636   0.681  15.180  0.1367 -0.1374  0.0463
31342W        W47151   3.539   7.392   1.572 -0.0771  0.0482  0.0759
31343W        W47152  16.417   4.955  11.648  0.1688  0.2036  0.1217
31344W        W47153  14.059   9.783  15.347  0.3323  0.1411 -0.0394
31345W        W47154   9.973  17.098  10.404  0.1861  0.0819 -0.2311
31346W        W47155   3.125  15.451  11.942 -0.1440 -0.0210  0.2259
31347W        W47156   1.270  16.549   1.129  0.0640  0.2726  0.2175
31348W        W47157  11.009   9.951   1.480  0.0747 -0.2793  0.0526
31349W        W47158   2.697   8.047   2.318 -0.0273 -0.3290 -0.1629
31350W        W47159  17.868  12.695  11.508 -0.0016  0.2353  0.2765
31351W        W47160   8.352   1.882  13.335 -0.1925 -0.1875  0.2604
31352W        W47161  15.499   2.397  14.121 -0.2510  0.2067 -0.3478
31353W        W47162   4.708   1.431  12.274  0.0385 -0.0307  0.0110
31354W        W47163  10.929   1.291  11.875  0.0861 -0.1660  0.0077
31355W        W47164   3.491   0.240  13.880  0.0202 -0.0379 -0.4819
31356W        W47165  10.870  18.500   2.620 -0.2304  0.1570  0.2297
31357W        W47166   5.539  12.324   0.852 -0.2593 -0.0041  0.2034
31358W        W47167  11.955   6.217  10.687 -0.0535 -0.2016 -0.3612
31359W        W47168   0.346   6.841  11.251 -0.4680  0.2479 -0.0301
31360W        W47169   6.389   9.086  13.353 -0.1545 -0.2520  0.2001
31361W        W47170   5.890  17.738   0.529  0.0605 -0.0829  0.4942
31362W        W47171   9.305   5.536  12.117 -0.2689  0.1379 -0.1237
31363W        W47172   4.117  12.853   0.344 -0.0581 -0.3794 -0.3718
31364W        W47173  14.237  15.539  11.084 -0.2626 -0.1997 -0.1735
31365W        W47174   6.044  13.952  12.558 -0.0740  0.1944  0.0957
31366W        W47175   5.646   5.689   2.769 -0.1731 -0.1701 -0.0029
31367W        W47176  16.488   7.907   3.837 -0.1558 -0.4189 -0.0436
31368W        W47177   3.787  17.485  12.998 -0.0516 -0.1501  0.0326
31369W        W47178  16.937   4.955  11.448  0.0976 -0.1799  0.3333
31370W        W47179   2.822  17.487  15.705 -0.3391  0.1355 -0.2017
31371W        W47180   7.596   3.447  13.583 -0.3799  0.0324 -0.0554
31372W        W47181   2.611  14.804  10.629 -0.2291 -0.2195 -0.1574
31373W        W47182   2.328  14.916   1.664  0.1991 -0.1736 -0.2270
31374W        W47183   3.508  16.532   5.218 -0.2834 -0.0720  0.1391
31375W        W47184   9.921  13.006  11.885  0.0425 -0.0375  0.0552
31376W        W47185   1.872   0.172  11.886  0.0908  0.0788 -0.4045
31377W        W47186  16.229   4.858  13.087 -0.1388 -0.1411  0.0544
31378W        W47187   9.243   3.907   0.554  0.0886 -0.0829 -0.1458
31379W        W47188  17.515   7.573   2.603 -0.3204  0.0272  0.4443
31380W        W47189  12.368  10.266   1.541  0.1310 -0.1850  0.0653
31381W        W47190  17.209   4.002  11.223  0.0864 -0.0157  0.1799
31382W        W47191   6.734  14.569  14.075  0.2782  0.1914 -0.0982
31383W        W47192  11.183   0.989   2.353  0.1751 -0.1615  0.0880
31384W        W47193  16.391  16.431  12.487 -0.0675 -0.1226  0.0656
31385W        W47194  10.019   7.931  14.420 -0.2296  0.1019  0.0875
31386W        W47195  16.124   1.937  15.150 -0.0992 -0.3625 -0.0511
31387W        W47196  10.518  12.786  11.170 -0.0595 -0.1288 -0.0180
31388W        W47197  15.701  15.314   2.999  0.0856 -0.3638  0.2465
31389W        W47198  11.867   9.170   5.568  0.0383 -0.2735 -0.3942
31390W        W47199  15.943   8.981  10.940 -0.0571 -0.0930  0.3923
31391W        W47200   4.655   7.571   2.347 -0.2290 -0.0923 -0.0315
31392W        W47201   1.114   4.661   0.202  0.2289 -0.0818  0.0633
31393W        W47202  11.396  11.853   2.483 -0.0508 -0.0321  0.1338
31394W        W47203  13.069   5.693  13.924 -0.1158  0.0327 -0.1867
31395W        W47204  10.643  12.949   3.601  0.2062 -0.0753  0.0776
31396W        W47205  10.589   8.336   5.095 -0.0496 -0.2166 -0.0749
31397W        W47206  12.001   4.814  14.728 -0.2010  0.3120 -0.0197
31398W        W47207  13.413   6.689  11.212 -0.0036 -0.3074  0.0453
31399W        W47208   0.185   2.962  11.164  0.2198  0.0460 -0.3454
31400W        W47209   7.030  14.437   9.764  0.1388 -0.0428  0.1570
31401W        W47210   4.664  17.183  12.600 -0.1073  0.3483 -0.4119
31402W        W47211   3.875  16.978   2.332 -0.0006  0.3363 -0.0542
31403W        W47212  16.317   2.437  11.138 -0.0795  0.0601 -0.2598
31404W        W47213   3.846  15.473   4.259  0.1333  0.0697  0.0440
31405W        W47214  15.231   3.750   3.865 -0.1674  0.1666  0.1131
31406W        W47215   3.856  12.802   2.389  0.2377  0.1746 -0.1420
31407W        W47216   0.270   7.165   4.550 -0.0476 -0.0559 -0.0568
31408W        W47217  15.172   1.740   2.782 -0.1558  0.1942  0.1534
31409W        W47218  15.690   9.917   4.522 -0.0851  0.1031 -0.1273
31410W        W47219  15.565   0.916   3.570  0.3088  0.3592 -0.1501
31411W        W47220   4.191   4.772   0.259 -0.1082  0.2539  0.0872
31412W        W47221  18.228  11.718  12.342  0.3014 -0.1157  0.3721
31413W        W47222  12.307   7.559  10.591  0.0516  0.0890  0.2442
31414W        W47223  16.492  16.489   4.861 -0.3265 -0.0103 -0.3248
31415W        W47224  12.523  14.084  12.397  0.0416  0.2813  0.2874
31416W        W47225  18.476  15.349   3.358 -0.1950 -0.1015 -0.0783
31417W        W47226  13.261   6.174  15.495  0.1741 -0.2548  0.1467
31418W        W47227  16.583  15.478   2.280 -0.5042  0.2316  0.0501
31419W        W47228   1.820   3.944  12.973 -0.2487  0.0012  0.1770
31420W        W47229   9.380   5.721   5.024 -0.2366  0.2032  0.0011
31421W        W47230   2.889   4.780  15.328 -0.0906 -0.0685 -0.0523
31422W        W47231   8.641  14.633  14.335 -0.3096 -0.1669  0.0983
31423W        W47232   7.800  16.967   5.881  0.0451  0.1902 -0.3168
31424W        W47233   8.763   4.237   4.503  0.1306 -0.2983  0.2672
31425W        W47234   4.969   0.541  15.072  0.1272 -0.1077  0.0651
31426W        W47235   8.996  17.410   1.851 -0.3588 -0.1969 -0.3763
31427W        W47236   9.977  10.650  12.347 -0.0767 -0.1493 -0.0017
31428W        W47237   5.957  14.921  15.322  0.3166 -0.0654 -0.0925
31429W        W47238   9.056  12.813  10.512  0.1476 -0.0932  0.0300
31430W        W47239   9.333   7.579   5.401 -0.3283 -0.1630 -0.2519
31431W        W47240  12.111  17.795  14.458  0.2114 -0.2600 -0.1011
31432W        W47241  10.149  15.963  11.110  0.0011  0.5552 -0.0612
31433W        W47242  15.930   4.192  12.446  0.2628  0.1284 -0.2043
31434W        W47243   7.815   5.275  11.425 -0.0608  0.0897  0.0847
31435W        W47244   0.098  14.258   4.987 -0.0379  0.1398  0.0829
31436W        W47245  16.207   6.513   0.891 -0.0146  0.0233 -0.0468
31437W        W47246   8.948  16.927   3.851  0.0239  0.0276 -0.2647
31438W        W47247  15.107  10.429   2.508 -0.3594 -0.1305  0.3785
31439W        W47248  17.992   5.624   4.683  0.2412  0.0724 -0.2705
31440W        W47249   9.285  15.102  13.866  0.1710 -0.3020 -0.4592
31441W        W47250  15.946   8.207  14.327 -0.0720 -0.0435 -0.0102
31442W        W47251   7.129   1.755  14.392 -0.1715 -0.1708  0.0893
31443W        W47252   3.746  14.340  15.725 -0.2907 -0.1386 -0.1838
31444W        W47253   0.165  15.848  11.666 -0.1191 -0.0044 -0.1220
31445W        W47254   4.962  12.147   1.603  0.2691 -0.3606 -0.1706
31446W        W47255  12.692  10.882  14.488  0.3236  0.0190 -0.0935
31447W        W47256   7.734  10.309  12.101  0.2769 -0.1143  0.1465
31448W        W47257   3.123   5.267   1.546 -0.0797  0.1588 -0.0352
31449W        W47258  18.417   7.850   2.929 -0.3044 -0.0850 -0.0967
31450W        W47259  13.555   9.743  15.687  0.1439  0.0663 -0.2729
31451W        W47260  14.850  16.863  13.808  0.1022  0.1809 -0.2776
31452W        W47261   1.681  13.650   3.029 -0.2335  0.2088  0.3078
31453W        W47262   4.702   1.531  13.985 -0.1999  0.3190 -0.3801
31454W        W47263   3.506   0.894  13.527  0.1676 -0.2041  0.0197
31455W        W47264   9.542  13.059   5.669 -0.2542 -0.2258  0.1860
31456W        W47265  14.844   7.041  14.673 -0.0750 -0.2382  0.2961
31457W        W47266   9.261   2.335  14.570 -0.3284 -0.1221 -0.0187
31458W        W47267   8.503   4.694  15.570 -0.1156 -0.1790 -0.1318
31459W        W47268  13.716   8.238   0.158  0.0077 -0.0568 -0.0663
31460W        W47269  14.710  18.184   3.154  0.0684  0.0772  0.1200
31461W        W47270  17.308   8.431   1.411  0.0335 -0.4425 -0.2765
31462W        W47271   7.971   6.610  14.676 -0.1703  0.1860  0.0456
31463W        W47272  14.381   4.296   1.332  0.2911 -0.0958 -0.0469
31464W        W47273  10.758  15.280  12.047 -0.2674 -0.1754  0.1681
31465W        W47274  16.602   8.718  11.344  0.0246  0.2553 -0.1169
31466W        W47275  11.573  11.644  10.447  0.0383 -0.1388 -0.0799
31467W        W47276   5.792  12.215   5.141  0.2912  0.3698 -0.1858
31468W        W47277  12.170  17.258  12.574  0.1691  0.0782  0.0867
31469W        W47278   6.573   5.552   5.762 -0.0870  0.0338 -0.1981
31470W        W47279   2.135   3.927   2.304 -0.1871 -0.3323  0.0954
31471W        W47280  12.687   6.241   0.808 -0.2375 -0.0514  0.1139
31472W        W47281  11.258   0.100   0.452  0.1073 -0.0673 -0.1684
31473W        W47282  17.045   4.526  11.116 -0.1530 -0.0448 -0.3370
31474W        W47283   6.784   9.973   4.353 -0.1343  0.0174  0.2699
31475W        W47284  16.047   4.133   0.229  0.0372  0.0411  0.2962
31476W        W47285   8.639   1.961   4.392  0.0994 -0.0638 -0.1670
31477W        W47286   2.659  17.101  12.278 -0.2945 -0.4513  0.2702
31478W        W47287   6.746   3.879   5.947 -0.0448 -0.1281  0.0969
31479W        W47288   3.333   3.245   1.923 -0.1619  0.1085 -0.0198
31480W        W47289   7.686  18.058  12.123 -0.0745  0.0602 -0.2680
31481W        W47290   6.023   4.498  15.733 -0.1911  0.0727 -0.2174
31482W        W47291   7.044   6.132  13.649  0.1182  0.1135  0.0871
31483W        W47292   4.329   5.438   3.703 -0.0932 -0.4418  0.4100
31484W        W47293  17.155  16.826  10.668 -0.0972 -0.2821 -0.0539
31485W        W47294  17.819   7.855  14.564 -0.0217  0.0813 -0.2484
31486W        W47295   9.088   3.056   0.954 -0.0164 -0.1365  0.0792
31487W        W47296  12.946   5.552   1.441 -0.1234  0.3015 -0.2541
31488W        W47297   3.910   2.382  14.996  0.3774  0.0626  0.0496
31489W        W47298   4.892   6.469   3.924 -0.2791  0.2565 -0.0291
31490W        W47299  11.637  16.263  13.468 -0.3124  0.0507  0.1843
31491W        W47300  12.979   9.570   4.887  0.1650 -0.1911  0.2008
31492W        W47301  16.938   3.937  14.731 -0.0860  0.2681 -0.1420
31493W        W47302  10.139   6.761   2.110  0.1432  0.4646 -0.4427
31494W        W47303  16.263   6.206  12.298 -0.2577 -0.2893 -0.2649
31495W        W47304   9.706   1.079  13.066  0.1490 -0.0776  0.5215
31496W        W47305  12.821  14.666   9.648  0.0024  0.0837  0.1378
31497W        W47306  11.542  15.082  12.416 -0.3135  0.1727 -0.4419
31498W        W47307  15.599  17.143   3.577  0.0078 -0.0872 -0.0430
31499W        W47308  11.115   5.578  11.679 -0.0596 -0.1288  0.1999
31500W        W47309   7.561   5.684   3.269 -0.1066  0.1461  0.0004
31501W        W47310   7.207   3.224  14.448 -0.1936  0.2413 -0.1414
31502W        W47311   8.206   8.306   1.855 -0.0404 -0.0836  0.0030
31503W        W47312   1.635   1.186   1.716  0.0831 -0.1938 -0.1657
31504W        W47313  16.801  17.336  14.299 -0.0483 -0.0544 -0.0666
31505W        W47314  10.711  17.742   1.692  0.1056  0.0830 -0.1129
31506W        W47315  10.160   1.907  12.676  0.0954  0.2064 -0.0573
31507W        W47316  17.998   0.996  12.201  0.2009  0.0165 -0.4484
31508W        W47317  16.222   2.675   0.295 -0.1970  0.3598 -0.0518
31509W        W47318   0.006   9.185   4.261  0.1563  0.1696  0.1913
31510W        W47319  16.760   0.164  15.098 -0.3295  0.0218 -0.2282
31511W        W47320  13.997   8.999   4.063 -0.0940 -0.1682 -0.4172
31512W        W47321  16.640   6.102   2.946  0.1546  0.1247 -0.2216
31513W        W47322  11.051  18.289  13.035 -0.4304  0.1656 -0.0169
31514W        W47323  15.193  12.914  12.778  0.1765 -0.1030  0.0861
31515W        W47324   4.006  15.102  11.009 -0.1725  0.3787  0.0372
31516W        W47325   6.043   2.190  12.598  0.2870  0.0099  0.1253
31517W        W47326   1.447  11.211   2.089 -0.1215 -0.2378  0.1460
31518W        W47327  17.492  13.572   4.291  0.1069  0.0055  0.2511
31519W        W47328   7.489   9.078   0.006  0.0041  0.0513 -0.2854
31520W        W47329   3.393   9.295  11.208  0.2187 -0.0784  0.2243
31521W        W47330   9.541  16.872   0.169 -0.1288  0.0786 -0.0389
31522W        W47331   0.038  14.026  12.393 -0.0721 -0.0263  0.2657
31523W        W47332  17.543  14.845  13.447 -0.3638  0.0593  0.2106
31524W        W47333  13.165  14.216   9.877  0.1980 -0.1381  0.0653
31525W        W47334  18.293   8.106   2.175 -0.2843 -0.0443  0.2889
31526W        W47335   9.966   9.400  10.845  0.1327 -0.0451 -0.1895
31527W        W47336  10.010   4.793  14.942  0.1172  0.2274  0.2332
31528W        W47337  16.575  18.374  12.137 -0.2360 -0.3354  0.1271
31529W        W47338   2.036   1.135   4.041 -0.3544  0.0300 -0.0881
31530W        W47339   5.518   8.758   0.792 -0.0331  0.4897 -0.4988
31531W        W47340   0.653   3.207   5.337 -0.0432  0.0770 -0.2728
31532W        W47341  13.040   6.069  11.429  0.1194  0.0510  0.1635
31533W        W47342  17.987   9.500  11.284  0.4452 -0.2547  0.3953
31534W        W47343  16.610  12.096   1.973 -0.2393 -0.1896 -0.0593
31535W        W47344   5.381   1.304   3.482 -0.2746 -0.2125  0.0216
31536W        W47345  18.520   0.511   2.461 -0.2366  0.4216  0.0161
31537W        W47346  13.219  14.558  11.101 -0.2062  0.2044 -0.4761
31538W        W47347   2.309   3.874  13.220  0.1038  0.1863 -0.1821
31539W        W47348   5.735   9.395  11.457 -0.0925 -0.3060  0.0445
31540W        W47349   4.449  15.202  11.124  0.2097 -0.0588  0.0509
31541W        W47350  18.252  13.260  15.348 -0.0715 -0.2554 -0.0865
31542W        W47351   3.012   1.783  12.802  0.1216  0.2244  0.0239
31543W        W47352  12.119   5.381  14.105  0.1241  0.0735  0.1202
31544W        W47353  15.592  16.220  10.168 -0.2144  0.0859  0.2409
31545W        W47354  11.162   6.025   0.322 -0.0938  0.0847 -0.1756
31546W        W47355   9.721  17.108   2.890  0.0620 -0.0791  0.1738
31547W        W47356  12.418  10.123  15.195  0.1075 -0.1074 -0.0414
31548W        W47357   2.461   6.530   3.572  0.0840 -0.3530  0.2197
31549W        W47358  17.925  15.144  14.795 -0.2531 -0.0344 -0.1288
31550W        W47359  12.012  17.372  14.150 -0.3156 -0.1241 -0.0883
31551W        W47360  14.243  16.784   3.595 -0.0083  0.0567 -0.2471
31552W        W47361  18.070  16.634  12.418  0.1986 -0.2923  0.0102
31553W        W47362   7.151  14.256  13.284  0.4886  0.1398 -0.2790
31554W        W47363  10.592   2.838   4.501 -0.2944  0.0121 -0.5176
31555W        W47364   7.582  14.866  11.405 -0.0163 -0.0389 -0.3844
31556W        W47365  18.097   9.097  14.227 -0.1016  0.0404  0.2074
31557W        W47366  16.230   5.092  14.352 -0.0021 -0.1071 -0.0727
31558W        W47367  13.935   9.179  13.885 -0.2323  0.0362 -0.0802
31559W        W47368   8.951   9.927   2.337  0.2005  0.3672  0.0012
31560W        W47369  14.402  16.855   4.389  0.0619  0.3158  0.1531
31561W        W47370  11.647  12.488  15.227  0.1295  0.1076 -0.0180
31562W        W47371  16.599   4.988  15.631 -0.0875  0.0608  0.0873
31563W        W47372  13.487  14.059  10.147 -0.2533  0.1597 -0.0852
31564W        W47373  14.428  14.690  14.518 -0.0277 -0.3489  0.3131
31565W        W47374   6.873   3.063  13.871 -0.0905 -0.0791 -0.0478
31566W        W47375  12.127   5.321   1.258 -0.1284  0.1627  0.0060
31567W        W47376  18.132   1.069  14.397 -0.2979  0.0561  0.3114
31568W        W47377  16.639  15.705   4.362  0.0082  0.3512 -0.1400
31569W        W47378   8.339   0.358   1.834  0.0033  0.0252  0.1354
31570W        W47379   0.817  17.477  10.638  0.2247 -0.0335 -0.1376
31571W        W47380  12.664   1.776  10.653  0.0085 -0.1054 -0.0381
31572W        W47381   1.693   8.855  15.529  0.2416  0.3957 -0.0862
31573W        W47382   3.734  12.588  13.528  0.1403  0.1987  0.0237
31574W        W47383  14.394  15.574  10.199  0.2745 -0.2073 -0.1300
31575W        W47384   4.477   3.928   1.664  0.1195  0.1304 -0.4189
31576W        W47385  12.990  11.383   1.489  0.1903 -0.2565  0.0159
31577W        W47386  11.940   8.379  11.507  0.0392 -0.3668 -0.2101
31578W        W47387   5.107  18.617  12.783 -0.2305  0.0474 -0.2016
31579W        W47388   0.704  14.684   0.994 -0.1214 -0.0991  0.2494
31580W        W47389  16.386   1.599   1.271  0.0101 -0.0856 -0.0027
31581W        W47390   6.069   8.281  10.799  0.0262  0.0068 -0.0759
31582W        W47391  11.407  14.278  10.163  0.2714 -0.2343  0.2395
31583W        W47392   6.858  12.750  15.217  0.1053 -0.3175  0.0646
31584W        W47393   3.036   0.918   2.863 -0.2266 -0.1188 -0.1226
31585W        W47394  12.920   5.573  11.560  0.0557  0.0566 -0.3718
31586W        W47395  10.695   8.132   1.203  0.0350  0.1146 -0.2397
31587W        W47396   5.945  13.413  13.653  0.0534 -0.2420 -0.0265
31588W        W47397   3.185  17.425   5.316 -0.0859  0.2104  0.0910
31589W        W47398   4.539  14.524  13.706  0.1434 -0.0613  0.0120
31590W        W47399   4.228  10.987   1.017 -0.1133  0.0067  0.0127
31591W        W47400  11.081   8.343   0.025 -0.2895 -0.3238  0.0188
31592W        W47401   1.209   8.214   5.663  0.2263  0.0784  0.0078
31593W        W47402   9.345  18.454   5.142  0.0888  0.0602 -0.0927
31594W        W47403  11.615  12.029  12.077 -0.0766 -0.0066 -0.1485
31595W        W47404   9.139   1.335  13.685 -0.0568  0.3061  0.0138
31596W        W47405   0.996  14.356   0.790 -0.1722 -0.2024  0.3711
31597W        W47406   8.517   4.739  11.231 -0.0782 -0.4709  0.0293
31598W        W47407   7.209  11.281   2.439 -0.0008  0.0853  0.1596
31599W        W47408  12.338  18.200  15.317  0.3498  0.0309  0.2056
31600W        W47409  10.394  16.139   4.330 -0.1401 -0.4699  0.0026
31601W        W47410   3.386   2.366  15.056  0.1395  0.2555 -0.1117
31602W        W47411   9.796  10.993  14.188  0.0885  0.0920  0.0216
31603W        W47412  18.261  12.185   5.236  0.0428  0.2372  0.2587
31604W        W47413   2.864   1.593  15.382  0.0507 -0.1298 -0.0057
31605W        W47414  18.410  14.469   4.491 -0.2209  0.1564 -0.0734
31606W        W47415   0.543  10.511  11.785  0.0897 -0.1331 -0.1914
31607W        W47416   6.896  11.193   2.978  0.0093  0.0521  0.1288
31608W        W47417   2.240   5.760   2.814 -0.1786  0.2416  0.0767
31609W        W47418  10.479   7.708  11.899  0.4408 -0.2452  0.1459
31610W        W47419   6.537  13.311   0.561  0.1193  0.2936 -0.0334
31611W        W47420   8.703  15.903   5.396 -0.1785 -0.5357  0.0398
31612W        W47421   7.713   9.890  11.786 -0.0275  0.3696 -0.2154
31613W        W47422  17.605  15.905  15.750 -0.1943  0.1409  0.0030
31614W        W47423  11.670  10.729   1.180 -0.1613 -0.1354 -0.0800
31615W        W47424   6.570   1.587  13.608  0.2992 -0.1839 -0.1181
31616W        W47425  13.829  11.088  11.837  0.0117  0.0410 -0.0145
31617W        W47426   7.516   4.835  13.890 -0.0006 -0.0245  0.2643
31618W        W47427  16.616  13.059  12.848 -0.0280 -0.0596  0.1305
31619W        W47428  18.525  13.976   4.593  0.0971  0.0460  0.1759
31620W        W47429   2.437  12.470   4.167 -0.0814  0.2514  0.1007
31621W        W47430  15.801  16.551  14.262  0.2964  0.0990 -0.3108
31622W        W47431   3.231  15.586  14.053 -0.1744 -0.1385 -0.0770
31623W        W47432   9.072   2.074  12.931 -0.0402  0.2944  0.1863
31624W        W47433   2.533   4.514   3.010  0.0460  0.0671 -0.1838
31625W        W47434   3.267   3.994  15.278  0.2430 -0.1822  0.0051
31626W        W47435   8.158   3.717  11.262 -0.0005 -0.0711 -0.0587
31627W        W47436  15.600   5.920   0.804  0.1508 -0.1423 -0.0473
31628W        W47437   7.590   0.275   5.863  0.1186  0.1437 -0.0439
31629W        W47438  11.573  12.523   0.847 -0.0385  0.0671  0.0429
31630W        W47439   1.510  13.417   5.652  0.1049  0.2411  0.3256
31631W        W47440  10.715  16.525  15.491 -0.0044  0.4705  0.2190
31632W        W47441   7.738   0.630   1.199 -0.0940 -0.2627  0.0568
31633W        W47442   8.307  14.280  11.327 -0.3666 -0.1342 -0.0136
31634W        W47443  10.842  16.419   2.029 -0.1354 -0.3222  0.0071
31635W        W47444  17.269   2.242   4.749  0.4556 -0.1619 -0.1593
31636W        W47445  11.428  13.236   4.335  0.1945  0.0730  0.1493
31637W        W47446   1.073   8.585  10.160 -0.4812 -0.1020 -0.1638
31638W        W47447   9.094  13.123  11.672  0.1617 -0.2482 -0.0183
31639W        W47448   2.885   0.431  12.020  0.0668 -0.0258  0.5400
31640W        W47449  10.726  13.464   0.194  0.4613 -0.0592  0.1556
31641W        W47450  16.775   1.734   1.892  0.0739 -0.0515  0.1827
31642W        W47451   9.518  12.127   1.991  0.0051  0.0827 -0.1388
31643W        W47452  12.304  11.505   4.012 -0.3140  0.0856 -0.0228
31644W        W47453   7.711  15.755   1.845  0.2548  0.1391  0.2297
31645W        W47454   3.711   2.956  12.323  0.0775  0.1877 -0.1359
31646W        W47455   6.236  16.860  15.094 -0.2770 -0.0285  0.0664
31647W        W47456  15.839  10.046  12.574  0.0184 -0.0886 -0.1914
31648W        W47457  10.998   3.287   2.571  0.1741 -0.0698 -0.1138
31649W        W47458  11.197   6.837   4.803 -0.1905  0.2402 -0.3435
31650W        W47459   9.825  10.902  11.228  0.2941  0.2764 -0.0582
31651W        W47460  13.543  11.625  14.555  0.0180  0.1451 -0.1049
31652W        W47461   8.851  17.208  12.633  0.1258 -0.1436 -0.2875
31653W        W47462  15.119  18.612   1.330  0.0542 -0.0634  0.1110
31654W        W47463   7.788  11.381   1.272  0.0380 -0.2441  0.0783
31655W        W47464  13.838   5.787  11.237  0.1158  0.2281  0.3760
31656W        W47465   8.390  11.323  14.330  0.1665 -0.0916  0.2767
31657W        W47466   4.725  17.254  15.121 -0.0792  0.0396 -0.2524
31658W        W47467  13.296  13.021  10.749  0.0268  0.1451  0.0745
31659W        W47468  10.535  11.253  15.187 -0.1792 -0.1076  0.0834
31660W        W47469  17.053  10.051   5.405  0.5945  0.3323  0.2916
31661W        W47470   1.054  12.317  12.857  0.2368  0.1570 -0.2985
31662W        W47471  16.974  15.657   2.784 -0.0553 -0.0048 -0.0305
31663W        W47472  13.853   9.427   1.696  0.0183 -0.0880  0.0021
31664W        W47473   4.778  15.567   4.107 -0.3150  0.1441 -0.4789
31665W        W47474   9.713  10.427  13.535 -0.0501  0.0544  0.2697
31666W        W47475   5.770  16.360  15.190  0.1565 -0.2333 -0.1297
31667W        W47476   0.130   4.662   1.880  0.0531 -0.0654 -0.0843
31668W        W47477  16.156   4.989   4.187  0.1992  0.1537 -0.1276
31669W        W47478  10.058  16.460   1.954  0.1249 -0.1046 -0.1415
31670W        W47479   6.790   7.342  11.633 -0.2390 -0.1873 -0.1829
31671W        W47480  18.098  15.393  15.174  0.0729 -0.0596  0.2780
31672W        W47481  16.680   8.716  14.549  0.0443  0.0853  0.1413
31673W        W47482  17.835   5.138   1.141  0.2940 -0.0430  0.1271
31674W        W47483  13.780   3.877   1.247  0.1034  0.0069 -0.0091
31675W        W47484  10.879  13.298   3.268 -0.0731  0.4029 -0.0607
31676W        W47485  15.971   9.677  12.218  0.1618 -0.0094  0.1791
31677W        W47486  13.586   1.630  15.440 -0.0253  0.0494  0.0227
31678W        W47487   9.896   7.809  13.916 -0.1193 -0.0013 -0.0607
31679W        W47488  10.116   0.528   3.804  0.2778  0.0417 -0.0775
31680W        W47489   5.165  12.553   1.431 -0.0511  0.0415 -0.0985
31681W        W47490  17.533  15.497  14.940  0.2667  0.1293  0.1815
31682W        W47491   5.529   9.502   3.379  0.0977 -0.1801 -0.0810
31683W        W47492   6.737  17.641  12.631 -0.0296 -0.0745 -0.1023
31684W        W47493   3.685   4.643   3.463  0.0050 -0.0178  0.0413
31685W        W47494  15.471   5.550   3.760 -0.0301  0.1093  0.2559
31686W        W47495  17.631  16.471   1.673  0.2646 -0.0709  0.0067
31687W        W47496  12.212  15.732  11.301  0.0467  0.1653 -0.3831
31688W        W47497  17.215   0.874   0.705 -0.0547 -0.0637 -0.0790
31689W        W47498  16.262  12.608   0.647  0.0564  0.0270 -0.1880
31690W        W47499  11.724  11.392  13.690  0.0701  0.1429  0.0542
31691W        W47500   2.626   1.833  12.387 -0.0406 -0.1688  0.1534
31692W        W47501   2.918   0.240  11.543  0.0690  0.1659  0.0820
31693W        W47502   7.711  11.288  13.203  0.4564 -0.2222 -0.3344
31694W        W47503  18.021   9.855   4.831  0.1088 -0.0751 -0.0121
31695W        W47504  13.065  16.714  11.639  0.0549  0.3304  0.0896
31696W        W47505   6.261  16.131   1.370  0.0109  0.0716 -0.0595
31697W        W47506  14.571   4.100   0.101 -0.0440 -0.0427 -0.0865
31698W        W47507  16.669   0.461  11.544  0.0139  0.2048  0.0675
31699W        W47508  11.782   3.445  11.842  0.2437  0.0060  0.0289
31700W        W47509   9.750  12.288  11.775 -0.1699 -0.1462 -0.1337
31701W        W47510   2.215  11.767  12.581 -0.0828  0.0719  0.3035
31702W        W47511  12.508  14.474  14.681 -0.1598  0.2769  0.0079
31703W        W47512  18.597  11.237   2.569 -0.0739 -0.0079  0.1294
31704W        W47513   5.809  15.262  11.611 -0.1199  0.1852  0.0323
31705W        W47514  13.657   7.538   1.932 -0.5302 -0.0476  0.1659
31706W        W47515  17.954  11.050   1.122 -0.0100 -0.2698  0.1098
31707W        W47516   4.971  15.186  11.422  0.1319 -0.0894  0.2503
31708W        W47517  17.704   9.891   2.469  0.2888 -0.1814 -0.0181
31709W        W47518   9.680  16.097   2.272  0.0778 -0.0785 -0.0019
31710W        W47519   1.577  11.135  14.810 -0.0858  0.0261  0.3860
31711W        W47520   4.114  18.200  15.687 -0.1759 -0.0432 -0.4095
31712W        W47521   2.087   0.352  10.129 -0.2412 -0.1491  0.1023
31713W        W47522   2.793  17.894  11.426  0.1245  0.2616 -0.2876
31714W        W47523  12.068   2.117  13.568  0.1565 -0.0507  0.0158
31715W        W47524   5.096   2.834   0.944 -0.3024 -0.2395  0.1466
31716W        W47525   8.613   8.681  13.933  0.3929  0.2445 -0.0225
31717W        W47526   2.011   6.566  12.553  0.0567 -0.3906  0.0757
31718W        W47527   2.541  11.928   4.313  0.0620 -0.0770  0.1924
31719W        W47528  14.377  18.020   4.707 -0.2755 -0.0761 -0.0585
31720W        W47529  12.898   3.862   6.042 -0.0350  0.1131  0.0111
31721W        W47530   6.668   4.313  12.933 -0.2192 -0.0499  0.0593
31722W        W47531   9.377  15.669  12.817  0.0840  0.0065  0.0627
31723W        W47532   2.305  13.035  13.399  0.0508  0.0686  0.1305
31724W        W47533   1.545  15.809  12.527  0.1238  0.0243  0.0702
31725W        W47534   6.633  11.509   0.508 -0.1310 -0.2583 -0.0461
31726W        W47535  14.659   3.417   0.911 -0.2489 -0.0315  0.0293
31727W        W47536  17.911  18.187   1.074  0.0040  0.3035  0.1082
31728W        W47537  15.309   8.933  14.422 -0.1934 -0.0492  0.2766
31729W        W47538   8.907  17.398  11.729 -0.4343 -0.1613  0.0876
31730W        W47539   9.214   6.348  15.002  0.0043  0.1415  0.1303
31731W        W47540  11.257  14.016  12.437 -0.0246  0.4709  0.1074
31732W        W47541   0.139   5.720  14.651  0.0005 -0.1982  0.0274
31733W        W47542  17.710   3.689  12.187  0.3338  0.1471  0.3131
31734W        W47543   4.885  13.386  15.589  0.1839 -0.1382 -0.2352
31735W        W47544  12.090  10.973   0.846 -0.1109  0.0802  0.2648
31736W        W47545   9.730   0.569  13.884  0.1467 -0.0413 -0.1757
31737W        W47546  10.141  16.091  12.848  0.2261 -0.3023 -0.3402
31738W        W47547   5.082  14.059   3.097  0.3444  0.1305 -0.2848
31739W        W47548  13.034   8.107  13.190 -0.1945 -0.0141 -0.0537
31740W        W47549   3.751   1.671  15.611 -0.0525  0.3525 -0.2841
31741W        W47550  16.250  15.793  12.374 -0.2739 -0.3546 -0.0841
31742W        W47551   7.420   5.387   2.898 -0.1130  0.0033  0.0466
31743W        W47552   5.792   8.646   3.560 -0.1044 -0.2308 -0.0456
31744W        W47553  12.913  16.351   9.788  0.1099 -0.0012 -0.0693
31745W        W47554   5.322   2.157   1.174 -0.2026  0.1714  0.1018
31746W        W47555   1.723  13.026  13.710 -0.1151 -0.0858 -0.1930
31747W        W47556   1.194  13.306  12.463  0.0509 -0.0428  0.1749
31748W        W47557   0.435  16.447  11.512  0.1757  0.1637 -0.2160
31749W        W47558   9.186   0.758   1.284 -0.0357  0.1706 -0.0496
31750W        W47559  13.158   9.677  13.268  0.0903 -0.1290  0.0770
31751W        W47560   3.365   6.229  11.440  0.0936 -0.1076 -0.1105
31752W        W47561  12.743  10.665   5.608  0.1624 -0.0422 -0.1516
31753W        W47562   8.715  15.994  15.570  0.0354 -0.2903  0.2938
31754W        W47563  10.615   0.746   2.554  0.4566 -0.1109  0.5083
31755W        W47564   7.678   0.049  12.941  0.0269 -0.2323  0.0987
31756W        W47565  15.577   0.678  15.694  0.1303  0.4650  0.0451
31757W        W47566  14.384  16.267  13.229 -0.0773 -0.1685  0.3092
31758W        W47567  16.632  10.408  12.518  0.1368  0.0839 -0.1121
31759W        W47568   5.858  15.369   4.782 -0.1976 -0.0593 -0.0880
31760W        W47569   9.674  13.103   2.024 -0.1123  0.3522 -0.3000
31761W        W47570   5.108   9.508   2.005  0.0726 -0.1339  0.0732
31762W        W47571   6.080  16.041  10.821  0.1634  0.6380 -0.0470
31763W        W47572  10.225   6.512   2.923 -0.0258  0.3164 -0.0690
31764W        W47573  14.048   7.312   3.586  0.3124  0.4406 -0.0092
31765W        W47574   1.100   4.277  10.905 -0.0733 -0.4025 -0.0369
31766W        W47575   5.094  15.191   2.309  0.0747 -0.1427 -0.0085
31767W        W47576   0.253   1.341  14.696  0.4537  0.1757  0.2696
31768W        W47577   8.747  11.587   3.960 -0.2962  0.0408 -0.2185
31769W        W47578   4.516   0.184   1.728 -0.0246  0.0984 -0.2584
31770W        W47579   8.179   6.248  11.247 -0.1127  0.1217 -0.0832
31771W        W47580  11.436  10.494  10.771 -0.1720 -0.3632  0.3217
31772W        W47581  16.681   7.197   1.171 -0.1123 -0.0098 -0.1613
31773W        W47582  17.783  12.755  13.762  0.2817 -0.2272  0.1150
31774W        W47583  18.257  11.039   3.913 -0.1842 -0.2216  0.1287
31775W        W47584   5.996   4.283  13.517  0.0355 -0.1900  0.0979
31776W        W47585   0.508  13.741  11.677  0.0815  0.2533  0.0876
31777W        W47586   7.556   3.656  15.419 -0.0958  0.0302 -0.2744
31778W        W47587  15.001  11.361   1.601  0.2874  0.0123 -0.0529
31779W        W47588  13.905  13.514  13.788  0.1315  0.2022 -0.1337
31780W        W47589   9.354   6.252   0.989  0.1256  0.1734  0.2295
31781W        W47590   2.874  17.249  14.538  0.0718  0.0763 -0.0201
31782W        W47591  17.089  12.616  14.849  0.1068 -0.1816  0.0570
31783W        W47592   9.399   5.501   9.845 -0.2901  0.2306 -0.1402
31784W        W47593   4.710   1.253  12.757 -0.1549 -0.1159 -0.0631
31785W        W47594  10.366   7.793   0.278  0.0997  0.0933 -0.1376
31786W        W47595   2.553  11.959  14.648 -0.1137  0.2135 -0.0739
31787W        W47596   1.470  14.965  12.937  0.0278  0.0686 -0.1202
31788W        W47597  15.490  10.040   4.081 -0.4302  0.0703  0.0033
31789W        W47598  15.973   6.377   5.398  0.2668 -0.0909 -0.0309
31790W        W47599   5.968   6.167   2.089 -0.0451  0.1551  0.0506
31791W        W47600   7.645   5.216   1.499  0.0348 -0.0355 -0.2348
31792W        W47601   6.269  18.611   4.762 -0.1978 -0.0602 -0.2628
31793W        W47602  18.254  11.208  14.262 -0.1350  0.2261  0.2111
31794W        W47603   1.355   6.892   3.547 -0.0512 -0.0296 -0.0848
31795W        W47604   9.770  18.015   2.220  0.0965 -0.3204 -0.0319
31796W        W47605   4.671   8.642   3.846 -0.1307  0.2077  0.1278
31797W        W47606   1.370  18.460   4.564 -0.2064  0.0432  0.0329
31798W        W47607   3.329  16.839   2.866 -0.1937 -0.1164 -0.1395
31799W        W47608  16.746   7.845  14.159 -0.0613 -0.0014  0.3505
31800W        W47609  17.240  17.941  12.684  0.0003  0.1654 -0.1589
31801W        W47610  10.414  11.189   1.251 -0.1752 -0.2745  0.0265
31802W        W47611   4.904  17.833   0.623 -0.0108 -0.0651  0.0445
31803W        W47612   1.578  15.441   4.567 -0.1817 -0.0234  0.3514
31804W        W47613  14.820  14.003  15.247 -0.1067  0.0466 -0.1406
31805W        W47614   5.628   7.817  14.465 -0.3205  0.0731  0.2433
31806W        W47615  15.918   2.267   2.381  0.3219  0.0193  0.1077
31807W        W47616   2.024   4.782   5.320  0.0968  0.0050 -0.0998
31808W        W47617  10.493  18.059   4.568 -0.2110 -0.0295  0.2274
31809W        W47618  15.284  12.649  13.651  0.0501  0.4143  0.1793
31810W        W47619  10.812  16.307  13.897 -0.3053  0.0349 -0.0063
31811W        W47620  18.365   3.781  12.239 -0.2392  0.2103 -0.1366
31812W        W47621  13.276   9.313   3.758 -0.1066 -0.1324  0.1452
31813W        W47622  16.301  14.918   4.533  0.2731 -0.0582  0.0111
31814W        W47623  12.808   3.860  12.223  0.1349  0.3888  0.0624
31815W        W47624   5.669   3.713  12.136 -0.0417 -0.1213  0.0338
31816W        W47625   2.767   0.324   5.197  0.1862  0.0614 -0.0959
31817W        W47626   3.406   8.240   5.005  0.0422  0.3293 -0.0599
31818W        W47627   4.481  16.483   3.232 -0.1399  0.0768 -0.1476
31819W        W47628   0.243   0.608  13.999 -0.2580  0.0883 -0.2912
31820W        W47629   6.586   6.656  11.260  0.2301  0.0198 -0.2771
31821W        W47630  17.070  11.668  10.968 -0.1507  0.0110 -0.1194
31822W        W47631   3.331  14.817  12.184  0.2364  0.1549 -0.2125
31823W        W47632   6.572  15.711  12.105  0.1388  0.1360  0.0752
31824W        W47633   7.379  17.023  10.093  0.2301 -0.0088  0.2816
31825W        W47634  10.409  13.485  15.125 -0.0329  0.1430  0.0557
31826W        W47635   5.834  14.318   1.413  0.0111  0.2887  0.2753
31827W        W47636  15.017   0.385   3.674  0.0724  0.4151 -0.2906
31828W        W47637  17.190   5.213   5.451  0.0323  0.0267 -0.1011
31829W        W47638   2.591  11.433  12.747 -0.3501  0.1123  0.1189
31830W        W47639   3.069   1.675  13.713  0.1744  0.2969  0.0480
31831W        W47640  14.997  15.651   1.501 -0.1051  0.0591 -0.1427
31832W        W47641   8.631  10.286   4.608  0.1468  0.2274 -0.2193
31833W        W47642  15.389  13.216  11.322 -0.1403 -0.1449  0.0830
31834W        W47643   4.100   2.023  15.203  0.0370  0.2321  0.0368
31835W        W47644  16.371   1.049   3.687 -0.1649  0.2136  0.3344
31836W        W47645   5.341   8.855  12.094  0.1684  0.0624  0.1595
31837W        W47646  12.450  16.139  15.556 -0.0768 -0.0988  0.2410
31838W        W47647  14.187  16.807  13.176  0.5667  0.1526 -0.3327
31839W        W47648   7.400  14.542   1.722  0.0170 -0.0331  0.1840
31840W        W47649  10.215   5.925   0.375  0.2536 -0.2344  0.2716
31841W        W47650  14.909  10.238   3.647  0.0835 -0.1518 -0.1415
31842W        W47651  12.792   9.241  15.403 -0.2375  0.1153 -0.1447
31843W        W47652  18.268   3.510  13.686  0.1252  0.1005  0.1086
31844W        W47653   6.458  13.173  11.245 -0.1801  0.1461 -0.1112
31845W        W47654  16.016  10.514   0.845  0.0993  0.2560  0.1686
31846W        W47655  17.066   9.265   3.583 -0.3112 -0.0253 -0.1534
31847W        W47656  14.752  17.209  15.726  0.1997  0.0811 -0.2800
31848W        W47657   9.892  11.329  13.598  0.3867  0.2823 -0.0234
31849W        W47658   1.221  10.235  14.540 -0.3985 -0.0477  0.1396
31850W        W47659  18.656   7.377   3.053 -0.0534 -0.1537  0.0415
31851W        W47660  13.882  11.991   1.487 -0.2993  0.0491  0.1493
31852W        W47661   2.629   4.468   0.593 -0.1760  0.2185 -0.4370
31853W        W47662  18.389   9.314   0.946  0.1085  0.0261 -0.5143
31854W        W47663   5.997  13.546  15.474 -0.2211  0.0399  0.0403
31855W        W47664   5.055   5.807  12.567 -0.0244 -0.0207  0.2153
31856W        W47665   1.279  10.934   0.596 -0.0791  0.0684 -0.2101
31857W        W47666   2.256   9.502  15.290 -0.2086 -0.0712 -0.0172
31858W        W47667   9.803   0.115  14.279  0.2937  0.0869 -0.2548
31859W        W47668  10.893   3.560   4.873 -0.1575  0.0607  0.0658
31860W        W47669   5.133  14.335   1.126  0.3392  0.3920  0.1527
31861W        W47670   6.437   1.721   3.475 -0.6678  0.1963 -0.0915
31862W        W47671   3.372  12.657   4.967 -0.0009 -0.1271 -0.0872
31863W        W47672  14.949  13.461   0.645 -0.1360  0.3201  0.0128
31864W        W47673   6.578  15.582   1.851 -0.1514  0.0608  0.0906
31865W        W47674   9.879  12.824   1.649  0.3390 -0.2182  0.3034
31866W        W47675  11.108  14.618  14.719  0.1451  0.0097  0.1527
31867W        W47676  10.238   7.531   4.864 -0.1017 -0.4250 -0.0629
31868W        W47677  16.502   4.649   9.690 -0.2201  0.2947 -0.1186
31869W        W47678  13.849   8.930   1.832  0.1581 -0.0956 -0.1199
31870W        W47679   9.780   8.810   4.104 -0.0082 -0.1749  0.0503
31871W        W47680   3.098   5.441   2.042  0.0288 -0.1322  0.0238
31872W        W47681  11.150   2.276  13.790  0.0968  0.2996 -0.1346
31873W        W47682  13.369  13.422  13.286  0.0276 -0.3839  0.1914
31874W        W47683  11.301  10.777   1.526  0.1408  0.3658 -0.3320
31875W        W47684  15.034  14.248   4.955 -0.3994  0.1539  0.0891
31876W        W47685   2.656  12.942   4.426  0.1296 -0.1856 -0.0616
31877W        W47686  16.912  15.369   0.403  0.3419  0.0314 -0.1207
31878W        W47687   4.661  11.034   0.006 -0.0682 -0.2633  0.1860
31879W        W47688   4.812  17.928  12.182  0.0697 -0.1195  0.3051
31880W        W47689   3.808  17.501   2.174 -0.4092 -0.0440  0.1849
31881W        W47690  15.584   3.603  14.673  0.0577  0.2991  0.0691
31882W        W47691  17.731  17.756  14.588  0.0022  0.0934 -0.1416
31883W        W47692   1.352  16.246  13.280  0.0914  0.0038  0.3052
31884W        W47693   9.131  17.390   1.355  0.0732 -0.1503  0.0137
31885W        W47694  11.350  14.557   3.054 -0.1983  0.4046  0.1279
31886W        W47695   4.191  10.727  12.103  0.2803 -0.0139 -0.2005
31887W        W47696   9.704   5.307   4.951 -0.0383  0.0851  0.3381
31888W        W47697  15.768  15.419  13.015  0.0074 -0.1133 -0.0598
31889W        W47698   9.189  13.414   0.480 -0.0835 -0.1970 -0.3667
31890W        W47699   6.995  12.973  12.809 -0.1429  0.2399  0.2849
31891W        W47700  12.051   9.343  15.700 -0.2749 -0.2383  0.0554
31892W        W47701  14.578   5.542   3.268  0.3155 -0.0491  0.1144
31893W        W47702  11.828  15.617  15.049 -0.2200 -0.1217  0.2460
31894W        W47703  18.011   3.520   4.083  0.1347 -0.0254 -0.3038
31895W        W47704  12.025  10.672   4.987 -0.1510 -0.2330 -0.0117
31896W        W47705   5.980  15.515   0.117  0.1158 -0.0403  0.2469
31897W        W47706  16.536  11.711   0.866 -0.0695  0.1654  0.0272
31898W        W47707   6.727  10.989  12.889 -0.0338  0.2786  0.1170
31899W        W47708   9.432  17.678  14.099  0.2512 -0.1121 -0.0444
31900W        W47709   3.599  14.546   0.976 -0.1963  0.3817  0.0045
31901W        W47710  10.166   3.513   3.687  0.0721 -0.0763 -0.0928
31902W        W47711   5.486   5.398   1.487  0.0681  0.3158  0.3947
31903W        W47712  17.079   9.738   5.817  0.2291 -0.1498 -0.1142
31904W        W47713   1.443  12.945  10.908  0.1390  0.0867 -0.4521
31905W        W47714   6.704   0.002   4.209  0.0517  0.2110  0.1967
31906W        W47715   8.524   2.326   0.673  0.1247 -0.1862 -0.0908
31907W        W47716  13.219   3.973  11.530  0.1153 -0.0478  0.2239
31908W        W47717   6.925   1.333  12.037 -0.3630  0.1869  0.0792
31909W        W47718  12.101   1.634  15.653 -0.3418  0.1382  0.2208
31910W        W47719   9.928   3.448  15.237  0.1655  0.0649 -0.0618
31911W        W47720  18.486  13.795  11.325 -0.2602 -0.0940 -0.1512
31912W        W47721  13.812   5.127   1.142 -0.3866 -0.2550 -0.1775
31913W        W47722   7.229  14.462  11.418  0.1520 -0.2772 -0.0225
31914W        W47723  17.311  11.487  11.983 -0.2920  0.2118  0.2417
31915W        W47724  15.414   4.642   0.578 -0.4912 -0.0508 -0.1297
31916W        W47725  17.270  18.205  11.301  0.3476 -0.2366  0.1808
31917W        W47726   9.707   2.503   3.761  0.0266  0.1461  0.1868
31918W        W47727   9.876   5.736   4.628  0.2304  0.1273 -0.0057
31919W        W47728   8.229   3.994   3.097 -0.2878 -0.1822 -0.1174
31920W        W47729  10.320  12.549   1.399 -0.0382 -0.2015 -0.2041
31921W        W47730  16.277  15.698   0.601 -0.0205 -0.0218 -0.0912
31922W        W47731  16.483  16.192   2.817 -0.1768  0.0720  0.1785
31923W        W47732  13.676   0.777   3.177 -0.0317 -0.0764 -0.0726
31924W        W47733   8.578  15.583   1.682  0.1075 -0.0890 -0.2540
31925W        W47734  13.972   3.318  11.261 -0.2248 -0.0701  0.1052
31926W        W47735  10.840   8.052   0.394 -0.2322 -0.1224 -0.0639
31927W        W47736  12.077   8.270   1.568 -0.2181  0.0684  0.0578
31928W        W47737   4.457  13.467   0.147 -0.1280 -0.2519 -0.1269
31929W        W47738   6.730  12.247  13.945 -0.0390 -0.1047  0.1498
31930W        W47739   0.797   3.886  10.939 -0.0622 -0.3901 -0.0252
31931W        W47740   9.823   9.443  14.904 -0.1557 -0.2820  0.2078
31932W        W47741   9.911  12.232   0.517  0.0250 -0.0858 -0.2905
31933W        W47742  11.245   9.786  13.993  0.1372  0.0323 -0.2138
31934W        W47743  16.547   0.569  14.950 -0.2533 -0.2754 -0.0637
31935W        W47744  15.299  10.918   0.723  0.0874 -0.2161 -0.1699
31936W        W47745   6.994  14.755   1.569  0.3072 -0.0728 -0.1617
31937W        W47746  11.082   7.494   0.198  0.1209  0.2573 -0.0163
31938W        W47747  14.670   7.955   0.653  0.1818  0.4408 -0.0094
31939W        W47748  10.502   9.268   5.441  0.0391 -0.1746 -0.3185
31940W        W47749   9.344  13.348   3.378 -0.0115 -0.1638 -0.3741
31941W        W47750  14.405   0.051   3.991 -0.0270  0.1169  0.5064
31942W        W47751   9.283   6.425   2.918 -0.0452  0.2600  0.1118
31943W        W47752   8.347   3.381   2.212  0.1942 -0.0822 -0.1196
31944W        W47753  16.275   2.495   4.774  0.1106 -0.0714  0.0470
31945W        W47754   9.892   2.843   3.074  0.0280 -0.3115  0.3520
31946W        W47755   1.106  15.599   4.393  0.0980 -0.1171  0.1387
31947W        W47756   1.654   4.457   3.252  0.2125  0.1804 -0.1089
31948W        W47757   3.427  17.180  14.335 -0.0596 -0.1197  0.2220
31949W        W47758   1.447   3.068  13.407  0.0927  0.0001  0.1015
31950W        W47759   8.445  11.376  13.740  0.2498  0.2476  0.2120
31951W        W47760   0.921   1.062   5.161 -0.1295 -0.0513  0.2558
31952W        W47761  16.534  12.541  11.979  0.1295  0.1483 -0.1632
31953W        W47762   5.027  17.476  10.450 -0.0241  0.1128  0.0980
31954W        W47763   6.162   6.238  15.114 -0.1434 -0.1896  0.0092
31955W        W47764   2.564  16.195  11.871 -0.0954  0.0827  0.1451
31956W        W47765   0.359  17.627   0.207 -0.4053 -0.0636 -0.1525
31957W        W47766   1.020   8.413  11.451 -0.2088  0.2665  0.0233
31958W        W47767  15.843   3.539  13.775  0.0758 -0.0544 -0.0360
31959W        W47768   5.603   7.181   4.792 -0.2553 -0.0806 -0.0598
31960W        W47769  15.519   9.520  12.101  0.0755  0.1270  0.1035
31961W        W47770   4.106  10.373  15.214  0.2128 -0.0247  0.0248
31962W        W47771   1.991  17.715  15.330  0.2241 -0.0565  0.6259
31963W        W47772  13.609   1.337  11.526  0.2639  0.2379 -0.2564
31964W        W47773   6.213  12.152   4.830 -0.0184 -0.0086 -0.1060
31965W        W47774   2.605   2.746  14.995 -0.3744 -0.4778  0.3202
31966W        W47775  11.939   2.542   4.122  0.1974 -0.1301  0.0473
31967W        W47776   7.921  11.186   3.795 -0.2285 -0.1329 -0.1700
31968W        W47777  11.729   6.305   4.063  0.1367  0.1078 -0.1473
31969W        W47778   6.479  11.660  15.175  0.1217 -0.0663 -0.1346
31970W        W47779   8.077  16.863  10.787  0.1131 -0.2316  0.0651
31971W        W47780   9.719  13.847   3.411 -0.0716 -0.2434 -0.1448
31972W        W47781   2.006   4.207   1.476  0.3270 -0.0212 -0.2403
31973W        W47782   2.813  18.597   5.588  0.1367 -0.2503 -0.1209
31974W        W47783   8.429   7.637   1.215 -0.0876  0.1483 -0.1501
31975W        W47784   4.394   7.394   4.720 -0.0814  0.5684  0.2530
31976W        W47785   9.145   5.855  11.169  0.2000 -0.0965 -0.1934
31977W        W47786   9.505  10.768  12.435  0.2903 -0.2236  0.1333
31978W        W47787   2.977   6.926  10.488  0.1551 -0.0562 -0.0201
31979W        W47788  13.487  15.062  10.741  0.0591 -0.0319 -0.0079
31980W        W47789   5.462  10.737  13.711  0.4709  0.0665 -0.2173
31981W        W47790   4.612  18.462   1.365 -0.0086 -0.2659 -0.0735
31982W        W47791   4.580  12.587   1.367  0.4973  0.0626  0.0400
31983W        W47792   3.279  11.396  12.852  0.0796  0.0673  0.0071
31984W        W47793  12.969  10.923   0.529 -0.0498  0.0103 -0.1618
31985W        W47794  10.930   0.322   1.750 -0.2061  0.2121 -0.1286
31986W        W47795  15.713   2.361  13.236 -0.0055 -0.2961 -0.2257
31987W        W47796  11.837   3.542   2.912 -0.3527  0.1603  0.1597
31988W        W47797   3.517   1.424  13.720 -0.1065  0.2304 -0.2682
31989W        W47798   5.051  12.228  13.791 -0.3532  0.0177 -0.0654
31990W        W47799   0.464   1.309  13.337 -0.0727  0.1148 -0.3646
31991W        W47800  16.416  12.445   5.998  0.0877  0.1487 -0.0046
31992W        W47801  17.056  14.185   1.407 -0.3110 -0.0185  0.3765
31993W        W47802  13.082  10.102  15.678  0.0102 -0.1268  0.1458
31994W        W47803   1.510  17.758   4.412  0.2139  0.0571  0.0597
31995W        W47804  10.598  18.529  12.883 -0.0927  0.1412 -0.0897
31996W        W47805  10.107  17.935  14.736 -0.0193 -0.0338 -0.2652
31997W        W47806   9.909   5.226   0.779 -0.0956  0.2862 -0.0467
31998W        W47807   7.468   0.727   0.748  0.2448 -0.1423 -0.0514
31999W        W47808  17.117   9.472  13.496 -0.0655  0.0852  0.2229
32000W        W47809  18.378  15.910   1.767 -0.0849 -0.0089  0.0131
32001W        W47810   4.401  12.529   2.008 -0.0013  0.2008  0.1692
32002W        W47811  16.998  10.337   4.533  0.0787  0.4133 -0.0719
32003W        W47812   7.753  11.816   2.444 -0.4376 -0.0633  0.0896
32004W        W47813   7.407  15.683   3.525 -0.0994 -0.0442 -0.1170
32005W        W47814  12.729   5.716   0.716 -0.1792 -0.0551 -0.0587
32006W        W47815   7.430   6.789   4.274 -0.0638 -0.2852  0.1983
32007W        W47816   7.379   2.989  13.966  0.0017 -0.0909  0.1663
32008W        W47817  18.600   9.600   0.586 -0.2037 -0.1807 -0.2700
32009W        W47818   7.070   7.609  13.940  0.1325 -0.0959 -0.0225
32010W        W47819  16.072   6.009  13.698 -0.5811 -0.0729  0.4445
32011W        W47820  17.426  12.447  12.005 -0.0279  0.2755 -0.0786
32012W        W47821   1.094   2.420  15.027  0.3279 -0.0756  0.0429
32013W        W47822  17.324  10.067   2.112  0.0751  0.2781  0.0970
32014W        W47823   1.544   7.363   4.832  0.0436 -0.1633 -0.0746
32015W        W47824   1.484  13.417  10.310 -0.0799 -0.0566  0.2552
32016W        W47825  16.738  17.708   5.565  0.2470  0.4152 -0.0879
32017W        W47826   0.800   3.549   5.911 -0.0022 -0.0023  0.0479
32018W        W47827  12.208   4.421   0.986 -0.1824 -0.0725  0.0570
32019W        W47828   5.801   9.100  14.446  0.1980  0.1588  0.1289
32020W        W47829   2.371  15.002   4.916 -0.4171  0.3908  0.3039
32021W        W47830   7.311   9.947   0.527 -0.0175  0.3551  0.4181
32022W        W47831  12.553  12.601  12.455  0.2914  0.4262 -0.1176
32023W        W47832  14.602   7.790  10.944 -0.0186 -0.1808  0.1246
32024W        W47833   1.864   4.331   3.735 -0.0087  0.0058 -0.0296
32025W        W47834   3.847  12.070  12.631  0.0861  0.1293 -0.0866
32026W        W47835  18.457  15.551   0.228  0.0146 -0.3494 -0.0920
32027W        W47836  11.333   8.525   4.477 -0.0952 -0.2259  0.2149
32028W        W47837   9.591   8.870  11.594 -0.0019  0.3140 -0.0146
32029W        W47838   8.072   6.572  11.832 -0.1336 -0.0886  0.0908
32030W        W47839  13.581  12.720   1.596 -0.1541 -0.1988  0.0550
32031W        W47840  10.649   4.005   4.678 -0.1776  0.2588 -0.0389
32032W        W47841  10.557   6.039   2.723 -0.1203 -0.1092  0.0888
32033W        W47842  13.685  18.658  10.834 -0.3598 -0.2013  0.2142
32034W        W47843   9.746  15.730  10.885  0.1202  0.1322 -0.0701
32035W        W47844   8.813  13.184   5.125  0.1801 -0.0673  0.0313
32036W        W47845   6.194  15.556  11.575 -0.1174  0.0296 -0.2769
32037W        W47846   2.696  16.280   1.514  0.1470 -0.0318 -0.0317
32038W        W47847  13.228   0.953  13.296  0.1879  0.1966  0.0115
32039W        W47848   9.654   9.475   5.877 -0.0621 -0.1288  0.0177
32040W        W47849  11.022   1.672  12.294  0.5894 -0.0763  0.3163
32041W        W47850   6.771  10.808  15.550  0.0680 -0.1290 -0.3707
32042W        W47851  15.215  15.186  13.147 -0.0373  0.3734  0.2353
32043W        W47852   1.676   8.321  13.838  0.0501  0.1238  0.1648
32044W        W47853   7.151   9.632   0.184  0.4145  0.0131 -0.0876
32045W        W47854   1.476   6.258   1.365 -0.0836 -0.0037  0.2678
32046W        W47855   0.461   5.386  13.020 -0.0449  0.0119  0.2435
32047W        W47856  17.613  15.750  10.106  0.1055  0.2416  0.1762
32048W        W47857  12.971  11.863   0.940 -0.3321 -0.1149  0.0091
32049W        W47858   2.466   1.983  14.829  0.0453  0.1193 -0.3076
32050W        W47859   8.672  15.022  13.400 -0.0362  0.1014 -0.1580
32051W        W47860  13.976   0.832  13.119 -0.1180 -0.3499  0.1016
32052W        W47861   3.036  15.776  13.513 -0.2574  0.0761 -0.3029
32053W        W47862  10.167   7.014  14.141 -0.0666  0.1612 -0.1119
32054W        W47863  18.555   4.935  13.703  0.0241  0.0200 -0.0208
32055W        W47864  18.206  18.077  13.964  0.1085  0.0921 -0.2123
32056W        W47865  10.300  15.668   1.720 -0.1147  0.2361 -0.1827
32057W        W47866   5.304   1.008   3.924  0.2808  0.0744  0.0007
32058W        W47867  10.413   3.093  13.968 -0.0718  0.0836  0.1640
32059W        W47868  13.816  18.584   0.310  0.2183  0.2541 -0.0382
32060W        W47869   2.873  11.769   2.326 -0.0314  0.2272  0.2896
32061W        W47870   7.791   2.854  12.921 -0.1686 -0.5447 -0.0423
32062W        W47871  11.075  10.440  14.938 -0.0591  0.0224 -0.0486
32063W        W47872   3.432   8.827  13.326  0.2442 -0.1072 -0.2429
32064W        W47873   7.756   4.076  15.568 -0.1267 -0.1913 -0.0741
32065W        W47874   3.350   7.604   2.917 -0.0742  0.1246 -0.1201
32066W        W47875   9.742   1.953   0.174 -0.1968  0.1835 -0.2323
32067W        W47876   6.930   0.836   2.653 -0.0855  0.0979 -0.2052
32068W        W47877  17.712   7.282   4.018  0.0622  0.0699  0.1983
32069W        W47878   0.077  12.407   1.392  0.3006  0.3028 -0.0646
32070W        W47879   0.367   9.075  14.042 -0.0240  0.1692 -0.0645
32071W        W47880   6.833   0.921   0.564 -0.0656  0.0951 -0.1650
32072W        W47881   6.278  15.246   1.554 -0.1472 -0.1528 -0.0455
32073W        W47882   8.390   3.645  15.140  0.2204  0.2649 -0.2304
32074W        W47883  17.998  17.958   5.185  0.1674 -0.2010  0.1278
32075W        W47884   3.996   8.313   0.701  0.0752 -0.0876  0.1277
32076W        W47885   6.932  16.018  11.083  0.1446  0.0952  0.2775
32077W        W47886   8.606   5.980  13.263  0.0735  0.1861 -0.2617
32078W        W47887  11.355   7.266   3.782  0.1000  0.1125 -0.0515
32079W        W47888   5.704   6.201   2.648 -0.0023  0.1952  0.0452
32080W        W47889  11.543  12.328  11.198 -0.1600  0.2225 -0.0177
32081W        W47890  16.773  15.975   1.121 -0.1073 -0.1363  0.2700
32082W        W47891  18.169   2.706   3.729 -0.1188 -0.2995  0.2479
32083W        W47892  12.908   6.735  13.030 -0.3006 -0.0629  0.1294
32084W        W47893  16.234  12.143  13.220 -0.0167  0.1361 -0.2746
32085W        W47894   3.250   4.036   2.946  0.3158 -0.0944  0.1263
32086W        W47895  16.772   3.709   3.516 -0.1437  0.1226  0.1729
32087W        W47896  17.155  18.110   1.884 -0.0776 -0.2053  0.1313
32088W        W47897   5.521   9.394   0.324 -0.2821 -0.1598  0.0348
32089W        W47898   0.073   4.445  10.504 -0.3518 -0.3505  0.3485
32090W        W47899   4.083  13.822   1.234  0.2723 -0.2642  0.2379
32091W        W47900  16.960  14.007   2.176 -0.1417  0.0927  0.1558
32092W        W47901   3.803  10.477   0.170  0.1055 -0.2450 -0.0099
32093W        W47902  12.055   3.972  13.083 -0.2527 -0.1010 -0.0201
32094W        W47903   3.553  14.943  10.574  0.0962  0.1960 -0.1667
32095W        W47904  16.693  11.632  13.112 -0.1103  0.2353  0.2424
32096W        W47905   3.112   2.956   3.859  0.0408 -0.0607  0.0091
32097W        W47906   6.100   6.672  11.487 -0.0577  0.1191 -0.0083
32098W        W47907   6.788   3.360  14.890 -0.1577 -0.2323  0.2974
32099W        W47908  15.986  16.033   2.736  0.2097  0.0820  0.4964
32100W        W47909  17.671   3.530   2.428 -0.0615 -0.1421 -0.2240
32101W        W47910   8.081   8.022  13.311  0.2632 -0.2833 -0.2498
32102W        W47911   4.209  12.137  12.310 -0.0976 -0.3028  0.1376
32103W        W47912   5.199  16.513  11.335 -0.0837 -0.0380  0.0690
32104W        W47913  15.965   7.488  11.448 -0.0480 -0.2652 -0.1309
32105W        W47914   3.915  18.428  14.468  0.0146 -0.1513  0.0074
32106W        W47915   8.442  17.556   3.261 -0.0963  0.0156  0.0270
32107W        W47916   9.909   5.399   3.522  0.1453  0.1636 -0.0219
32108W        W47917   1.600   5.238   0.445  0.0063 -0.1411 -0.3608
32109W        W47918   0.623  14.156   5.083  0.2908 -0.1782  0.5178
32110W        W47919  17.945  13.783   2.292  0.3203  0.2332  0.0207
32111W        W47920   0.349   6.137   6.064 -0.0558 -0.1941 -0.0338
32112W        W47921   7.598   7.976   2.723 -0.0310  0.3549  0.0481
32113W        W47922   0.401   1.485   0.063 -0.2069 -0.0879  0.0939
32114W        W47923   1.057   8.051   2.263 -0.2121 -0.1356 -0.3116
32115W        W47924   0.773   8.452  14.379  0.1684 -0.3987  0.0576
32116W        W47925  13.748  12.309  10.280 -0.1256  0.1831 -0.1039
32117W        W47926   2.020   6.686  14.946  0.0788  0.2730 -0.0044
32118W        W47927  15.030   1.983  11.681  0.1577  0.1311 -0.3723
32119W        W47928  12.920  12.797  12.975 -0.2843  0.1343  0.0687
32120W        W47929  12.642   0.931  13.600  0.2208  0.1543  0.1471
32121W        W47930  17.471  14.373  14.329 -0.0349 -0.1207  0.0706
32122W        W47931   3.606  18.401  10.968 -0.0853  0.0441 -0.0524
32123W        W47932  16.201   8.294  15.324 -0.1559 -0.1116  0.1393
32124W        W47933   1.865  13.328  13.350  0.2531  0.0480  0.1526
32125W        W47934   3.345  15.154   3.419 -0.2012 -0.0378  0.0457
32126W        W47935  11.862   9.893   4.382  0.1485  0.1639  0.0593
32127W        W47936   8.397  14.774   4.900 -0.1022 -0.0009  0.3107
32128W        W47937   2.448   6.475  12.876  0.0135  0.0436 -0.0340
32129W        W47938  10.495   9.751   3.216  0.2631 -0.2503  0.1865
32130W        W47939  18.641  16.613  15.354 -0.1231  0.1268  0.0136
32131W        W47940   0.557  12.234  13.779  0.0585  0.0923  0.2225
32132W        W47941   4.920   8.985   3.559  0.1497  0.2541 -0.1132
32133W        W47942  17.354  12.368  10.816  0.0790 -0.1599 -0.3524
32134W        W47943  16.597   6.020  14.370 -0.1505 -0.3758 -0.0717
32135W        W47944  11.729  15.112   3.134 -0.1177  0.3814  0.1738
32136W        W47945   2.048  11.974   5.144 -0.0754 -0.1035 -0.0223
32137W        W47946  16.114  11.500  14.220 -0.2770  0.3083  0.0842
32138W        W47947   2.032   2.060  13.948 -0.0951 -0.1024 -0.0509
32139W        W47948  17.886   3.537  11.149 -0.2588  0.2888  0.1560
32140W        W47949   6.614   5.973   1.574  0.1837 -0.3204 -0.2251
32141W        W47950  11.057   5.379   5.159  0.1057 -0.0921  0.3132
32142W        W47951  12.691   8.879   9.957  0.3739 -0.4086 -0.0692
32143W        W47952   4.078  15.697  14.219  0.1200  0.3207  0.5281
32144W        W47953  18.348   1.010  11.500  0.1261  0.2607  0.0884
32145W        W47954  12.664  17.584   2.866  0.2166  0.1021  0.2972
32146W        W47955   5.514   0.592   3.779  0.2134 -0.2757  0.2158
32147W        W47956  15.254   8.634   1.989 -0.0960 -0.3914 -0.1849
32148W        W47957   6.718   4.106  11.355 -0.1551  0.3962  0.0943
32149W        W47958  14.865  10.626  14.619 -0.1118  0.1441  0.2328
32150W        W47959  14.961   2.275  14.275 -0.0460  0.1876  0.0759
32151W        W47960  13.697  12.201  11.654  0.1058 -0.2092 -0.0919
32152W        W47961   6.175  13.797   3.974 -0.1940  0.1989 -0.0829
32153W        W47962   3.948  17.320   4.592 -0.0675  0.0335  0.2336
32154W        W47963  15.025   4.478  13.572 -0.0815 -0.0189  0.3730
32155W        W47964   0.076  16.158   2.498 -0.2554  0.1826  0.0267
32156W        W47965   8.424  18.331  14.559 -0.1218  0.1067 -0.1314
32157W        W47966  14.390   5.101   1.097 -0.0290 -0.0430  0.1755
32158W        W47967   7.721   6.296  12.711  0.3157 -0.3246  0.0364
32159W        W47968   3.567  18.479  12.378  0.0075 -0.0334 -0.2408
32160W        W47969  17.667  16.930  10.509 -0.3093  0.0915 -0.0892
32161W        W47970  18.614  12.112  11.034  0.3124 -0.1611  0.0204
32162W        W47971  15.368  17.674   3.509  0.3519 -0.2371  0.4532
32163W        W47972  15.465  18.174   1.556  0.1489  0.2231 -0.0963
32164W        W47973   7.743  16.621  11.959 -0.0067  0.1096 -0.1224
32165W        W47974   8.165  15.990   3.107 -0.2266 -0.4111 -0.1739
32166W        W47975   3.390   7.082  11.934 -0.2301 -0.2715  0.3596
32167W        W47976   7.802  13.066  15.695  0.1372  0.0008  0.0813
32168W        W47977  13.267  12.011  10.239  0.1672  0.2509  0.2099
32169W        W47978   5.517  13.158   2.502 -0.2110 -0.3104  0.1625
32170W        W47979  12.839   3.514   0.299  0.2236 -0.2585  0.1796
32171W        W47980   4.970  15.606  12.972  0.0049  0.1040  0.1709
32172W        W47981   8.573  17.799  12.457  0.0514 -0.1122  0.2255
32173W        W47982   4.383   0.799  12.883 -0.2908 -0.1329  0.2223
32174W        W47983   2.299  14.555   0.376  0.0484  0.0617 -0.1553
32175W        W47984  14.276   8.733  11.351 -0.0488 -0.0199 -0.1113
32176W        W47985   9.177  12.166   3.245  0.4035  0.3499  0.3859
32177W        W47986  18.233   7.832  14.310 -0.1332  0.0331 -0.0783
32178W        W47987   5.858  17.307  14.903 -0.3072  0.2127  0.3991
32179W        W47988   9.858  15.526   3.430  0.1651  0.0686 -0.1693
32180W        W47989   3.575   8.804  12.343 -0.1572  0.0638  0.1335
32181W        W47990   4.492   5.100   2.081 -0.2702 -0.5370 -0.0353
32182W        W47991   0.345   6.746   3.447 -0.0227 -0.0170  0.0864
32183W        W47992   6.078  11.493   2.416  0.1232  0.0166  0.0958
32184W        W47993  13.085   6.329  14.054 -0.3133  0.1178  0.0749
32185W        W47994   0.827  13.419  12.131 -0.2383  0.2801 -0.4297
32186W        W47995  16.680   8.294  12.464 -0.0993 -0.3490  0.0109
32187W        W47996   7.755   7.916   0.718  0.0811  0.3108  0.0031
32188W        W47997  11.778   0.361  14.944 -0.6813  0.2250 -0.1585
32189W        W47998   3.536   6.449   2.077  0.0149  0.0111  0.4801
32190W        W47999   1.389   4.016  14.010  0.2724  0.1697 -0.1472
32191W        W48000   7.374   7.763  15.189  0.0689  0.0625  0.3718
32192W        W48001   2.525   3.428   1.537  0.1381 -0.5737  0.2871
32193W        W48002   8.190   4.846  12.872 -0.1012  0.1024  0.2842
32194W        W48003  11.078  13.879  10.244 -0.1213  0.1454  0.0418
32195W        W48004  12.946   3.241  10.952 -0.0432 -0.1127 -0.0130
32196W        W48005   8.952  11.063   4.708  0.0773 -0.0078  0.4782
32197W        W48006  17.470   9.356   4.459  0.0897  0.2802 -0.1526
32198W        W48007  12.417  18.520  11.813  0.0166  0.2392  0.2594
32199W        W48008  16.965  12.795   3.456 -0.0317 -0.1599  0.2417
32200W        W48009   0.435  17.327   3.757  0.0217  0.0348  0.1031
32201W        W48010  14.077  12.088  15.649 -0.1445  0.0855 -0.0240
32202W        W48011  12.776   1.249  14.629  0.0200  0.0033  0.2831
32203W        W48012   3.259   4.384  15.615  0.0661  0.0238  0.1422
32204W        W48013  12.270   0.766  14.149 -0.1176  0.0729 -0.0559
32205W        W48014  14.225  17.809   0.587  0.2121 -0.0550  0.1382
32206W        W48015   8.470  15.764  15.221 -0.3135  0.4442  0.0387
32207W        W48016  16.252   4.236  14.912 -0.4937  0.0720  0.1235
32208W        W48017   7.751   1.704   3.144 -0.0433  0.0302  0.0495
32209W        W48018  16.653  14.419  13.130  0.1809  0.1370 -0.0587
32210W        W48019   4.688   5.501  12.506 -0.0700 -0.3094  0.0147
32211W        W48020  10.207   6.235   3.855 -0.0794  0.0838  0.0650
32212W        W48021   2.178   7.919  12.131  0.1066  0.1576 -0.1894
32213W        W48022  11.879   9.351   2.829  0.2102  0.0974 -0.0358
32214W        W48023   5.677   0.391  13.261  0.0515  0.1804  0.0779
32215W        W48024  10.849  11.403  15.749 -0.0019  0.1160  0.1143
32216W        W48025   0.885   5.087   1.012 -0.0039 -0.1133 -0.3388
32217W        W48026  12.397  13.107   4.329 -0.0966 -0.4868  0.1832
32218W        W48027   0.501  15.884   3.569  0.4241  0.4895 -0.0293
32219W        W48028  16.021   9.065   3.355 -0.0347  0.0188 -0.0727
32220W        W48029   2.247  10.265   2.935  0.1860  0.0808  0.1505
32221W        W48030   8.454  12.651  11.562  0.0872 -0.0379  0.2547
32222W        W48031  12.691  13.353   3.209 -0.1356  0.1786  0.1728
32223W        W48032  17.487  15.788  14.439 -0.1695 -0.3637  0.0082
32224W        W48033  18.515  15.713   2.989 -0.4540  0.1365 -0.2614
32225W        W48034  15.511  14.948   3.456 -0.0917  0.1946 -0.0960
32226W        W48035   3.132  13.824   3.606 -0.0549 -0.1704  0.5057
32227W        W48036   6.969   2.345   0.725  0.1951 -0.3519  0.1473
32228W        W48037   1.006  10.992  11.744  0.0012  0.1781  0.2359
32229W        W48038  10.995   4.038  11.684 -0.1094  0.2291 -0.1881
32230W        W48039   6.236   7.514  11.171 -0.3444 -0.2442  0.0141
32231W        W48040  17.700  18.654   1.018 -0.0520  0.1572  0.1669
32232W        W48041   4.396   4.348   3.892 -0.4587 -0.3716 -0.2234
32233W        W48042  14.893   6.068   1.863  0.1659 -0.1405  0.0061
32234W        W48043  11.834   1.906  10.390 -0.2143 -0.1619  0.1578
32235W        W48044   8.554  10.027  13.580  0.2952  0.0595  0.3599
32236W        W48045  12.339  14.662  15.266 -0.0087 -0.2028 -0.0728
32237W        W48046   2.684   9.593   5.800 -0.1488 -0.0931  0.0681
32238W        W48047  10.358  18.145  10.702 -0.1219  0.4294  0.1046
32239W        W48048   4.187  16.606   2.550  0.1451 -0.4778 -0.0872
32240W        W48049  12.599   1.433  13.469  0.2468  0.4390 -0.1456
32241W        W48050  17.818   6.780  15.154  0.0263 -0.2792 -0.1062
32242W        W48051   8.908  13.880  10.626  0.3163 -0.1200 -0.0269
32243W        W48052   3.961  13.797  13.962  0.3397 -0.4054 -0.0149
32244W        W48053   4.488  12.571  13.139  0.0866 -0.0659  0.0575
32245W        W48054   3.762   1.208  15.502 -0.1462  0.2704 -0.1889
32246W        W48055   0.931  18.487   0.098 -0.0366  0.2010 -0.2505
32247W        W48056  10.102   4.515  10.095  0.0586 -0.1311  0.0518
32248W        W48057   7.371   6.425   4.646 -0.2643 -0.2495  0.2137
32249W        W48058   4.832   2.089   3.948 -0.0372 -0.0452 -0.1400
32250W        W48059   0.586  14.695   4.555 -0.1833  0.1527  0.0010
32251W        W48060  16.014   6.956  10.753 -0.0645 -0.1529  0.1072
32252W        W48061  10.129  16.137   2.905 -0.2542 -0.0393 -0.1737
32253W        W48062   1.439  15.531   4.063 -0.0594  0.1030 -0.2239
32254W        W48063  11.021   6.410  15.672  0.3383  0.1119  0.0501
32255W        W48064  17.349  12.980  12.234  0.3220 -0.0934 -0.1113
32256W        W48065  15.411   1.366   4.833 -0.1502 -0.0585  0.1208
32257W        W48066  11.498   6.051  12.499  0.1140 -0.1457 -0.3123
32258W        W48067  17.731  10.162  11.198 -0.0285 -0.0271 -0.1824
32259W        W48068   7.891  13.178  13.286 -0.1859 -0.2811 -0.0707
32260W        W48069  13.215   5.378  10.673  0.0161 -0.3045  0.1043
32261W        W48070  14.378   3.131   3.727 -0.0202 -0.0885 -0.1123
32262W        W48071   4.623   9.039   0.894 -0.1414  0.1356  0.0592
32263W        W48072   8.290   1.894   4.880  0.0860 -0.2120  0.2279
32264W        W48073  17.446  12.313   2.064 -0.2022 -0.0218  0.0586
32265W        W48074  16.588   2.566   1.252 -0.1515  0.2862  0.1177
32266W        W48075  16.378  14.011   2.895  0.3567  0.1634 -0.1842
32267W        W48076  17.384  11.348   2.954 -0.1707 -0.3006 -0.2043
32268W        W48077  18.249  15.909   2.460  0.0199 -0.2534  0.1824
32269W        W48078   7.627  12.900   3.898  0.1701 -0.2278  0.0635
32270W        W48079  13.989  17.423  12.178 -0.0908  0.1197 -0.0187
32271W        W48080   5.660  13.661  12.580  0.3310  0.1402  0.1761
32272W        W48081   5.536  15.845   1.105 -0.0595  0.0907 -0.0374
32273W        W48082  15.295  18.169   4.750 -0.1032  0.0006  0.2013
32274W        W48083  17.088  18.401  12.928  0.0533  0.2575  0.1612
32275W        W48084  15.036   5.798   0.427 -0.2157 -0.0668  0.0243
32276W        W48085   0.193  12.984  11.299  0.2050  0.1124 -0.2894
32277W        W48086   8.701   1.553  14.494  0.3230 -0.2933  0.0297
32278W        W48087   6.373  16.036   1.876  0.0124  0.1565 -0.0255
32279W        W48088  12.181   7.955   2.689 -0.0703  0.2016 -0.3088
32280W        W48089  14.321   8.888   3.709 -0.2080  0.2272  0.0676
32281W        W48090  10.861   5.582   0.567 -0.2209  0.0800  0.4079
32282W        W48091  15.810   9.050   4.828  0.0479 -0.0993 -0.1105
32283W        W48092   8.381  11.041   1.467  0.1874  0.0213 -0.1958
32284W        W48093   0.679  10.736   2.902  0.0868  0.0445  0.0987
32285W        W48094   1.705   7.707   1.875 -0.0664 -0.0122  0.1106
32286W        W48095   3.571  12.341  13.998  0.0655  0.1586 -0.1559
32287W        W48096   4.210   2.438  11.374  0.1294  0.0759  0.0916
32288W        W48097   4.639  13.982  12.806  0.0949 -0.2843  0.1447
32289W        W48098  11.824   2.285   0.470  0.0570  0.0518 -0.3163
32290W        W48099   4.303   8.712   4.145  0.3218  0.0441  0.0914
32291W        W48100  10.794   8.050  12.870 -0.1500  0.2235  0.3311
32292W        W48101  16.670  16.339  13.077  0.0423 -0.1258  0.3888
32293W        W48102   0.665  17.292  14.974 -0.2574  0.2358  0.4656
32294W        W48103   3.517   7.933  11.000  0.1466 -0.4276  0.2336
32295W        W48104   5.988   3.238  15.354 -0.0468 -0.0277  0.0854
32296W        W48105   2.001   2.514  14.182 -0.1391 -0.1459  0.2257
32297W        W48106  18.194  18.562  15.380 -0.1387  0.1468  0.1942
32298W        W48107  10.445   5.737   2.164 -0.1339 -0.0058  0.2057
32299W        W48108   5.041   7.499  12.442  0.2549 -0.3315 -0.3119
32300W        W48109   7.466  12.487  10.782  0.3008 -0.0846  0.1301
32301W        W48110  14.653  17.402   4.686  0.0225 -0.0966  0.1502
32302W        W48111  17.556   1.155   1.030  0.3620 -0.0682 -0.0566
32303W        W48112   0.435  18.570   1.951 -0.0005  0.1104  0.0589
32304W        W48113  15.059  17.746   1.740 -0.0329  0.1606 -0.2678
32305W        W48114  17.580  12.364   0.424 -0.0415  0.1179  0.1179
32306W        W48115  13.001  13.783  13.147 -0.0914  0.0353  0.2387
32307W        W48116  10.209  13.630  13.787  0.1341  0.0228  0.1081
32308W        W48117  11.111  18.056   3.519 -0.1848  0.0805  0.1265
32309W        W48118   4.703   4.690   0.247 -0.0365 -0.0549 -0.0593
32310W        W48119  13.427   4.105  15.588  0.0442 -0.0505 -0.0897
32311W        W48120   5.508   0.872  12.438  0.3979 -0.2060 -0.0158
32312W        W48121   8.993  11.600   4.480  0.2871  0.0686 -0.1567
32313W        W48122  11.694   4.507  13.407  0.0719 -0.1242  0.1946
32314W        W48123   9.970  16.380   1.032  0.0523  0.0648  0.0935
32315W        W48124  18.218  17.925   0.791 -0.0160  0.0983 -0.2331
32316W        W48125  18.172  13.808  14.636 -0.0928 -0.4625  0.0901
32317W        W48126   1.766   6.249   5.447 -0.5696  0.1376 -0.1088
32318W        W48127   2.383  16.217  12.847  0.0531  0.2429 -0.1056
32319W        W48128  14.941  14.046   5.425  0.1384  0.1040 -0.0900
32320W        W48129   2.052  14.978  14.727 -0.2736  0.1142  0.0938
32321W        W48130  18.439  13.968   5.395  0.2361  0.0955 -0.2674
32322W        W48131   8.820  13.862   0.963  0.4080  0.0382 -0.2231
32323W        W48132  15.130   3.000  13.618 -0.1670 -0.0387 -0.1235
32324W        W48133   4.307   6.069   2.694  0.5275 -0.0319  0.2094
32325W        W48134  14.687  16.769  13.092  0.0318  0.0503  0.0798
32326W        W48135   0.719  15.072  13.941 -0.0103  0.2195  0.0768
32327W        W48136   1.377   5.772   1.636 -0.0094  0.1688  0.3138
32328W        W48137   1.003  16.244   0.821 -0.0917  0.0526  0.2893
32329W        W48138  15.241  10.974  11.403  0.3199  0.0831  0.0087
32330W        W48139   2.392  12.201  12.177 -0.1722  0.1121  0.2458
32331W        W48140   6.303  14.602  15.163 -0.1216  0.5278  0.1085
32332W        W48141  16.061  15.825   5.295 -0.0780  0.1092 -0.1512
32333W        W48142   9.116  17.503   0.831 -0.0209 -0.0871  0.0805
32334W        W48143  15.273   8.164  15.050  0.2131  0.0612 -0.0956
32335W        W48144  12.532  13.587  11.505 -0.1734  0.2753 -0.2628
32336W        W48145   9.908   7.889  13.390  0.1579  0.3658  0.0635
32337W        W48146   6.327   0.694  13.718 -0.0971 -0.1096 -0.3608
32338W        W48147  16.792   0.302  12.796  0.0345 -0.1148 -0.1729
32339W        W48148  12.799   5.619   2.763 -0.2370 -0.0122  0.3344
32340W        W48149  14.221   6.156  12.920  0.1113 -0.1190  0.2353
32341W        W48150  11.156   6.700  12.136  0.2646  0.1499  0.1214
32342W        W48151  10.663   0.261  11.847  0.3581 -0.0808 -0.1484
32343W        W48152  11.219   2.367  14.894 -0.1400 -0.3066 -0.2333
32344W        W48153  17.612   4.538   5.214 -0.1103 -0.1497 -0.0376
32345W        W48154  15.953  13.093   4.914 -0.0013 -0.2162  0.0727
32346W        W48155   3.954  14.069   1.711  0.1036  0.1918 -0.2680
32347W        W48156  16.486   7.821  14.662 -0.1512 -0.0293  0.1861
32348W        W48157   7.426  10.024   1.363  0.0517 -0.0766 -0.1792
32349W        W48158   4.874   1.213   3.843 -0.1512 -0.3499 -0.0100
32350W        W48159   5.899   6.768  12.417  0.0133 -0.2957  0.0246
32351W        W48160  11.965   0.836   3.375 -0.0007 -0.0327  0.1683
32352W        W48161   5.465   3.568   1.676 -0.0257  0.2085 -0.1209
32353W        W48162  17.255   0.226  13.148 -0.1099  0.0668 -0.0967
32354W        W48163  18.316   7.903  14.824 -0.1325 -0.0726  0.0858
32355W        W48164  15.459   0.263  11.251 -0.2303 -0.2209 -0.3006
32356W        W48165  10.101   4.326   2.060 -0.0610  0.0096  0.4940
32357W        W48166   8.717  12.926  15.542  0.4007  0.2014 -0.0207
32358W        W48167  18.333   5.481  13.465  0.2672 -0.1478  0.1588
32359W        W48168  16.441   0.863   1.985  0.1198 -0.0884  0.2097
32360W        W48169   5.763  10.606   1.828 -0.0013 -0.0657  0.4425
32361W        W48170   8.935  16.500   4.493 -0.1047  0.2241 -0.2638
32362W        W48171  11.711   7.584  13.368  0.1343 -0.0152  0.0758
32363W        W48172  16.003   7.557   1.703  0.1345 -0.0545  0.1508
32364W        W48173   3.783   1.440  11.173  0.1630 -0.3185  0.3129
32365W        W48174   7.765   8.198   4.918  0.2146 -0.1813 -0.0446
32366W        W48175  15.246  10.247  11.616 -0.0861  0.3559 -0.0664
32367W        W48176  10.553  16.294   0.924  0.2549 -0.1921 -0.0299
32368W        W48177   9.333  10.810  11.759  0.0309 -0.1822  0.0437
32369W        W48178   1.703   3.175  11.967 -0.3944  0.0838  0.2291
32370W        W48179   2.578  14.337   4.767 -0.1072 -0.0149  0.0157
32371W        W48180  15.899   7.390  13.255 -0.1190  0.0601  0.2330
32372W        W48181   1.875  14.829   2.029  0.0660 -0.0520  0.1154
32373W        W48182  18.125  14.439  14.571  0.1869 -0.0316 -0.0127
32374W        W48183  15.858   7.177   3.943 -0.0293 -0.1106 -0.1966
32375W        W48184  12.842   0.676   9.976 -0.0842 -0.1141 -0.2313
32376W        W48185  10.222  17.252  12.375  0.0182 -0.1984 -0.2270
32377W        W48186   0.181  16.853   4.540 -0.0631 -0.0218  0.6333
32378W        W48187   9.529  15.986   3.861 -0.0822  0.0557 -0.3620
32379W        W48188   3.051   9.123   4.285 -0.0772 -0.1538  0.1870
32380W        W48189  17.607  14.835  12.976  0.1221 -0.5535 -0.0988
32381W        W48190  11.479   8.400   3.000 -0.0310 -0.2855  0.0235
32382W        W48191   1.625   6.389   0.215 -0.1070  0.0419 -0.3303
32383W        W48192   8.007   3.284   1.885  0.1358 -0.1038  0.0847
32384W        W48193   2.188  10.201   4.256 -0.2128  0.1462  0.0271
32385W        W48194   2.416  18.458  11.678  0.1178  0.3976 -0.0067
32386W        W48195  13.071   8.127  15.380 -0.0105  0.1170 -0.1840
32387W        W48196  11.436   4.637   5.440  0.3282 -0.0072  0.1676
32388W        W48197   6.895   8.750  11.388  0.1857  0.3723  0.1403
32389W        W48198  10.376   3.205  12.292 -0.1467  0.0010 -0.0902
32390W        W48199   7.738   7.680   3.242 -0.0186  0.0561  0.2735
32391W        W48200   1.134   1.961  12.314  0.0372  0.0031 -0.4444
32392W        W48201   8.426   4.998  14.651 -0.2511  0.1275 -0.0955
32393W        W48202  17.002   6.701   1.114 -0.0769  0.1133 -0.0594
32394W        W48203   7.512   0.073  10.777  0.1855 -0.2352 -0.0977
32395W        W48204  15.625   6.508  15.076 -0.4126  0.2372 -0.0562
32396W        W48205   2.440   6.972   3.969 -0.2999 -0.0476 -0.2511
32397W        W48206   3.833  12.277   5.581 -0.2064  0.0217 -0.2196
32398W        W48207   0.960   8.310  13.811 -0.0134 -0.0364 -0.0366
32399W        W48208  10.836   3.402  11.534 -0.0009  0.1849  0.0924
32400W        W48209  10.481  16.987   3.248  0.1576 -0.0358  0.0474
32401W        W48210  11.006  12.503   5.710  0.2085 -0.1256 -0.3021
32402W        W48211   1.487   4.485   4.042  0.3510  0.3158  0.0212
32403W        W48212   8.924  13.920  13.549  0.0392 -0.2223  0.0099
32404W        W48213   4.707  17.658   4.208  0.0117  0.0559  0.1844
32405W        W48214   5.174   2.970  14.254  0.0779  0.1104 -0.2536
32406W        W48215   5.015  16.086   1.145 -0.1783  0.5644  0.0515
32407W        W48216  17.670   1.395   0.479  0.1528  0.3151  0.0276
32408W        W48217   6.126  12.818   3.391  0.1118  0.2161  0.1667
32409W        W48218  15.730  10.974  13.650 -0.1305 -0.3150  0.0037
32410W        W48219   6.922  14.813   4.497 -0.0454 -0.2100 -0.2612
32411W        W48220   8.208  13.999   2.691  0.0505  0.1618 -0.1730
32412W        W48221  15.924   6.140  11.089 -0.2169  0.0705 -0.0017
32413W        W48222   6.706  18.186   2.053  0.0264 -0.2363  0.2178
32414W        W48223   9.995  15.197  10.653  0.0067 -0.0668 -0.3912
32415W        W48224   3.205  13.198  14.528 -0.1731 -0.0434  0.0923
32416W        W48225   5.515   0.039   2.353 -0.1533  0.1630 -0.1239
32417W        W48226   9.668   9.087   3.232 -0.2803  0.1704 -0.0767
32418W        W48227   9.919   2.530  15.241 -0.2183 -0.0557  0.2389
32419W        W48228   9.190   0.310  11.329 -0.1703 -0.3078 -0.1185
32420W        W48229   0.256   9.788   5.127 -0.0789  0.0825  0.1502
32421W        W48230   7.551  14.238   2.807 -0.0882  0.2174  0.0993
32422W        W48231   9.706   8.490  15.009  0.1681 -0.1042 -0.4378
32423W        W48232   3.856   6.433  14.926 -0.2407  0.0991  0.0483
32424W        W48233  17.453  11.506   0.271  0.0446 -0.0985  0.2589
32425W        W48234  17.357  16.555  13.865  0.2737 -0.1507 -0.0144
32426W        W48235   5.050  18.481  15.194 -0.1419  0.0643  0.0043
32427W        W48236  17.786  12.427   5.158 -0.0375 -0.1226  0.0888
32428W        W48237   4.263  13.645  12.651 -0.0969 -0.0615 -0.0532
32429W        W48238   6.531  13.755  12.122 -0.0894 -0.0651  0.0667
32430W        W48239   1.950  13.085   1.110 -0.0194  0.0994  0.1963
32431W        W48240   7.011   3.954   1.775 -0.1910  0.1916  0.1514
32432W        W48241  17.005   8.773   2.389 -0.0820  0.2107 -0.5092
32433W        W48242  11.201   2.186  13.225 -0.0124  0.0512 -0.1656
32434W        W48243  15.444   0.300  14.843 -0.0788 -0.4132  0.2272
32435W        W48244   6.809   1.202  15.724  0.2667  0.1319  0.0692
32436W        W48245   7.066   1.803  10.207 -0.1018  0.3301 -0.0627
32437W        W48246  12.343   5.774  12.067 -0.3129 -0.1677 -0.1944
32438W        W48247  11.087   8.614  14.858 -0.2349  0.0968 -0.1526
32439W        W48248   4.300  11.833   0.915 -0.1019  0.1256  0.2617
32440W        W48249  11.676   1.119  12.184  0.0337 -0.0074 -0.2809
32441W        W48250  10.253   0.183   1.976  0.0628 -0.0487 -0.0973
32442W        W48251   0.980   9.932   1.746  0.1501 -0.5944 -0.0421
32443W        W48252  17.377   6.119  12.905  0.3294  0.5571 -0.2185
32444W        W48253   4.611   8.166  15.616  0.0789  0.1861  0.0044
32445W        W48254   2.883   8.452  13.858 -0.1896 -0.0520  0.0337
32446W        W48255   5.200  10.819  14.131  0.1358 -0.0430  0.1106
32447W        W48256  10.849  16.318  10.685 -0.0871  0.1285 -0.1800
32448W        W48257   1.636   2.876   9.637  0.0217  0.0206 -0.0965
32449W        W48258  17.556  15.809  13.214 -0.4073  0.2024 -0.2174
32450W        W48259   0.803   6.372   3.487  0.2582 -0.2260 -0.1315
32451W        W48260  13.344  16.271   1.211 -0.0185  0.0825  0.3499
32452W        W48261   7.987  15.564  15.333 -0.4159 -0.4518 -0.4397
32453W        W48262  18.645   5.216   3.029 -0.2925  0.1580 -0.0835
32454W        W48263   0.848  16.756   1.485  0.0987  0.0355  0.0690
32455W        W48264  16.000   3.961  11.944 -0.0561  0.0593 -0.2012
32456W        W48265  17.778  10.679  13.731 -0.1495 -0.2382 -0.2579
32457W        W48266  12.029   0.136  14.571 -0.2858  0.1053  0.1694
32458W        W48267  12.577  15.116   1.635  0.3170  0.3280 -0.0751
32459W        W48268  15.431  11.665   0.895 -0.0771  0.3396 -0.3094
32460W        W48269   0.124  10.252  15.650  0.1389  0.3094  0.0193
32461W        W48270  14.940   7.357   1.369  0.3254 -0.0250 -0.6074
32462W        W48271   5.914   7.417  11.910  0.0994 -0.0648  0.1206
32463W        W48272   9.201  17.460  11.274  0.1316 -0.1145  0.1254
32464W        W48273  13.030   2.570   1.745  0.1999  0.0262 -0.1998
32465W        W48274  17.835  15.008  10.426 -0.0850  0.0541 -0.1051
32466W        W48275   9.021   9.001   1.403  0.0167  0.4370  0.4375
32467W        W48276   0.361  13.881   0.209 -0.2088 -0.0227 -0.0458
32468W        W48277  15.869  18.494  15.590 -0.2127  0.1766  0.1858
32469W        W48278   0.953  15.855   2.239  0.3183  0.1545  0.2340
32470W        W48279   8.721   9.513  11.766 -0.0123 -0.1357 -0.0984
32471W        W48280  13.720   9.949  13.042 -0.2660  0.0510 -0.2722
32472W        W48281   5.826   8.448  15.231  0.1770 -0.0407  0.0134
32473W        W48282   3.802   9.143  11.460  0.1375 -0.2814  0.1357
32474W        W48283   5.935   8.326  14.044 -0.0382  0.0532  0.0108
32475W        W48284   7.843  11.687  12.248 -0.0699 -0.1672 -0.0333
32476W        W48285  12.089  14.614   4.995  0.3681  0.3783 -0.2876
32477W        W48286  16.998  13.852   2.666 -0.0823  0.0855 -0.0441
32478W        W48287  14.316   1.311   4.471  0.0736 -0.0724  0.0255
32479W        W48288   8.279  14.087  12.391  0.1875 -0.0502 -0.1949
32480W        W48289  13.662  11.934  13.029 -0.1401 -0.1185 -0.1087
32481W        W48290  15.748   6.717  14.083 -0.4508 -0.2224  0.1344
32482W        W48291  11.292  11.256  12.007  0.1435  0.2913  0.0986
32483W        W48292   2.573  16.249  13.595 -0.1929  0.0979  0.3925
32484W        W48293  12.470   9.565   4.986 -0.0355 -0.1888  0.1353
32485W        W48294  18.391  16.941  12.570  0.0066  0.3443  0.0878
32486W        W48295   0.639   9.407   4.502 -0.0974  0.0111  0.1157
32487W        W48296  12.305   5.887  15.705  0.0858  0.0489 -0.1373
32488W        W48297   1.282  11.666  14.020  0.0615 -0.1234 -0.0187
32489W        W48298   0.591  10.328  12.787  0.0344 -0.6254 -0.2800
32490W        W48299   9.504  13.030   3.007  0.1531  0.0149 -0.0762
32491W        W48300  17.638   8.873   6.229 -0.1623 -0.0602  0.2424
32492W        W48301   8.506   1.910   2.613 -0.0171 -0.1928 -0.1070
32493W        W48302   2.529  17.287   0.913 -0.2252  0.0284  0.0194
32494W        W48303  11.354   8.755   4.008 -0.1746  0.0286 -0.1692
32495W        W48304   3.397   2.031   4.217 -0.1309 -0.3721 -0.2984
32496W        W48305   8.916   4.815   1.073  0.1865  0.2072  0.1487
32497W        W48306   0.285   9.900  12.774 -0.4899  0.1500 -0.0660
32498W        W48307   1.039  12.050   2.926 -0.2211 -0.1826 -0.1006
32499W        W48308  13.008   0.513  13.483 -0.0143 -0.3597 -0.0071
32500W        W48309   4.597  16.306  14.276  0.1345 -0.0432 -0.1327
32501W        W48310   2.849   0.921  12.605  0.3076  0.0809 -0.0535
32502W        W48311   0.670   8.058   5.682 -0.0318 -0.2250  0.0837
32503W        W48312   1.187   0.659  15.537 -0.0127  0.1512  0.1559
32504W        W48313   7.292   8.102   3.537  0.0285  0.1233  0.1121
32505W        W48314   2.186   3.165  10.107  0.0207  0.3010 -0.1007
32506W        W48315   6.344  10.306  15.313 -0.2711  0.3480  0.0005
32507W        W48316   0.682  10.020   3.493  0.0435  0.1245 -0.2459
32508W        W48317   0.079   7.392   1.733 -0.0309 -0.0699  0.0642
32509W        W48318  10.909   1.286   4.202 -0.1935  0.1799  0.1422
32510W        W48319   0.124  12.892   4.687  0.2295 -0.1232  0.1922
32511W        W48320  15.464  11.366  11.163  0.0085 -0.2192 -0.2801
32512W        W48321  13.895  10.370   3.386  0.2086 -0.0494  0.0933
32513W        W48322   1.110  12.586   5.428  0.0800 -0.0553 -0.0007
32514W        W48323   7.365   8.572  12.956 -0.1440  0.1454 -0.1887
32515W        W48324   1.614  10.142   5.196  0.0094 -0.1665  0.1911
32516W        W48325   5.167   3.709   2.163  0.1178 -0.1347  0.3393
32517W        W48326  16.994   5.717   2.622 -0.0392 -0.1250 -0.1912
32518W        W48327  11.533  11.952   3.987  0.1007 -0.2231 -0.2578
32519W        W48328   9.407  15.064   1.262 -0.3964 -0.0179 -0.0749
32520W        W48329   4.514   5.598   4.786  0.1424 -0.0622  0.0745
32521W        W48330  10.387   1.889   0.719 -0.1364  0.0040  0.1491
32522W        W48331  13.343   5.452  14.788  0.1041  0.0561 -0.2340
32523W        W48332   1.842  16.282   1.722  0.3459  0.1024 -0.0659
32524W        W48333   9.818   6.858  14.480 -0.0018  0.0299  0.1931
32525W        W48334   1.840  18.614   4.603  0.1337 -0.4708 -0.1470
32526W        W48335   3.133  16.031  10.844  0.2074  0.0694 -0.2860
32527W        W48336   9.352   8.317   1.151 -0.2375  0.1339 -0.0726
32528W        W48337  14.062  14.436  14.759 -0.2327 -0.0903  0.0787
32529W        W48338  17.120  15.175   5.512  0.3981 -0.1438  0.1086
32530W        W48339  12.889  12.234  12.285  0.5023 -0.0482 -0.0166
32531W        W48340   6.810  11.366  15.595 -0.3067  0.1514 -0.2893
32532W        W48341   8.302   3.602   5.510 -0.1423  0.1110  0.2319
32533W        W48342   8.149  10.516   1.531 -0.2434  0.1729 -0.0152
32534W        W48343  16.676   0.417  13.937  0.2296 -0.2217 -0.0797
32535W        W48344  16.871   7.361  12.811 -0.1175  0.2535 -0.1630
32536W        W48345   2.733  10.520   0.446 -0.0239 -0.1185  0.2394
32537W        W48346   1.255  13.624   2.619  0.2624  0.1709  0.0890
32538W        W48347   7.336   0.595  13.069  0.0571 -0.0190  0.2446
32539W        W48348   2.834  18.410   4.452 -0.2501  0.0142  0.1810
32540W        W48349  11.306  16.297  10.856 -0.1248 -0.0931  0.2325
32541W        W48350  18.564   2.603   4.971  0.2204  0.0465  0.3134
32542W        W48351  12.199  14.640  10.836 -0.1296 -0.1211 -0.0400
32543W        W48352   3.582  13.572   4.013  0.4714 -0.0919  0.1030
32544W        W48353   1.787   5.174  15.309 -0.0662  0.3437  0.1521
32545W        W48354   6.791  16.003  14.123 -0.1442 -0.0443 -0.0081
32546W        W48355   4.336   3.279  15.266 -0.3902 -0.1027 -0.2417
32547W        W48356   1.859   6.394   0.829 -0.3118  0.1551 -0.0510
32548W        W48357   5.432  18.479  14.238 -0.0576  0.1883 -0.1483
32549W        W48358   0.894  15.511   0.725 -0.1974  0.4889 -0.1289
32550W        W48359  13.828   9.247  14.464  0.1456  0.2160 -0.2466
32551W        W48360   2.398   3.924   0.005  0.1381 -0.2210  0.0274
32552W        W48361   9.688   2.986   0.537 -0.0495 -0.0220  0.1308
32553W        W48362  13.167   1.465  13.364 -0.1497  0.1540  0.3200
32554W        W48363  10.424  13.498   2.940  0.0092  0.1913 -0.1034
32555W        W48364  15.796   1.553   0.524  0.2400 -0.0846 -0.3316
32556W        W48365  15.551   8.841   1.331 -0.0220 -0.0300 -0.1352
32557W        W48366   3.280   6.986   5.325 -0.0362 -0.2612 -0.0489
32558W        W48367   2.638   5.578   0.463  0.1075  0.0361 -0.3417
32559W        W48368   8.440  10.360   3.416 -0.0078  0.0407  0.2963
32560W        W48369  11.380  11.906  11.436 -0.0158  0.1274  0.1363
32561W        W48370   6.060  16.879  12.229 -0.3389 -0.1966  0.0737
32562W        W48371   1.738  15.615  11.861 -0.0602 -0.0257 -0.0584
32563W        W48372  12.470  11.055  13.495 -0.0123 -0.2635 -0.2042
32564W        W48373  14.350   3.934  14.169 -0.0636  0.1282  0.2668
32565W        W48374  17.394   9.649   5.374 -0.1017  0.1085 -0.0949
32566W        W48375  12.647  16.141   4.167  0.1843 -0.4901  0.2960
32567W        W48376   3.471  13.154   0.215  0.2034 -0.2269 -0.3252
32568W        W48377   5.613   8.026  11.879  0.1863 -0.2031  0.0669
32569W        W48378  18.348  14.704   5.782  0.1137  0.2412 -0.0453
32570W        W48379  18.353   6.564   2.305 -0.0484 -0.0265  0.4474
32571W        W48380  12.142   7.883   4.752  0.0675  0.1813  0.0117
32572W        W48381  10.403  13.572   1.833 -0.2424  0.1087 -0.0406
32573W        W48382   9.855  17.967  14.303 -0.1349 -0.1089 -0.1166
32574W        W48383   9.706   0.053   0.526 -0.0178 -0.3096 -0.0070
32575W        W48384  16.227   4.978   0.289  0.2505  0.4098  0.2980
32576W        W48385   4.262   8.956  14.259  0.1411 -0.0476 -0.0607
32577W        W48386   4.686  11.200   5.128  0.1448  0.0364  0.1192
32578W        W48387  11.012   0.751  15.566  0.0747  0.0521  0.1900
32579W        W48388  15.871   2.606   1.990 -0.6095  0.3778  0.1210
32580W        W48389   3.600  18.377   1.176 -0.0087  0.0514 -0.2211
32581W        W48390   4.938   8.274   0.474 -0.4097 -0.0745  0.1804
32582W        W48391   2.175   8.644   3.931 -0.2360 -0.0068 -0.1177
32583W        W48392  18.301  15.467  12.916 -0.0322  0.0832 -0.2932
32584W        W48393   4.342   5.261  13.508  0.1661 -0.2600  0.0399
32585W        W48394  10.141   3.075   4.568 -0.1338 -0.2727 -0.0347
32586W        W48395   1.126  15.278  14.287 -0.0190  0.1767  0.1064
32587W        W48396   5.122   8.271   4.721  0.1098 -0.0046 -0.0830
32588W        W48397   4.945  11.563  15.143  0.0517 -0.2334  0.3351
32589W        W48398   1.618   3.262   6.188 -0.2304  0.1997 -0.2392
32590W        W48399   4.164   2.195  12.827  0.1310  0.1457  0.0511
32591W        W48400  15.244   3.209   5.128  0.0225 -0.2567 -0.0002
32592W        W48401   9.796  17.210   1.418  0.0481  0.1034  0.0592
32593W        W48402  15.744  11.989   1.026 -0.4058  0.1660  0.0297
32594W        W48403   1.126   7.565   2.997 -0.3525  0.1358  0.0197
32595W        W48404  17.402  14.493  13.786  0.1841 -0.0417 -0.1805
32596W        W48405   3.291  11.222  11.699 -0.2593 -0.1882  0.0387
32597W        W48406  17.659  14.664  14.901 -0.3875 -0.0381  0.0203
32598W        W48407   5.690  13.193  11.834 -0.0641 -0.1618  0.0563
32599W        W48408  13.799  11.127   5.339  0.1837 -0.0386  0.0905
32600W        W48409  17.116   6.291  13.344 -0.0277 -0.1119 -0.1391
32601W        W48410  15.518   6.591  13.602 -0.1131  0.0133 -0.0045
32602W        W48411  16.912  14.920  11.550  0.0281  0.0568 -0.0291
32603W        W48412   3.315  17.434   1.461 -0.2492 -0.0067  0.1375
32604W        W48413  17.992   4.234   5.988 -0.0059 -0.1867  0.0445
32605W        W48414  13.738   8.530  15.015  0.4544  0.1617 -0.0908
32606W        W48415   3.302  18.292   0.727 -0.3277 -0.1363 -0.1502
32607W        W48416  10.272   9.360   0.456  0.0961  0.0034  0.2426
32608W        W48417   0.409   2.629  11.435 -0.1387 -0.4678 -0.2739
32609W        W48418   7.964   1.666   5.790  0.1981 -0.1793 -0.0903
32610W        W48419   4.438  13.222  14.865 -0.0305  0.2249 -0.3705
32611W        W48420  15.200  15.515  11.408 -0.1667  0.2667 -0.0377
32612W        W48421  13.847   6.509   1.478  0.1928  0.2494 -0.3262
32613W        W48422  18.136   2.639   4.369 -0.0070 -0.1655  0.3020
32614W        W48423   2.607  13.687  15.747  0.3734 -0.5839  0.1031
32615W        W48424   8.720   1.048  12.980 -0.0617 -0.0949 -0.1394
32616W        W48425   5.947  14.611   4.963 -0.0735 -0.1624 -0.0885
32617W        W48426  14.469   2.282   1.870 -0.1047 -0.0959  0.0070
32618W        W48427  16.893  15.284   1.892  0.0433 -0.1219  0.0110
32619W        W48428  14.969   3.546   5.481 -0.0560  0.0389 -0.4198
32620W        W48429  13.977  12.973  12.211 -0.2874  0.0035  0.2299
32621W        W48430  11.809  13.465  15.140  0.1158  0.0176 -0.0569
32622W        W48431   9.024   4.908   3.492  0.3225 -0.0346  0.0204
32623W        W48432   6.845  17.779   2.912  0.0302  0.0128 -0.1189
32624W        W48433   1.346  18.081   1.057  0.2736 -0.1642  0.0679
32625W        W48434  13.349  14.202  12.949 -0.0253  0.1284 -0.0071
32626W        W48435  16.666  15.191   2.680 -0.0666  0.1053 -0.1304
32627W        W48436   0.700  16.116  12.095  0.2308 -0.1714  0.0646
32628W        W48437   3.053  10.588   0.819  0.3289 -0.1597  0.0624
32629W        W48438  16.191  15.885   1.039 -0.1314 -0.3400 -0.0959
32630W        W48439  14.664  14.037   3.622 -0.1163  0.1555  0.1681
32631W        W48440  10.621   9.802  12.606  0.0159  0.1046 -0.3689
32632W        W48441   1.772  14.396   0.189 -0.0247  0.2273  0.0427
32633W        W48442  17.832   3.734  13.534  0.3815  0.0218 -0.3697
32634W        W48443  11.870   9.749   1.584 -0.0914  0.0559  0.1180
32635W        W48444   9.544  12.566  12.219 -0.0870 -0.1483  0.0834
32636W        W48445  18.202  18.096   3.944  0.0799 -0.2401 -0.1230
32637W        W48446  15.988  14.122  14.307  0.0228  0.1166  0.0183
32638W        W48447  14.219   9.490   3.721 -0.0626  0.2946 -0.1404
32639W        W48448  11.962  12.488  13.131 -0.1669 -0.1577 -0.1932
32640W        W48449   3.963   9.856  15.248 -0.1634 -0.0177 -0.0429
32641W        W48450  15.346   0.828  13.918 -0.0539  0.0450 -0.1982
32642W        W48451   9.152  15.016   2.221 -0.4815  0.0244  0.0566
32643W        W48452  16.364  10.341   2.421 -0.0968 -0.0700 -0.0546
32644W        W48453   6.777  13.662  11.083 -0.2006  0.1292  0.1396
32645W        W48454   9.682   7.791   2.145 -0.1377  0.1387 -0.1303
32646W        W48455  16.268  13.291  12.128 -0.0665 -0.0323 -0.2921
32647W        W48456   4.449   0.137   2.636 -0.0689 -0.2537  0.2261
32648W        W48457   2.837  13.386  12.639  0.3523 -0.1008 -0.0909
32649W        W48458  10.824  13.502   1.536 -0.0438 -0.3757  0.0689
32650W        W48459   9.095  18.411  15.316  0.2074  0.0033  0.1182
32651W        W48460  17.023  10.043  11.459 -0.0534 -0.1019  0.1285
32652W        W48461  16.409   2.870   4.517 -0.4537  0.0766 -0.0068
32653W        W48462   4.988   6.356  15.507  0.1019  0.2876 -0.1168
32654W        W48463   4.315  12.096  12.909  0.0806  0.3018  0.1908
32655W        W48464   5.117   3.305   2.434  0.1007  0.0491 -0.0742
32656W        W48465  16.879   7.579   1.417 -0.0470 -0.1548 -0.2086
32657W        W48466   6.961   0.999   5.868  0.3850 -0.0522 -0.0297
32658W        W48467  14.095  16.975   4.064 -0.4534  0.0475  0.1755
32659ION     NA48468   0.558   6.978   3.060 -0.0739  0.1002 -0.0226
32660ION     NA48469  10.325   6.768  11.573 -0.0142  0.3904 -0.0466
32661ION     NA48470  17.056  11.500  10.015  0.2079  0.3086  0.3008
32662ION     NA48471  13.799   1.470   9.933  0.2316 -0.2617 -0.1433
32663ION     NA48472   9.199   4.599   5.750  0.2105 -0.0521  0.1473
32664ION     NA48473   0.596   8.120  11.469  0.2171 -0.2015  0.1984
32665ION     NA48474  17.976   4.980  10.311  0.0949  0.2322 -0.0523
32666ION     NA48475   9.413  18.445  14.070  0.3482  0.1808 -0.4066
32667ION     NA48476   3.790   1.271   9.909 -0.0134 -0.2195  0.2158
32668ION     NA48477  15.079   3.903  15.030  0.3545 -0.0659 -0.1565
32669ION     NA48478   1.994   5.448  10.559  0.0168 -0.0039 -0.0099
32670ION     NA48479   1.894   7.336   6.338 -0.1411 -0.0372  0.0414
32671ION     NA48480  11.656   5.407   2.572 -0.0816  0.0485  0.0475
32672ION     NA48481   9.017   6.530  10.299  0.1433 -0.0985  0.0667
32673ION     NA48482  15.038  12.968  11.536  0.1462 -0.1992 -0.0268
32674ION     NA48483   5.214  15.669   9.986  0.3942  0.2632 -0.2532
32675ION     NA48484   0.715   2.674  10.008  0.1667 -0.0799 -0.2830
32676ION     NA48485  10.288   9.003   9.950 -0.0683 -0.2345  0.0750
32677ION     NA48486   1.167  13.779  10.191  0.2158  0.4294 -0.1347
32678ION     NA48487   4.823   9.984  10.265  0.4144 -0.0501  0.1186
32679ION     NA48488   7.422   3.276  10.537 -0.0759 -0.1687 -0.0537
32680ION     NA48489   3.400   6.725  10.666  0.2257 -0.3608  0.1337
32681ION     NA48490   5.555   7.057  10.531 -0.0146  0.1041 -0.0525
32682ION     NA48491   8.591   3.068  13.490  0.1729  0.0577 -0.1423
32683ION     NA48492   8.612   0.379   5.487 -0.2973  0.0797  0.0237
32684ION     NA48493  17.402  12.883   5.302  0.0737 -0.0615 -0.0214
32685ION     NA48494  18.287   9.445   1.876 -0.1389 -0.1813 -0.2462
32686ION     NA48495   9.967   3.709   9.796 -0.1169 -0.1832  0.0677
32687ION     NA48496  12.703   0.222   2.326  0.0467 -0.2205 -0.0099
32688ION     NA48497   4.352  15.742   9.932 -0.1872 -0.2429 -0.1105
32689ION     NA48498  14.472   7.178  10.134  0.2955  0.0600  0.0207
32690ION     NA48499   1.658   3.135  10.064 -0.0808 -0.0965  0.2158
32691ION     NA48500   8.012  11.571  10.333  0.0762 -0.1102  0.2429
32692ION     NA48501  17.944  18.311   9.850  0.3453 -0.1643 -0.1771
32693ION     NA48502   7.418   4.841   1.765  0.0473 -0.1879  0.1776
32694ION     NA48503  18.480   0.256   9.896  0.2533 -0.0198  0.2870
32695ION     NA48504  11.743  13.389   0.234  0.0864 -0.0599 -0.1337
32696ION     NA48505  15.239  10.461  15.529  0.3502  0.0985 -0.4041
32697ION     NA48506   4.758   4.084  10.345 -0.0471 -0.0907  0.0424
32698ION     NA48507  15.398   3.123   3.910 -0.0389 -0.1279 -0.3007
32699ION     NA48508  17.253  14.832   3.789  0.1495  0.0528 -0.1966
32700ION     NA48509   4.554  18.141   5.059  0.1923 -0.2531 -0.0375
32701ION     NA48510  13.329  14.760   0.192  0.1947  0.1037 -0.1690
32702ION     NA48511   3.099   1.350  10.004  0.0164  0.1231  0.3111
32703ION     NA48512  16.377   0.946   9.867  0.0923  0.2077  0.0802
32704ION     NA48513  13.793   1.305   1.498  0.1904 -0.1646 -0.1091
32705ION     NA48514   8.052   3.707   9.906 -0.0770  0.0608 -0.1272
32706ION     NA48515   9.524  15.236   9.719  0.1351  0.1220  0.0326
32707ION     NA48516   9.745   2.635   1.025  0.4345 -0.0165  0.1951
32708ION     NA48517   1.968   4.722  10.328 -0.1809 -0.0373  0.0059
32709ION     NA48518   8.345  17.536   9.958  0.0633 -0.1407 -0.4368
32710ION     NA48519   5.768  11.252  10.415  0.1340 -0.2795  0.4899
32711ION     NA48520   5.786   4.124  10.213  0.0112 -0.0117  0.0066
32712ION     NA48521  10.579  10.981   9.997  0.1293  0.0300 -0.0562
32713ION     NA48522   4.684  15.884   5.321 -0.2532  0.1526 -0.0263
32714ION     NA48523  18.602  14.795   1.576  0.2636 -0.1335 -0.2007
32715ION     NA48524  10.615   6.871  10.116 -0.1956  0.4599 -0.0320
32716ION     NA48525  13.642  14.410   1.384  0.1785  0.1998 -0.3307
32717ION     NA48526  15.019   2.139   5.258 -0.0363 -0.3092  0.1411
32718ION     NA48527  11.080   3.410   5.691  0.2125 -0.1345  0.2777
32719ION     NA48528   9.723   9.501   9.909  0.0717 -0.1455 -0.2614
32720ION     NA48529  12.316  10.292   9.894  0.1413 -0.0149  0.1475
32721ION     NA48530   3.173  10.970   5.788 -0.0720 -0.1842  0.2335
32722ION     NA48531   1.519  16.175   9.900 -0.2591 -0.3892 -0.3103
32723ION     NA48532  17.243  13.684   9.753 -0.2243  0.2185 -0.2116
32724ION     NA48533   0.314  16.593  10.270 -0.1828  0.0391 -0.0872
32725ION     NA48534  17.991  12.235  12.225 -0.1603 -0.0961 -0.0883
32726ION     NA48535  13.684   6.102  10.614  0.2688 -0.3847 -0.0687
32727ION     NA48536   9.747  16.874   5.415 -0.2530 -0.1062  0.0554
32728ION     NA48537   2.552   8.539  10.540  0.1551 -0.2053 -0.0926
32729ION     NA48538   5.426   0.505  10.051  0.2014  0.1994  0.0633
32730ION     NA48539   4.491  10.581  10.304 -0.0509  0.1951 -0.1337
32731ION     NA48540  11.257   2.357   5.850  0.2454  0.3938  0.1399
32732ION     NA48541  12.893  10.452   4.651  0.0629 -0.0142  0.2044
32733ION     NA48542   2.836  14.363   5.926 -0.3107 -0.3281  0.0192
32734ION     NA48543   5.074   4.967  10.174 -0.2108 -0.0439 -0.0042
32735ION     NA48544   7.108  12.818   5.656  0.2167 -0.1892  0.0307
32736ION     NA48545   8.517  14.733   9.538  0.1673 -0.3389  0.0181
32737ION     NA48546   0.614   7.647  10.594  0.1361 -0.0066  0.1110
32738ION     NA48547   8.914   1.993   2.837  0.1232 -0.0821 -0.1605
32739ION     NA48548   4.534  11.443  10.258 -0.1534  0.0796  0.0582
32740ION     NA48549  18.398   3.102   1.313  0.3653 -0.1302  0.0065
32741ION     NA48550  17.549   5.310   5.856 -0.1646 -0.1279  0.2370
32742ION     NA48551   2.314   4.440  15.646 -0.1085  0.1275 -0.4188
32743ION     NA48552  10.683   8.123  10.094  0.0388 -0.1321 -0.0196
32744ION     NA48553  10.884   0.603   9.839  0.1693  0.0804 -0.2251
32745ION     NA48554   1.874   8.997   6.024  0.2209  0.2527 -0.0406
32746ION     NA48555  13.939  15.278   9.356  0.0899  0.1274 -0.0873
32747ION     NA48556  10.704   2.794  11.415 -0.0460  0.2536 -0.0613
32748ION     NA48557  14.854   6.403   9.940 -0.1035 -0.0924 -0.2410
32749ION     NA48558  11.597  17.805   9.511  0.0169  0.0809  0.2386
32750ION     NA48559  17.648  11.742  14.787  0.1942 -0.1391  0.0658
32751ION     NA48560   3.988  10.624   5.231  0.4507 -0.0051 -0.3630
32752ION     NA48561   1.674  17.176   5.649 -0.0819  0.2176  0.0363
32753ION     NA48562   7.862  14.195   9.832  0.1127  0.1910 -0.0499
32754ION     NA48563  13.886   0.634   9.769  0.0970 -0.1542 -0.0585
32755ION     NA48564   7.769  16.918  11.175  0.1418 -0.0288  0.1980
32756ION     NA48565  12.911   8.904  14.801  0.2162  0.0095  0.0117
32757ION     NA48566   1.754  13.374  11.131  0.2579 -0.1913 -0.0476
32758ION     NA48567  18.003   9.141  10.138  0.0421  0.0887  0.1144
32759ION     NA48568  15.229   3.594  12.488  0.1257 -0.0711  0.1622
32760ION     NA48569  12.238  10.618   3.080 -0.0078 -0.1751  0.1868
32761ION     NA48570  16.211   3.235   5.482 -0.0188  0.0998  0.0487
32762ION     NA48571   7.202  16.141  12.663  0.0162  0.1810  0.0172
32763ION     NA48572   8.611  12.707   5.399 -0.1189  0.0837  0.0149
32764ION     NA48573   3.673   9.708  13.571 -0.0685  0.1268  0.1285
32765ION     NA48574   7.971   6.372  10.692  0.0553 -0.0401  0.2129
32766ION     NA48575  17.224   4.184  10.216  0.2471 -0.1198 -0.0439
32767ION     NA48576   6.802   9.820  10.443  0.0856  0.0625  0.0619
32768ION     NA48577  16.198   3.286   2.802  0.0008 -0.3270  0.2039
32769ION     NA48578  11.453   4.088   9.961 -0.0807 -0.1590  0.1840
32770ION     NA48579  16.134  12.012   5.778  0.0239  0.1327  0.1724
32771ION     NA48580  11.395   4.812   1.274 -0.0859  0.1203  0.3138
32772ION     NA48581  18.411  12.683   9.941 -0.1958  0.1561 -0.2310
32773ION     NA48582   8.474  10.503   5.558  0.1499 -0.0529  0.2530
32774ION     NA48583   2.148   1.062   5.451  0.0678  0.2388 -0.4460
32775ION     NA48584  17.167   9.057  10.409 -0.0660  0.1392 -0.3974
32776ION     NA48585  13.464   1.068  15.249 -0.2370 -0.0215 -0.2235
32777ION     NA48586  11.516   6.918  10.088  0.2491 -0.1552  0.0607
32778ION     NA48587   3.499   8.492  10.505 -0.1075 -0.2260  0.2062
32779ION     NA48588   6.038  12.684   5.476 -0.1894 -0.0824  0.0756
32780ION     NA48589  17.573  17.286   9.457  0.0784  0.1042 -0.1007
32781ION     NA48590   9.750  10.600  11.580 -0.3036 -0.3164 -0.1278
32782ION     NA48591  15.428   9.158  12.848  0.0145  0.2398 -0.2674
32783ION     NA48592  14.114  15.720   4.900 -0.3984 -0.0157 -0.3636
32784ION     NA48593  16.674  10.347   0.234  0.3776  0.2525  0.1009
32785ION     NA48594  17.872   8.531  10.038 -0.4520 -0.2706  0.2343
32786ION     NA48595   9.958  15.041  14.535 -0.1797 -0.0367 -0.0202
32787ION     NA48596  10.388   1.791  13.913 -0.4240  0.1285  0.2889
32788ION     NA48597   9.883  16.954  15.577 -0.2065 -0.2646  0.2870
32789ION     NA48598   6.773  10.223   3.939 -0.1066 -0.1701 -0.0329
32790ION     NA48599  17.252  14.876   9.904 -0.0797  0.0683  0.2226
32791ION     NA48600   6.226   9.169  10.627  0.0946 -0.0980  0.2215
32792ION     NA48601  15.148  18.220   9.571  0.0277  0.0787 -0.0873
32793ION     NA48602  18.294   1.126   9.982  0.1103  0.1183  0.0953
32794ION     NA48603   0.727   1.992   5.718 -0.0420 -0.1308  0.1502
32795ION     NA48604  16.472  18.211   5.392  0.0017  0.1613  0.1728
32796ION     NA48605   7.860   2.419  13.735  0.0219 -0.2226 -0.1134
32797ION     NA48606   0.225   8.851   0.131 -0.0140  0.3197  0.0886
32798ION     NA48607  12.289  12.787   9.849 -0.1586  0.3216  0.0436
32799ION     NA48608  18.290   7.780  10.529 -0.0209 -0.2040  0.2181
32800ION     NA48609  13.430   5.150  11.059 -0.3190 -0.2671  0.2224
32801ION     NA48610  16.726  17.471   9.625 -0.0705  0.2589  0.2422
32802ION     NA48611   1.094  15.543  12.175  0.2996  0.0736  0.2147
32803ION     NA48612  14.452  13.442   9.550 -0.0618  0.1173  0.0698
32804ION     NA48613  14.343   5.476  10.154 -0.2087  0.1313 -0.2612
32805ION     NA48614  14.982  15.189   4.886 -0.0578  0.3012 -0.2374
32806ION     NA48615  13.310   8.141  11.340 -0.0420 -0.1905 -0.1875
32807ION     NA48616   1.233   1.400  15.023 -0.0544  0.1714 -0.1322
32808ION     NA48617   9.806   7.454   3.958 -0.1700  0.0238 -0.1219
32809ION     NA48618   1.969  18.593  14.111  0.2118 -0.1169 -0.4355
32810ION     NA48619   5.491   8.524  15.607 -0.6285 -0.0360 -0.1652
32811ION     NA48620  16.624  18.285   9.687 -0.0117 -0.2830 -0.0053
32812ION     NA48621  10.013   2.776  10.099 -0.3054 -0.0796 -0.1590
32813ION     NA48622   4.043   8.582  14.584 -0.0771  0.1118  0.0463
32814ION     NA48623   5.585  13.054  10.354 -0.2696  0.1625  0.0725
32815ION     NA48624   7.954  15.499   9.594  0.1706  0.2748 -0.2464
32816ION     NA48625  14.927   0.534   9.563 -0.1222  0.1438  0.2737
32817ION     NA48626   6.768   5.563   1.800 -0.3859 -0.1390 -0.3925
32818ION     NA48627   4.306  14.894  13.973 -0.1789  0.0190  0.0075
32819ION     NA48628   7.651  12.951   9.826  0.0271  0.0961  0.0235
32820ION     NA48629   6.354   2.390   4.336  0.1114  0.0801  0.2734
32821ION     NA48630  14.481   1.486   9.633  0.2340 -0.0181  0.0792
32822ION     NA48631  16.111   9.464  14.510  0.2022 -0.2235 -0.2223
32823ION     NA48632  15.288  14.099   9.392 -0.0649  0.1608  0.1742
32824ION     NA48633   9.330  17.161   9.759  0.1268 -0.4837  0.1488
32825ION     NA48634  12.130   8.139   9.736  0.0872 -0.0441  0.0506
32826ION     NA48635   6.571  18.524  10.187  0.0197 -0.0627  0.0218
32827ION     NA48636   8.207   6.333   5.893 -0.0952 -0.0054 -0.3079
32828ION     NA48637  13.282   7.459  12.519 -0.1880 -0.1463 -0.0387
32829ION     NA48638  14.055   4.100   9.891  0.1589 -0.0519 -0.1445
32830ION     NA48639  18.277   8.374   3.598 -0.3136  0.2310 -0.1632
32831ION     NA48640   1.248   9.679  10.536 -0.0258 -0.0015  0.1270
32832ION     NA48641   2.336   2.661   0.307  0.1365  0.0430  0.1185
32833ION     NA48642  13.934   9.485  12.088 -0.2207 -0.0911  0.2713
32834ION     NA48643   3.603  18.463   0.188  0.1081 -0.0209 -0.1118
32835ION     NA48644  16.704   2.048  15.299 -0.0247  0.4951  0.1357
32836ION     NA48645  10.317   8.452   1.135  0.1812  0.0398 -0.1531
32837ION     NA48646   6.300   5.539  14.286 -0.1829  0.3386 -0.0103
32838ION     NA48647   8.568   7.861  10.419 -0.0395  0.1087  0.0341
32839ION     NA48648   5.850   1.946  10.130 -0.0425 -0.1249 -0.2725
32840ION     NA48649  13.486   9.961   5.708  0.4324  0.1145  0.2877
32841ION     NA48650  15.714  12.213   3.055  0.0362 -0.0383 -0.0959
32842ION     NA48651   6.329  13.783   9.969 -0.5053  0.1391 -0.3336
32843ION     NA48652   4.323   2.119   9.758  0.1282  0.0600 -0.0880
32844ION     NA48653  11.785   8.627  10.211 -0.0782  0.2779  0.3594
32845ION     NA48654  13.363   1.790   5.437  0.1673 -0.0594 -0.1458
32846ION     NA48655   6.529  17.570  10.181  0.4389  0.0315 -0.1091
32847ION     NA48656   0.993   3.953  13.406  0.3409  0.0484  0.0437
32848ION     NA48657   2.819   5.898  10.334 -0.0859  0.1333 -0.1048
32849ION     NA48658  17.452  12.065  12.319  0.0779  0.0591 -0.1906
32850ION     NA48659   5.492   0.112   0.572 -0.0807  0.1042 -0.1539
32851ION     NA48660  15.679   6.499   0.656 -0.2211  0.2873  0.2162
32852ION     NA48661  18.239   5.336  11.792 -0.3896  0.0815 -0.0437
32853ION     NA48662   5.502  10.354  10.423  0.2279  0.0198 -0.2056
32854ION     NA48663   8.299   7.255   0.931  0.0682 -0.0873 -0.1105
32855ION     NA48664   5.935  16.998   9.959  0.1222 -0.0095 -0.1777
32856ION     NA48665   7.798   8.229  10.338  0.0337 -0.0473 -0.0180
32857ION     NA48666   5.099   7.469  14.426  0.0527 -0.4354  0.3420
32858ION     NA48667   7.776   7.797  12.903 -0.2585 -0.1221 -0.0599
32859ION     NA48668   8.470   7.799   5.561  0.0770 -0.1044 -0.1487
32860ION     NA48669  13.114   1.175  14.219  0.1714  0.1914 -0.0048
32861ION     NA48670  11.430  16.481   5.214 -0.0422  0.0362 -0.0512
32862ION     NA48671   9.157   2.826  10.347  0.1200  0.1239 -0.1748
32863ION     NA48672  14.827   9.323  10.472  0.0324  0.3434  0.2286
32864ION     NA48673  11.930  12.379   3.713  0.1116  0.1769  0.1941
32865ION     NA48674   4.515  10.739   5.195 -0.2962  0.0524  0.0348
32866ION     NA48675  17.639   2.686  10.066  0.1259 -0.0147 -0.0371
32867ION     NA48676   9.375   5.702  12.940 -0.0428  0.2402  0.2077
32868ION     NA48677  11.582  10.976   3.992 -0.2257 -0.0001  0.3931
32869ION     NA48678   0.710  15.312  13.437  0.1788  0.0311  0.2940
32870ION     NA48679  15.211  12.625   9.850 -0.0651 -0.2244  0.2149
32871ION     NA48680   2.826  18.257  10.189  0.4151 -0.0946  0.1607
32872ION     NA48681  11.674  16.960   9.738  0.0679 -0.0973  0.0181
32873ION     NA48682  13.848  17.798  13.346  0.0078  0.0563 -0.2512
32874ION     NA48683  13.871   1.019  11.163  0.2940 -0.0508  0.2466
32875ION     NA48684   8.218   5.496  10.276 -0.0724  0.0635 -0.1497
32876ION     NA48685   6.598   2.525  10.047 -0.1521 -0.0577  0.3714
32877ION     NA48686  17.977  11.162  10.326  0.0068  0.1591 -0.1424
32878ION     NA48687   4.251  18.079   9.921 -0.0122  0.1174  0.3660
32879ION     NA48688  11.311   1.364  10.022  0.1120  0.0076  0.0346
32880ION     NA48689   1.772  10.662   0.597  0.1972  0.0834 -0.2406
32881ION     NA48690  10.106  11.151  13.219  0.0980 -0.1879  0.2924
32882ION     NA48691  12.901  11.915   9.834 -0.1243 -0.2001  0.1796
32883ION     NA48692  14.770  12.364   4.985 -0.1001  0.2252 -0.0006
32884ION     NA48693   9.673   0.602  13.358  0.2757 -0.0809 -0.2794
32885ION     NA48694   3.847   5.827  10.385  0.0479 -0.2721  0.0158
32886ION     NA48695  12.003   3.811   5.927 -0.2708 -0.1905  0.0008
32887ION     NA48696   2.869   4.269   2.647 -0.2070 -0.0646 -0.2116
32888ION     NA48697  10.497   3.603  10.089  0.0370 -0.0074 -0.1577
32889ION     NA48698  14.556  14.338   5.133 -0.1322 -0.1636 -0.3333
32890ION     NA48699   5.288   8.130  10.493  0.3604  0.1931  0.0436
32891ION     NA48700   9.399   9.552   2.348 -0.0602 -0.1380 -0.3091
32892ION     NA48701   1.271   2.671  13.179 -0.0197  0.1456 -0.0881
32893ION     NA48702  14.977  16.639   9.571  0.0499 -0.1621  0.0650
32894ION     NA48703   6.991  15.934   3.269 -0.0853  0.0324 -0.0823
32895ION     NA48704  10.590  16.793   9.684  0.1006  0.1257  0.0976
32896ION     NA48705   6.721   4.242   9.938  0.0746 -0.0520  0.1516
32897ION     NA48706   5.754  15.354   9.888  0.0629 -0.3299  0.0707
32898ION     NA48707   5.758  14.397   0.351 -0.0400 -0.0802 -0.0661
32899ION     NA48708  13.295  14.635  10.441 -0.0657 -0.0780  0.1222
32900ION     NA48709   7.579   8.009  11.148 -0.0174 -0.2913 -0.1796
32901ION     NA48710  10.542   7.147   5.569 -0.0221 -0.3392 -0.2526
32902ION     NA48711  13.192   3.923   9.855 -0.1164 -0.0379 -0.4189
32903ION     NA48712  12.832  10.300   9.940  0.0609  0.0082 -0.1085
32904ION     NA48713   6.547   2.108   5.222  0.1579 -0.0775  0.0323
32905ION     NA48714   8.306  13.985  14.723  0.0745 -0.2386 -0.0112
32906ION     NA48715   4.973   0.900  10.662 -0.1163 -0.2017  0.0205
32907ION     NA48716  15.420   6.387   5.739 -0.2740  0.1713 -0.0361
32908ION     NA48717  15.030  11.648   9.966 -0.0326 -0.0484 -0.4847
32909ION     NA48718   0.160  13.773  14.889 -0.1725 -0.1745  0.0747
32910ION     NA48719   8.930  10.059   9.977  0.4317 -0.2943  0.4110
32911ION     NA48720   7.560   6.027  10.476 -0.1641 -0.2915 -0.1352
32912ION     NA48721  14.059  11.365   2.163 -0.0453  0.2905 -0.2090
32913ION     NA48722  15.284   9.889  10.295 -0.3909  0.2559 -0.1656
32914ION     NA48723   8.652  18.028   5.719 -0.0279  0.1600  0.2046
32915ION     NA48724   1.934   8.154   5.661 -0.1256 -0.0270  0.0056
32916ION     NA48725   7.464  17.531  10.078 -0.1656 -0.2962 -0.1159
32917ION     NA48726  13.770   9.823  10.033 -0.0777  0.3128 -0.0433
32918ION     NA48727   0.675  18.351   2.373 -0.0189 -0.0628  0.0244
32919ION     NA48728   5.896   9.483  10.376 -0.1273  0.0269  0.0303
32920ION     NA48729  14.462  10.166  10.304  0.1285 -0.0712 -0.1186
32921ION     NA48730   9.498   1.081   9.863  0.0190  0.1729 -0.0642
32922ION     NA48731  12.587  10.392  12.883 -0.2305  0.0864  0.0909
32923ION     NA48732   4.328   4.922  13.080  0.1628 -0.2662 -0.4161
32924ION     NA48733  15.590   3.074   9.830 -0.1252 -0.0901 -0.1259
32925ION     NA48734   0.205  12.932   6.183  0.1271 -0.1859  0.0061
32926ION     NA48735   3.498   1.313  10.340 -0.2294  0.2974  0.1487
32927ION     NA48736  14.396   2.476   9.638  0.1504  0.0345 -0.1824
32928ION     NA48737   0.519  11.432  10.296  0.0950  0.0753 -0.0016
32929ION     NA48738   7.652   2.524   9.784 -0.2890  0.0751  0.0141
32930ION     NA48739  10.469  11.004   5.737 -0.1159  0.0429  0.2111
32931ION     NA48740  13.326   2.039   4.039  0.0475 -0.1832 -0.0405
32932ION     NA48741  10.096   9.898   5.865 -0.2527  0.2359 -0.2036
32933ION     NA48742   6.239  18.384  11.454 -0.3294 -0.1204  0.1988
32934ION     NA48743  18.558   3.790  14.565 -0.1947 -0.4185 -0.5228
32935ION     NA48744   5.191   3.074   4.286 -0.3010 -0.0773  0.1116
32936ION     NA48745   0.605  17.740  10.234  0.3034  0.1534 -0.2319
32937ION     NA48746   1.262   8.683  10.612  0.0957  0.4600 -0.0261
32938ION     NA48747  13.181  18.093   9.456 -0.0695 -0.0702 -0.0362
32939ION     NA48748  10.973   0.308   5.318 -0.1243  0.3423 -0.0535
32940ION     NA48749  13.762   5.602   3.221  0.0273 -0.0013 -0.2258
32941ION     NA48750  18.250  17.072  13.560  0.0155 -0.4470 -0.0449
32942ION     NA48751  17.341   1.585  10.743  0.0487  0.0884  0.0024
32943ION     NA48752  15.063   8.190   0.786 -0.2338  0.0949 -0.1253
32944ION     NA48753   0.856   8.950   2.563 -0.1632 -0.1902 -0.5869
32945ION     NA48754  17.810  14.736  11.838 -0.1796  0.1934  0.0250
32946ION     NA48755  11.358   8.911  15.210  0.1587  0.0491 -0.4219
32947ION     NA48756  15.838   0.198   9.407  0.3516 -0.3336  0.1432
32948ION     NA48757   9.108   2.077  10.059  0.0350  0.0078  0.1166
32949ION     NA48758   6.729   1.575   9.954  0.0965  0.0587  0.0721
32950ION     NA48759  16.619  15.951   9.417 -0.0634  0.0551 -0.0312
32951ION     NA48760  15.922   0.815   0.578 -0.1916  0.0205 -0.4296
32952ION     NA48761  16.146   4.930   5.710 -0.1700  0.0193 -0.0240
32953ION     NA48762   9.920  16.479   9.603  0.1128  0.1588  0.3399
32954ION     NA48763  18.115   8.294  14.599  0.2029  0.1234  0.1647
32955ION     NA48764   4.730  13.418  10.240  0.2305  0.0074 -0.1371
32956ION     NA48765   0.735   6.924  10.877  0.0600  0.2700  0.1163
32957ION     NA48766  13.383  18.415  14.121 -0.1898 -0.0277  0.5705
32958ION     NA48767  16.251   5.250  13.426  0.1563 -0.0508 -0.0004
32959ION     NA48768   7.449   7.276  10.584  0.1481  0.1876  0.3151
32960ION     NA48769   6.389   8.252  10.442  0.3671 -0.2045 -0.1922
32961ION     NA48770  10.652  18.357   9.637  0.0870  0.0106 -0.1664
32962ION     NA48771  14.027  16.928   9.473  0.1105 -0.0166  0.0116
32963ION     NA48772   9.047  12.800   0.205  0.2761 -0.0626 -0.1653
32964ION     NA48773   5.866   1.823   5.778  0.0860  0.1589  0.1894
32965ION     NA48774  13.404   8.721   2.770  0.0875  0.4419  0.0554
32966ION     NA48775  17.954   1.886   9.904  0.0848 -0.0439 -0.3051
32967ION     NA48776   1.473  17.804   9.879  0.2406  0.1742  0.0318
32968ION     NA48777   3.700   5.080   2.516  0.2331 -0.1920 -0.1697
32969ION     NA48778   2.102   9.889  11.000  0.0142 -0.1761  0.0096
32970ION     NA48779   3.000   9.927   6.039  0.0119 -0.0149 -0.1914
32971ION     NA48780  11.687   2.278  13.887 -0.2319  0.2025 -0.0179
32972ION     NA48781   5.766  17.997  10.016 -0.0839 -0.0582 -0.3865
32973ION     NA48782  16.393  15.192   9.529  0.0496  0.2306  0.3013
32974ION     NA48783   4.540   0.086  10.472  0.0711 -0.1002  0.1872
32975ION     NA48784  15.565   8.791  10.476 -0.1545 -0.2372 -0.1303
32976ION     NA48785  16.910   3.457  14.626  0.1730  0.1220  0.2075
32977ION     NA48786  15.393   1.909   4.013 -0.1679 -0.1027 -0.3481
32978ION     NA48787   3.832  13.922  10.159  0.0516  0.2474 -0.1401
32979ION     NA48788   2.566   0.100  10.228 -0.3714 -0.2347 -0.0969
32980ION     NA48789  18.642   1.194   1.854  0.3977  0.4045 -0.2807
32981ION     NA48790   3.988   5.060  12.097  0.0565  0.1340  0.2699
32982ION     NA48791  17.498  15.895   9.598  0.4629  0.2806  0.0243
32983ION     NA48792  15.353   9.370   0.184  0.2271 -0.2095 -0.2997
32984ION     NA48793  17.326  11.177  14.163  0.0790  0.0691 -0.2462
32985ION     NA48794  11.785  11.186  10.429  0.1227 -0.0687  0.3147
32986ION     NA48795  16.083  13.438   5.636 -0.2849  0.1132  0.0309
32987ION     NA48796   7.855  16.508   5.522 -0.1045 -0.0459  0.1462
32988ION     NA48797  17.542  12.227   9.980 -0.0427 -0.1803  0.1501
32989ION     NA48798  18.498   2.646   9.845  0.1517 -0.3287 -0.1648
32990ION     NA48799  11.076   7.769   5.834  0.0666  0.0653  0.0484
32991ION     NA48800  16.211  14.031  15.629 -0.0262 -0.1199  0.2279
32992ION     NA48801  11.569   5.174  10.057  0.1797  0.2252 -0.0019
32993ION     NA48802   3.982  10.469  10.317  0.1504  0.3612 -0.0347
32994ION     NA48803   2.446   4.498  10.513  0.0741  0.2311  0.1930
32995ION     NA48804   6.846   2.410  11.580 -0.0420  0.0140 -0.1178
32996ION     NA48805   2.715   9.466   0.525 -0.0285 -0.0897 -0.1084
32997ION     NA48806  14.954   4.682  10.155 -0.2185  0.1661  0.2065
32998ION     NA48807   0.915  10.705  10.501  0.3108 -0.3088  0.0386
32999ION     NA48808   1.892   6.570   1.303 -0.2743 -0.0277 -0.0947
33000ION     NA48809   6.240   3.494   9.818 -0.0274 -0.3050  0.2729
33001ION     NA48810   3.090   2.634   5.521  0.0510 -0.1296 -0.0332
33002ION     NA48811  12.019   9.610   3.228  0.0762  0.0791 -0.1494
33003ION     NA48812   5.712   2.856   5.422  0.2596  0.0947 -0.0543
33004ION     NA48813   1.792   7.907  10.722  0.1039  0.3251  0.1254
33005ION     NA48814   4.463   7.978  10.362  0.1562 -0.2345 -0.0283
33006ION     NA48815   3.299  11.030  10.543  0.0723 -0.1430 -0.3488
33007ION     NA48816   0.185  15.727   5.435  0.0412 -0.3580  0.2295
33008ION     NA48817   3.206  15.580  10.034  0.0024 -0.3361  0.0788
33009ION     NA48818  17.484   7.786  10.270 -0.3296  0.0782 -0.3322
33010ION     NA48819  14.907  15.777   0.976  0.3907  0.1549 -0.1370
33011ION     NA48820   7.434  15.556  14.988  0.0428  0.1319 -0.0005
33012ION     NA48821  16.506   9.066  12.753  0.2089  0.1271  0.1162
33013ION     NA48822   3.440  16.177   9.716 -0.4126 -0.2086  0.0324
33014ION     NA48823  17.138   6.048   5.675  0.2350  0.1512  0.0045
33015ION     NA48824  12.471   9.720   4.022  0.1537  0.1276 -0.0281
33016ION     NA48825  16.953  17.824  13.519  0.2315 -0.1006 -0.2564
33017ION     NA48826  16.158   5.403  11.349  0.2121  0.1693 -0.3540
33018ION     NA48827   3.694  11.226   0.535 -0.0330  0.2148 -0.3122
33019ION     NA48828   8.075  10.616  10.074  0.1826 -0.1021  0.1038
33020ION     NA48829   0.855  16.655   9.603  0.3102  0.0606 -0.0230
33021ION     NA48830   0.183   4.369   5.732 -0.2916  0.3653  0.0653
33022ION     NA48831   1.789   0.719  10.222 -0.2555 -0.0711 -0.0671
33023ION     NA48832  11.559   7.404   9.989 -0.1005  0.2625 -0.1099
33024ION     NA48833  14.480  13.016   9.799  0.0611  0.0883 -0.2053
33025ION     NA48834   3.506   9.128   5.839 -0.5477 -0.0115 -0.3883
33026ION     NA48835   2.330  15.804  10.341 -0.0607  0.0148  0.0909
33027ION     NA48836   5.623  14.356  10.189  0.1078 -0.0970 -0.0374
33028ION     NA48837   1.343  18.575   9.854 -0.2604  0.2106  0.0070
33029ION     NA48838   4.230   7.996   5.914  0.1144 -0.3384 -0.2110
33030ION     NA48839   8.413  16.282   0.157  0.1865 -0.4683 -0.4959
33031ION     NA48840  16.053  13.115  14.353 -0.0446 -0.0306  0.1069
33032ION     NA48841   0.671  14.936  10.027 -0.1343  0.1129 -0.2758
33033ION     NA48842   6.285  16.065   9.974 -0.0092  0.1738 -0.2134
33034ION     NA48843  13.107  11.686   5.004 -0.0310 -0.0078  0.1430
33035ION     NA48844   8.556  16.191   1.839  0.0933 -0.2864 -0.1380
33036ION     NA48845  11.474   1.344   5.584  0.0368 -0.1144  0.1530
33037ION     NA48846   0.909  14.122   5.539 -0.0298  0.0765  0.1646
33038ION     NA48847   5.443   5.575  14.857  0.0648  0.2752 -0.2364
33039ION     NA48848   5.652   5.474  10.260  0.2271 -0.1316  0.0176
33040ION     NA48849  17.032   1.979   9.837 -0.1494 -0.0086  0.1758
33041ION     NA48850  13.981   3.015  10.021  0.1613 -0.1450 -0.2130
33042ION     NA48851  10.423   0.158  14.981  0.0379  0.0211  0.2114
33043ION     NA48852   0.063  12.237   5.556 -0.0362  0.0927  0.0887
33044ION     NA48853  12.074   9.146  14.218  0.4193  0.0530 -0.1097
33045ION     NA48854  12.639   4.089  12.758  0.0640 -0.0889  0.0930
33046ION     NA48855  15.739  15.935   9.542  0.3829  0.2392 -0.1703
33047ION     NA48856   6.524   6.910  10.793  0.0723 -0.0855  0.2044
33048ION     NA48857   3.370   4.425  11.764 -0.2692  0.4053 -0.1946
33049ION     NA48858   3.800  17.478   9.668  0.1991 -0.1974  0.2839
33050ION     NA48859  15.354  11.331  12.478 -0.1847  0.2588 -0.2744
33051ION     NA48860  10.711  15.585   9.696 -0.0291 -0.0736 -0.0024
33052ION     NA48861  10.744  15.683   0.341 -0.1382  0.0257  0.2875
33053ION     NA48862  15.699  13.388   9.712  0.3309 -0.2228  0.1702
33054ION     NA48863   4.003  13.846   3.047 -0.2960 -0.2023 -0.2307
33055ION     NA48864  18.023  16.229  11.650  0.1233  0.1647  0.2435
33056ION     NA48865  17.157   0.261   9.870 -0.2093 -0.1582  0.1573
33057ION     NA48866  12.141   5.801   1.149 -0.0314  0.2513  0.1963
33058ION     NA48867   0.774   7.835   6.236  0.0678  0.3317 -0.0766
33059ION     NA48868   0.845  11.947  10.190  0.2775 -0.0083  0.1319
33060ION     NA48869   2.815  14.592  10.214  0.4223 -0.0495 -0.1950
33061ION     NA48870   3.736  14.450   5.543  0.0237 -0.0498  0.0422
33062ION     NA48871   4.007  11.735   5.710 -0.2010 -0.0673  0.0966
33063ION     NA48872   3.762   7.834  15.730  0.1738 -0.0813  0.0954
33064ION     NA48873   8.443  15.699   9.604 -0.2429 -0.2134 -0.0321
33065ION     NA48874   0.491   9.151  10.397 -0.0658 -0.2902 -0.3340
33066ION     NA48875  18.553  14.374   9.923 -0.1138 -0.2321  0.3458
33067ION     NA48876  14.001  14.287   9.469  0.0310  0.0602  0.1030
33068ION     NA48877   3.763   7.462  10.329  0.0943 -0.1170  0.0262
33069ION     NA48878  14.748   1.415   2.581  0.1187 -0.1752 -0.1475
33070ION     NA48879   1.913  16.799   9.766 -0.1372 -0.0248  0.0832
33071ION     NA48880   2.582  12.499  10.307 -0.1262  0.0710 -0.2200
33072ION     NA48881  12.642  11.102   9.663  0.0699 -0.1185  0.1697
33073ION     NA48882   4.955   8.897  10.408 -0.2236 -0.1255 -0.2072
33074ION     NA48883  12.086   0.186   4.814  0.1234  0.2770 -0.0437
33075ION     NA48884   9.028   0.692   2.251  0.1916 -0.1087 -0.2369
33076ION     NA48885   3.855   3.946  10.277  0.0366  0.2051  0.1457
33077ION     NA48886   7.007   5.053   2.727  0.2654 -0.0629 -0.1569
33078ION     NA48887   4.862  17.524   9.986 -0.0503  0.2288  0.0872
33079ION     NA48888   4.061   2.216   5.434  0.2058 -0.1618 -0.0918
33080ION     NA48889  16.103   9.997  10.172 -0.0586 -0.2229  0.1967
33081ION     NA48890   2.846   2.506  15.360  0.0699 -0.1040  0.2802
33082ION     NA48891  15.691   7.992  10.052  0.0521  0.1705  0.1180
33083ION     NA48892   2.946  16.550  11.834  0.2625 -0.2920  0.0161
33084ION     NA48893   7.262   5.547  10.323 -0.1255 -0.0892 -0.0075
33085ION     NA48894  14.683   1.410  11.236  0.1464  0.1358 -0.0414
33086ION     NA48895   7.702   1.000   2.109  0.4381  0.1249  0.0697
33087ION     NA48896   8.449  13.414   9.908 -0.3378 -0.2990 -0.1367
33088ION     NA48897   9.797  11.789  10.773  0.0530  0.1495  0.2606
33089ION     NA48898   0.142   6.327  11.169  0.1398 -0.1494 -0.0155
33090ION     NA48899  15.099   2.189   9.517 -0.2285 -0.2683  0.3670
33091ION     NA48900   1.011   6.351   2.135 -0.1258 -0.2598  0.0387
33092ION     NA48901   3.321  17.028  10.112  0.1882 -0.0288  0.1220
33093ION     NA48902   7.593   9.757   3.048  0.1686 -0.2816  0.0365
33094ION     NA48903   8.631  16.634   9.423 -0.1560  0.1521 -0.0855
33095ION     NA48904  13.746  13.498   9.446  0.1762 -0.1585 -0.0102
33096ION     NA48905   3.221  13.433   5.710 -0.0919 -0.2324  0.2122
33097ION     NA48906   7.747   1.543   9.737  0.0240 -0.1934 -0.0047
33098ION     NA48907  15.533  16.643   5.343  0.0130  0.3513  0.0247
33099ION     NA48908   1.217   6.069  10.626 -0.1398  0.2078  0.0372
33100ION     NA48909   3.811  13.646  15.103  0.3134 -0.2103  0.1121
33101ION     NA48910  11.299  11.286  10.215  0.0469  0.3430  0.1831
33102ION     NA48911  15.062  13.782   3.457 -0.1748  0.1933  0.1678
33103ION     NA48912   2.197   4.015  14.709 -0.0290 -0.0611  0.2647
33104ION     NA48913   4.674  14.662   9.823 -0.0095  0.0915  0.2547
33105ION     NA48914   3.637  14.890   9.991 -0.0407  0.1265  0.4263
33106ION     NA48915   2.136  15.452   0.766  0.3702  0.0374  0.2151
33107ION     NA48916   6.851  12.021   5.622  0.0820 -0.2456 -0.0873
33108ION     NA48917   0.217   5.166  10.423 -0.1502  0.0224  0.0984
33109ION     NA48918   7.248  15.363  10.130  0.3572 -0.2363  0.3820
33110ION     NA48919  18.163   3.449  10.220 -0.4141  0.2028  0.1770
33111ION     NA48920   3.873  13.348  10.378 -0.2022 -0.1209  0.0747
33112ION     NA48921   0.133  12.259  15.225  0.0722 -0.1320 -0.2127
33113ION     NA48922   6.121   6.936   1.002 -0.0172  0.4439 -0.2836
33114ION     NA48923  10.193   5.367  11.894  0.0157 -0.1163  0.0658
33115ION     NA48924   3.191  10.142  10.556 -0.1137  0.0493 -0.1359
33116ION     NA48925   7.082   8.976  10.480  0.2377 -0.2023  0.3756
33117ION     NA48926  14.672   0.157   4.854  0.0349 -0.0570 -0.0179
33118ION     NA48927  14.892   3.648   2.283 -0.1376 -0.1774 -0.0206
33119ION     NA48928   9.159  13.034   9.943  0.0763 -0.3976  0.2046
33120ION     NA48929  16.349  14.031   9.742 -0.0578  0.0794 -0.1497
33121ION     NA48930  15.287   5.569   9.937 -0.0665 -0.3065 -0.0624
33122ION     NA48931   2.579   3.488  10.151  0.0151  0.1527 -0.1228
33123ION     NA48932  12.804   1.700  10.198  0.3209  0.0905  0.1218
33124ION     NA48933   9.294  13.296   5.127  0.1085  0.2542  0.2799
33125ION     NA48934   8.075   0.618   9.863  0.1208 -0.0960 -0.2966
33126ION     NA48935  12.280   0.061   9.617 -0.1351  0.0008 -0.1070
33127ION     NA48936  15.160  10.810  10.283 -0.1595 -0.2008  0.2330
33128ION     NA48937   6.950  12.026  10.077  0.2451  0.0970 -0.1727
33129ION     NA48938   2.074   5.992   6.219 -0.0694 -0.0439  0.0738
33130ION     NA48939   1.753   8.052  13.412  0.3302 -0.2238  0.0002
33131ION     NA48940   8.825   4.230  10.341 -0.0140  0.1584 -0.1207
33132ION     NA48941  10.061   5.590   9.906 -0.1616  0.1305  0.2151
33133ION     NA48942   6.504  16.649  11.158  0.3929 -0.2878  0.1371
33134ION     NA48943   4.452   0.436  10.043 -0.1288 -0.0587  0.2903
33135ION     NA48944  12.567   5.622  10.062  0.4230  0.1866  0.1239
33136ION     NA48945   7.080  10.060   2.189  0.1990 -0.1137 -0.1099
33137ION     NA48946  12.898   7.844   9.956 -0.0007 -0.1799 -0.0671
33138ION     NA48947   5.214   3.489  10.086  0.0344 -0.0302 -0.0742
33139ION     NA48948  12.307   4.067   9.915  0.0203  0.1366  0.1023
33140ION     NA48949  14.380   1.334   5.207  0.1027 -0.0252  0.0536
33141ION     NA48950  13.220   9.094   5.745  0.2103 -0.1417  0.2552
33142ION     NA48951   6.227  15.153   9.820  0.2120 -0.0931 -0.1367
33143ION     NA48952  10.037   9.324   5.155 -0.0998  0.1305 -0.0128
33144ION     NA48953   2.892   4.964   1.917 -0.1231  0.1142 -0.0582
33145ION     NA48954   9.924  12.498   6.056 -0.1333  0.1796  0.1054
33146ION     NA48955   4.831  12.244   2.138 -0.2843  0.0252  0.1121
33147ION     NA48956   1.574   6.251  11.872  0.1806 -0.3437 -0.1547
33148ION     NA48957  14.183  12.134   9.935  0.1492 -0.0444 -0.1183
33149ION     NA48958   3.815  10.410   5.887  0.1178 -0.2182  0.1570
33150ION     NA48959   2.756   8.472   5.777  0.1395  0.0215 -0.2260
33151ION     NA48960  17.152   8.084  10.670 -0.1027  0.1823  0.2344
33152ION     NA48961  17.883   1.269   5.400 -0.2144  0.2678 -0.4460
33153ION     NA48962  16.132  12.241  10.529  0.0776 -0.2372  0.1489
33154ION     NA48963  14.603   7.876  10.122 -0.2155 -0.3000  0.0186
33155ION     NA48964  12.378  14.647   9.941  0.1863 -0.0589  0.0117
33156ION     NA48965   7.479  18.536  10.058 -0.0355  0.2423 -0.1317
33157ION     NA48966   7.905  12.308  10.968 -0.0223 -0.2644  0.1872
33158ION     NA48967  11.821   7.582  11.035  0.0155  0.1453  0.0980
33159ION     NA48968  16.286   5.859   9.875  0.2305  0.0088 -0.1649
33160ION     NA48969  17.662  17.120  11.011  0.2288  0.0044 -0.0171
33161ION     NA48970   4.380   1.182   3.802 -0.3376  0.2146  0.0405
33162ION     NA48971   1.686   1.667   9.944 -0.1328 -0.0535 -0.2341
33163ION     NA48972   2.134  18.588   1.201  0.2497 -0.2088  0.0301
33164ION     NA48973   4.571   5.664  11.088 -0.1705 -0.0683 -0.1520
33165ION     NA48974   6.222  10.709  14.955 -0.0232 -0.3179 -0.0973
33166ION     NA48975   2.551   3.608   5.692 -0.1345  0.0912  0.1021
33167ION     NA48976   7.160  13.585  10.178  0.1011 -0.1622 -0.4069
33168ION     NA48977  13.595   7.098   3.494  0.0477 -0.2639  0.1252
33169ION     NA48978   8.095  15.597   5.455  0.0407 -0.0917  0.0193
33170ION     NA48979   7.105  16.828  15.340  0.2194  0.0531 -0.1914
33171ION     NA48980   8.611  18.414   9.861  0.1509 -0.2407 -0.0703
33172ION     NA48981  18.159   3.908   4.675  0.0159 -0.0507 -0.1633
33173ION     NA48982  13.676   4.832  10.043 -0.4274  0.1219  0.1655
33174ION     NA48983  15.239   9.608   5.352 -0.3226  0.0995 -0.2130
33175ION     NA48984  14.706   6.813   1.375 -0.1741  0.2077 -0.0154
33176ION     NA48985  17.114   3.327  10.020  0.2528  0.1025  0.0503
33177ION     NA48986   2.321  10.911  10.608 -0.3240 -0.0476 -0.0107
33178ION     NA48987   1.497   4.007  10.320  0.1509  0.0901  0.1335
33179ION     NA48988   3.475   0.406  10.161 -0.0754 -0.1302  0.2015
33180ION     NA48989  15.175  11.338  10.369 -0.0813  0.2673 -0.1289
33181ION     NA48990   8.398  12.950  12.882  0.0093 -0.0775  0.2066
33182ION     NA48991   4.048   9.704  10.575  0.0473  0.3572 -0.0466
33183ION     NA48992  11.302  14.092   0.178  0.0239  0.2829  0.0196
33184ION     NA48993   6.443  17.285  14.850  0.0982 -0.0539 -0.0568
33185ION     NA48994  15.251   7.141   9.923 -0.0368  0.0959  0.1785
33186ION     NA48995   8.591   9.993  10.351 -0.1815 -0.1444  0.0264
33187ION     NA48996   8.403  12.498  10.016 -0.1187  0.3412  0.0178
33188ION     NA48997   9.047   4.984  14.647  0.1301 -0.0613  0.0775
33189ION     NA48998  12.238   7.560  13.207 -0.0893  0.0624 -0.1369
33190ION     NA48999   9.327   8.150  10.373  0.0112  0.0755 -0.1252
33191ION     NA49000  11.080  15.054   5.425 -0.1050 -0.0250 -0.0351
33192ION     NA49001  13.040   6.525   9.951  0.2743 -0.0554  0.2163
33193ION     NA49002  10.121  13.714   9.723 -0.0585 -0.2046 -0.1099
33194ION     NA49003   6.600   3.315   5.765 -0.0822 -0.1333  0.2032
33195ION     NA49004   5.183  16.455  14.323 -0.1326  0.0676 -0.1217
33196ION     NA49005   0.764   0.962  13.574  0.1550 -0.0580  0.5556
33197ION     NA49006  15.820   6.343   9.887  0.2953  0.2157  0.1365
33198ION     NA49007  10.590   5.686  14.371 -0.5163 -0.1973  0.1573
33199ION     NA49008   6.978  17.928  10.677  0.1520  0.1896  0.4290
33200ION     NA49009  17.326   1.187   9.723  0.2371 -0.0060 -0.1472
33201ION     NA49010   6.816   6.889   3.053 -0.0071 -0.2911  0.0655
33202ION     NA49011   2.395  17.381  10.189 -0.0263 -0.0388  0.1813
33203ION     NA49012  11.660   2.355  10.238 -0.2099  0.2636  0.0773
33204ION     NA49013  17.229  13.627  12.110 -0.0075 -0.2037 -0.0203
33205ION     NA49014  15.788   1.353   5.193  0.0024  0.1744  0.0235
33206ION     NA49015   1.230   5.130  10.494  0.0644  0.0428  0.1398
33207ION     NA49016   9.343  12.240   9.973 -0.0353 -0.1160  0.1631
33208ION     NA49017  10.207  13.920   4.992 -0.0036 -0.0955  0.0923
33209ION     NA49018  17.863  17.842   3.608  0.2099  0.1535  0.0388
33210ION     NA49019   5.111   6.008  10.292 -0.1085 -0.2460  0.1804
33211ION     NA49020   2.707   7.873  10.514  0.1792  0.1202  0.1409
33212ION     NA49021   9.475   7.114   1.705  0.0224 -0.2500  0.1966
33213ION     NA49022   9.936   3.842  10.816  0.1487  0.1684  0.1456
33214ION     NA49023  11.597  12.061   9.911 -0.3125  0.0293 -0.2687
33215ION     NA49024   9.864  12.992   5.161 -0.0779  0.3256 -0.0590
33216ION     NA49025   5.361  11.506  10.601  0.2773  0.1343 -0.0812
33217ION     NA49026   4.558   7.091  10.734  0.0800 -0.0771  0.0773
33218ION     NA49027  17.864   4.537   5.618 -0.3617 -0.1050 -0.1533
33219ION     NA49028  14.933   5.398  13.755  0.1422 -0.2251  0.2395
33220ION     NA49029  10.955  12.616  10.936 -0.3346  0.2262  0.0317
33221ION     NA49030  12.903   8.006   2.084 -0.4184 -0.4120 -0.2510
33222ION     NA49031  13.372  11.083  10.011 -0.0354 -0.0456  0.0922
33223ION     NA49032   6.064  16.216   0.292 -0.1940  0.2355  0.1331
33224ION     NA49033  11.400  14.507   9.655  0.0887 -0.3715  0.1971
33225ION     NA49034   6.433   4.900  10.236 -0.1190 -0.0325  0.1293
33226ION     NA49035   6.922   6.333   5.798 -0.1620 -0.2953 -0.1406
33227ION     NA49036   6.042   6.214  10.523 -0.0916  0.0291  0.1251
33228ION     NA49037  10.691   4.518  10.002  0.0084  0.1767 -0.0371
33229ION     NA49038   4.080   3.474   5.075  0.0549 -0.3264  0.1688
33230ION     NA49039  12.367   4.672  10.101  0.0338 -0.0635  0.0748
33231ION     NA49040  13.853  14.871  13.250 -0.1495 -0.2277 -0.1327
33232ION     NA49041  12.106   3.356  10.094 -0.1011 -0.1631 -0.0747
33233ION     NA49042   7.304  10.773   2.621 -0.0408 -0.0368  0.0771
33234ION     NA49043   3.800   2.451  14.061  0.5198 -0.2019  0.3119
33235ION     NA49044  11.311  10.748   5.877  0.0414  0.1076  0.3344
33236ION     NA49045  11.921  11.006   2.275 -0.2582 -0.0260 -0.3009
33237ION     NA49046  10.987  17.467   9.798  0.1382  0.2561 -0.3418
33238ION     NA49047   0.783  12.793   9.992 -0.1701 -0.1581 -0.0610
33239ION     NA49048  16.095  12.468  10.072 -0.0281 -0.0426  0.0746
33240ION     NA49049  11.702   5.935   9.848  0.0520 -0.0970  0.2626
33241ION     NA49050   6.803  16.765  10.053 -0.1686  0.0602  0.1050
33242ION     NA49051  15.030   3.770   9.967 -0.2251  0.2657 -0.0464
33243ION     NA49052   2.433  17.700   1.965  0.0105  0.0881  0.1194
33244ION     NA49053  11.520   9.809   9.963  0.1784 -0.1215 -0.1642
33245ION     NA49054  18.280   2.955   5.343  0.2279 -0.2248  0.0395
33246ION     NA49055   0.439   1.160  12.255  0.1344  0.1185 -0.2364
33247ION     NA49056  18.475   2.910   0.189  0.1651 -0.0294  0.0587
33248ION     NA49057   0.932   7.311   6.139  0.1277  0.1175 -0.3669
33249ION     NA49058  10.520   2.681  12.467 -0.1799  0.0656  0.0316
33250ION     NA49059   0.850  10.377   5.627  0.0576  0.3146 -0.0376
33251ION     NA49060   7.040  11.271   4.130  0.4262  0.2916 -0.0155
33252ION     NA49061   3.355  11.907  10.421  0.1309  0.1414 -0.0794
33253ION     NA49062   8.767  15.241  10.185 -0.1867  0.0159  0.0186
33254ION     NA49063  16.160  10.497   6.112  0.4052 -0.1648  0.0625
33255ION     NA49064  14.785  15.462   9.386  0.0520 -0.0746  0.0866
33256ION     NA49065  15.488  17.329   9.540 -0.1245 -0.2334  0.2019
33257ION     NA49066   4.574  14.882   5.030  0.1482  0.0746  0.1549
33258ION     NA49067   8.588  17.256   5.667  0.0938  0.2217  0.1212
33259ION     NA49068  12.424  16.727   3.391 -0.0816  0.2547 -0.0985
33260ION     NA49069   6.843   0.914   5.393 -0.1219 -0.2548 -0.1544
33261ION     NA49070   2.947  13.746  10.090 -0.3740  0.1285 -0.1076
33262ION     NA49071   9.371  16.197   9.727  0.2429  0.0958 -0.2001
33263ION     NA49072  10.588  10.058   9.961  0.0685  0.5559  0.0498
33264ION     NA49073   3.991  15.743  10.300 -0.2271  0.2140  0.2204
33265ION     NA49074  17.704   5.979  10.418  0.2164  0.3179  0.1124
33266ION     NA49075  16.999  16.021   3.222  0.0410 -0.0356 -0.2579
33267ION     NA49076  13.088   9.188  10.115 -0.0720 -0.1564 -0.1717
33268ION     NA49077  10.124   1.659   5.590  0.3005 -0.0867 -0.0462
33269ION     NA49078  13.001   3.034  10.045 -0.3715 -0.0743  0.1166
33270ION     NA49079   9.858  10.244  10.279  0.0883 -0.0707 -0.1656
33271ION     NA49080  13.627   4.996   5.804 -0.2686  0.2134 -0.0298
33272ION     NA49081  16.269   2.740   9.982 -0.3554  0.0818  0.0771
33273ION     NA49082   4.934   1.842   5.318 -0.1172  0.3657  0.1052
33274ION     NA49083  10.377  17.036   4.725  0.0852 -0.3224  0.1728
33275ION     NA49084  12.401  16.151   9.689 -0.1981  0.0662  0.1356
33276ION     NA49085   5.158   1.786  10.044 -0.0663  0.1209  0.0058
33277ION     NA49086  12.245  15.004  11.578 -0.1529 -0.1498  0.0485
33278ION     NA49087   5.526   5.300   3.083 -0.3447  0.1226 -0.0293
33279ION     NA49088  10.905  11.563  13.164 -0.0466 -0.0148 -0.0993
33280ION     NA49089  17.945   3.703  12.592 -0.0948 -0.3422  0.2850
33281ION     NA49090   7.343   5.015  10.264 -0.0375 -0.0735  0.2206
33282ION     NA49091   6.555  11.675   4.816 -0.1326  0.1659  0.0271
33283ION     NA49092  11.674  13.533   9.464 -0.0874  0.2414 -0.0802
33284ION     NA49093  16.957  12.607   5.860 -0.1293  0.2159 -0.1780
33285ION     NA49094  17.096   5.071  10.933  0.1107  0.2820  0.2276
33286ION     NA49095   7.448   9.907  11.341 -0.1442 -0.2078  0.0292
33287ION     NA49096  10.971  12.587   9.877  0.0522 -0.1304 -0.0251
33288ION     NA49097  16.630  17.013   4.885  0.1190 -0.0871  0.1714
33289ION     NA49098  13.764  16.931  11.387 -0.0161 -0.0292  0.0074
33290ION     NA49099  15.803   2.146   1.483 -0.1262  0.4373 -0.2765
33291ION     NA49100   0.419  10.070  10.291  0.1182  0.0111  0.1102
33292ION     NA49101  12.226   9.904   2.288 -0.0778 -0.0195  0.3296
33293ION     NA49102   5.113   1.651   3.940  0.0639  0.0848 -0.0106
33294ION     NA49103   0.962  12.268   5.824  0.0664  0.2006  0.4666
33295ION     NA49104   9.321  16.140   5.401  0.1800  0.1335  0.0464
33296ION     NA49105   4.132  12.404  10.269 -0.0253 -0.4922  0.2069
33297ION     NA49106  15.875   2.333   5.009  0.0302 -0.3626  0.1939
33298ION     NA49107   1.601   1.818   5.376  0.1603 -0.5334  0.3181
33299ION     NA49108  15.706  11.229   5.963  0.0183  0.0894 -0.0713
33300ION     NA49109  11.925  14.847   2.251 -0.1107 -0.3070 -0.0899
33301ION     NA49110   4.800  12.308  10.175  0.1759  0.2396  0.0302
33302ION     NA49111  12.086   7.635   1.757 -0.0276  0.3449  0.3962
33303ION     NA49112   4.080   6.628   1.834  0.2180  0.2149 -0.0281
33304ION     NA49113   9.277   1.951   5.681  0.0972 -0.1047  0.0884
33305ION     NA49114   7.734  16.784   9.835 -0.1216 -0.1768  0.0954
33306ION     NA49115   8.602   2.110   9.915 -0.2102  0.0833 -0.0905
33307ION     NA49116   9.937  18.626   9.942  0.0896  0.0056  0.3119
33308ION     NA49117  14.372   4.314   0.516 -0.2724 -0.1005  0.2240
33309ION     NA49118  16.293  17.733   1.451 -0.1316  0.1249  0.1036
33310ION     NA49119  16.917  12.683  10.098 -0.3735  0.0714  0.2549
33311ION     NA49120   8.423   2.600  10.281  0.1650 -0.2131 -0.0875
33312ION     NA49121   0.996  12.566   2.950  0.0826  0.6125 -0.1110
33313ION     NA49122  17.599  13.147   9.778  0.2735  0.0674 -0.0196
33314ION     NA49123   4.270   4.860  10.303 -0.2230  0.0085 -0.1076
33315ION     NA49124  12.493   2.841  10.194 -0.0325 -0.2734 -0.1348
33316ION     NA49125   8.065  13.648  12.528 -0.6682  0.2600 -0.1174
33317ION     NA49126  11.649  15.735   9.959 -0.1777 -0.0757  0.2315
33318ION     NA49127  16.472  10.691  10.344 -0.0954 -0.0847 -0.0227
33319ION     NA49128   8.010   0.973  11.901  0.1238  0.3371 -0.0192
33320ION     NA49129  11.301   5.661  11.167  0.1596  0.1104 -0.2198
33321ION     NA49130  15.984  11.498  10.096  0.1862 -0.0087  0.2465
33322ION     NA49131  13.782   2.531  13.803 -0.0273  0.1930  0.0821
33323ION     NA49132  18.622  15.092   0.652 -0.1203 -0.1241 -0.0248
33324ION     NA49133   3.556  12.389  10.220  0.1415 -0.0429  0.0432
33325ION     NA49134   9.146   7.224  10.143  0.3236  0.0298  0.0814
33326ION     NA49135   9.881  11.397   9.858 -0.0653 -0.0676  0.0393
33327ION     NA49136   7.132  14.129  10.192 -0.3096  0.2039 -0.1256
33328ION     NA49137  15.432  14.966   9.690 -0.1989 -0.0898 -0.0213
33329ION     NA49138   9.255  18.257  10.779 -0.2950  0.1914  0.1088
33330ION     NA49139  17.767  17.941  12.589  0.0965  0.2472  0.2793
33331ION     NA49140   0.853   1.558   9.690  0.3391 -0.0790  0.2229
33332ION     NA49141  18.327  16.120   9.711 -0.0511 -0.0965  0.0461
33333ION     NA49142  12.973  16.734   9.481 -0.1533  0.4785 -0.1567
33334ION     NA49143   9.216   0.640   9.977 -0.1409  0.1428 -0.1893
33335ION     NA49144   0.672  15.859   9.989  0.0237  0.1698 -0.2037
33336ION     NA49145   9.630  14.254   4.727 -0.1537 -0.0837  0.0932
33337ION     NA49146  12.447   7.268   9.967 -0.5330  0.0966 -0.2155
33338ION     NA49147   2.126  13.953  10.137 -0.1584  0.0238 -0.0703
33339ION     NA49148   5.873  14.221  11.968  0.0887 -0.0447 -0.0492
33340ION     NA49149  17.414  16.571   9.620  0.1650 -0.1104  0.0079
33341ION     NA49150   0.014   5.763  10.412 -0.0665 -0.1195 -0.2000
33342ION     NA49151   1.875  15.022  10.044  0.2437 -0.3035 -0.3008
33343ION     NA49152   5.056  13.761   5.386  0.1889 -0.4816 -0.0236
33344ION     NA49153  14.017  12.542  10.608 -0.0014  0.0871  0.0978
33345ION     NA49154   8.875  11.506  10.031 -0.2155 -0.1122  0.3262
33346ION     NA49155  13.293  15.655   9.340 -0.0852 -0.2287 -0.1504
33347ION     NA49156   3.278   4.908  10.283  0.0774  0.0666 -0.2231
33348ION     NA49157   3.203   9.269  10.639 -0.0306 -0.2536 -0.2190
33349ION     NA49158   6.729  11.188  10.204  0.0187  0.1030  0.0843
33350ION     NA49159  14.318  10.848  10.054  0.1610  0.0399  0.1737
33351ION     NA49160  12.225   4.761   5.344  0.2174 -0.1671  0.2564
33352ION     NA49161   2.335   9.521  10.568 -0.0502  0.0957 -0.2226
33353ION     NA49162  10.101   7.512  10.477 -0.0744  0.2304 -0.2047
33354ION     NA49163  15.134   2.502   0.126 -0.0216 -0.0003  0.3395
33355ION     NA49164  11.491  13.231   5.229 -0.1425 -0.5560 -0.1787
33356ION     NA49165   6.881  17.462   5.056  0.2723  0.0187 -0.1806
33357ION     NA49166  11.387   3.004  10.933  0.0966  0.1867 -0.1007
33358ION     NA49167  11.344  15.526   5.500 -0.0109 -0.1620 -0.0993
33359ION     NA49168   2.586   1.828   9.650  0.1796 -0.1557  0.1279
33360ION     NA49169  11.443   4.307  10.535 -0.0873 -0.0330  0.2382
33361ION     NA49170   6.422   1.026   0.300 -0.1230  0.4529  0.0416
33362ION     NA49171  16.519   4.154   9.872  0.0031 -0.1986  0.1773
33363ION     NA49172   6.592   0.356  10.367  0.0563 -0.0148 -0.0187
33364ION     NA49173   9.298  13.981   9.917  0.1397  0.4799 -0.4493
33365ION     NA49174   2.544  15.246  15.104 -0.0331  0.3171  0.2320
33366ION     NA49175  13.785   7.883  10.130 -0.0498 -0.0191  0.3814
33367ION     NA49176  17.885   6.810  10.347  0.1408  0.0952 -0.0525
33368ION     NA49177   9.165   5.596  10.309  0.0142 -0.0676  0.1999
33369ION     NA49178  18.066  10.070  10.136 -0.0935 -0.1714 -0.0275
33370ION     NA49179  17.208  16.650   1.954 -0.0723 -0.3416  0.0894
33371ION     NA49180   4.765  14.099  15.052  0.1266 -0.0093 -0.1722
33372ION     NA49181   7.254  12.311  15.295  0.2043  0.3373 -0.3423
33373ION     NA49182  18.572   8.307  10.450 -0.3910 -0.1022  0.0466
33374ION     NA49183   0.436   0.833   9.815  0.0421  0.0413 -0.0510
33375ION     NA49184   1.296   5.743   6.142 -0.3024  0.0286  0.2137
33376ION     NA49185  12.196   1.042  10.031  0.0370 -0.1857  0.0915
33377ION     NA49186  17.034   9.901  10.188  0.1272  0.3519  0.0610
33378ION     NA49187   5.956   1.103  10.098 -0.1193  0.1725  0.0731
33379ION     NA49188   3.921   5.491   3.438  0.1488  0.1449  0.2282
33380ION     NA49189  14.222  18.261   9.614  0.1088 -0.1503 -0.3138
33381ION     NA49190  12.342  14.360   9.496 -0.0010 -0.0940  0.1566
33382ION     NA49191  10.875   6.204  10.130 -0.0310 -0.1745 -0.0639
33383ION     NA49192  15.837   3.748   9.869  0.0362 -0.1549  0.0910
33384ION     NA49193   9.387  17.801   9.911  0.0785 -0.1045 -0.2750
33385ION     NA49194   5.018   2.539  10.023 -0.3153 -0.1246 -0.0330
33386ION     NA49195  12.127   6.530   9.934 -0.3641  0.2760  0.1613
33387ION     NA49196   9.463  14.468   0.512  0.1500  0.2040  0.0593
33388ION     NA49197  11.325  18.485   9.597  0.2825  0.0901 -0.1175
33389ION     NA49198   2.682  16.596   9.799 -0.0003 -0.3891 -0.0337
33390ION     NA49199   1.390  18.205   5.928 -0.2244 -0.4241 -0.1778
33391ION     NA49200  17.206   5.349  10.054  0.1607 -0.2277  0.0985
33392ION     NA49201   0.536  12.405  11.953  0.1446 -0.3267 -0.1153
33393ION     NA49202   3.281   3.078  10.095 -0.4882  0.1092 -0.0471
33394ION     NA49203   3.484   5.324  15.415  0.1838 -0.2187  0.0921
33395ION     NA49204   6.403  12.922  10.056  0.0055 -0.0432 -0.0134
33396ION     NA49205   4.597  17.400   0.483  0.3272 -0.0259  0.3121
33397ION     NA49206   7.672   8.716   5.774 -0.1847 -0.1960 -0.1896
33398ION     NA49207  14.173  15.241   4.075 -0.0311  0.0064  0.0902
  18.66413  18.66413  15.75057
