INSANE! Membrane UpperLeaflet>loPI:POPI:DPPI:PYPI:ERGO=140.0:15.0:9.0:6.0:30.0 LowerLeaflet>PSPI:POPI:POPS:YOPS:POPE:YOPE:POPC:YOPC:ERGO=6.0:14.0:21.0:9.0:9.0:21.0:12.0:48.0:60.0
49207
    1loPI    C1    1   3.083   5.974   9.905  0.1878  0.2990 -0.2186
    1loPI    C2    2   3.475   5.915   9.854  0.1877 -0.0840  0.1731
    1loPI    C3    3   3.339   6.073  10.195 -0.0192 -0.2196  0.1553
    1loPI   PO4    4   3.004   6.063   9.718  0.1010  0.1673  0.0096
    1loPI   GL1    5   2.904   5.840   9.366 -0.1275 -0.1286 -0.1875
    1loPI   GL2    6   2.728   6.132   9.291  0.0631  0.1676 -0.2630
    1loPI   C1A    7   2.755   5.638   8.956 -0.1198  0.0571  0.0168
    1loPI   C2A    8   2.524   5.471   8.638 -0.1218 -0.1258 -0.0999
    1loPI   C3A    9   2.316   5.389   8.211  0.0585  0.0808  0.0706
    1loPI   C4A   10   2.131   5.323   7.730  0.1951  0.0949 -0.1768
    1loPI   C5A   11   2.312   5.288   7.302 -0.1508  0.3002  0.0374
    1loPI   C6A   12   2.245   5.300   6.837  0.5333 -0.3087  0.2382
    1loPI   C1B   13   2.847   6.157   8.837 -0.0162 -0.0936  0.0996
    1loPI   C2B   14   3.024   6.267   8.498 -0.1051  0.0406  0.2726
    1loPI   C3B   15   3.159   6.291   8.039  0.0431  0.3638 -0.0107
    1loPI   C4B   16   3.458   6.412   7.887 -0.0183 -0.0574 -0.0680
    2loPI    C1   17  10.352  10.867  10.533 -0.0838 -0.0770  0.1041
    2loPI    C2   18  10.085  11.148  10.629  0.2507  0.3080 -0.0609
    2loPI    C3   19  10.458  11.171  10.770  0.1801 -0.2806  0.2527
    2loPI   PO4   20  10.223  10.768  10.211  0.0473 -0.1058  0.0240
    2loPI   GL1   21  10.391  11.046   9.835 -0.2140  0.1149 -0.0412
    2loPI   GL2   22  10.205  11.401   9.743 -0.0058 -0.1391 -0.2348
    2loPI   C1A   23  10.373  11.107   9.358  0.2749  0.1375 -0.3926
    2loPI   C2A   24  10.651  11.117   8.939 -0.0032  0.1263 -0.0883
    2loPI   C3A   25  10.815  11.130   8.510 -0.2195  0.0435 -0.0632
    2loPI   C4A   26  11.216  10.914   8.289  0.0114  0.3200  0.0632
    2loPI   C5A   27  11.331  10.785   7.934 -0.1003 -0.2067 -0.1325
    2loPI   C6A   28  11.497  10.454   7.695  0.0585  0.2069  0.2044
    2loPI   C1B   29  10.270  11.615   9.220  0.2769  0.3448  0.2200
    2loPI   C2B   30  10.370  11.594   8.743 -0.3116  0.0957 -0.4490
    2loPI   C3B   31  10.292  11.593   8.367 -0.1407 -0.0896 -0.0921
    2loPI   C4B   32  10.183  11.697   7.920  0.1805 -0.3958 -0.1088
    3loPI    C1   33   4.001  14.187   9.773  0.1445  0.4388 -0.0761
    3loPI    C2   34   3.781  14.336  10.072 -0.0196 -0.0034  0.0321
    3loPI    C3   35   4.179  14.316  10.108 -0.0254  0.0884  0.1560
    3loPI   PO4   36   3.779  14.018   9.634 -0.3517  0.1661  0.0380
    3loPI   GL1   37   3.834  13.682   9.268  0.2444 -0.2317  0.2055
    3loPI   GL2   38   3.823  13.370   9.363  0.1903 -0.4137  0.0023
    3loPI   C1A   39   3.686  13.809   8.863 -0.0853  0.3009 -0.0200
    3loPI   C2A   40   3.733  13.890   8.426  0.0685  0.0630 -0.2384
    3loPI   C3A   41   3.846  14.060   7.949  0.2847  0.1316 -0.0950
    3loPI   C4A   42   3.911  14.086   7.560  0.1409  0.0761 -0.1676
    3loPI   C5A   43   3.637  14.019   7.293 -0.0529  0.2674  0.2469
    3loPI   C6A   44   3.431  13.643   7.002 -0.0147 -0.3077 -0.2541
    3loPI   C1B   45   3.916  13.379   8.899  0.1999  0.0905 -0.1147
    3loPI   C2B   46   4.018  13.322   8.455  0.1337  0.2160  0.2192
    3loPI   C3B   47   4.320  13.235   8.103  0.1693 -0.0149  0.2093
    3loPI   C4B   48   4.587  13.301   7.710  0.1710  0.2496 -0.1487
    4loPI    C1   49  12.239   9.541  10.231  0.0341  0.1206 -0.1175
    4loPI    C2   50  12.304   9.253   9.961  0.0336  0.0192 -0.0104
    4loPI    C3   51  12.521   9.265  10.296 -0.1418 -0.0099  0.1056
    4loPI   PO4   52  12.176   9.744   9.999  0.3104 -0.1025 -0.0636
    4loPI   GL1   53  12.266   9.819   9.518 -0.1558 -0.2450  0.1097
    4loPI   GL2   54  12.339   9.537   9.523  0.1290  0.1185 -0.0600
    4loPI   C1A   55  12.248   9.915   9.103 -0.1850  0.4444  0.0634
    4loPI   C2A   56  12.049   9.944   8.759 -0.3689 -0.0647 -0.0565
    4loPI   C3A   57  12.111   9.993   8.286 -0.0093 -0.1503 -0.0038
    4loPI   C4A   58  12.068   9.824   7.879 -0.2083 -0.2254 -0.2005
    4loPI   C5A   59  12.093   9.435   7.650  0.2195 -0.0922  0.0927
    4loPI   C6A   60  12.267   9.026   7.668  0.0601 -0.2290 -0.1368
    4loPI   C1B   61  12.505   9.520   9.160 -0.5302  0.1140  0.0262
    4loPI   C2B   62  12.393   9.620   8.755 -0.0879  0.0793 -0.1043
    4loPI   C3B   63  12.387   9.594   8.341  0.2347  0.1634  0.1362
    4loPI   C4B   64  12.509   9.451   7.884  0.0726 -0.1609  0.0060
    5loPI    C1   65   7.107   7.311   9.938 -0.1493 -0.0806 -0.1785
    5loPI    C2   66   6.733   7.231  10.056 -0.3061  0.3524 -0.3614
    5loPI    C3   67   6.939   7.528  10.228  0.1145 -0.1426  0.0247
    5loPI   PO4   68   7.029   7.227   9.614  0.1437 -0.1774 -0.3294
    5loPI   GL1   69   6.849   7.398   9.260 -0.3099 -0.1311  0.2506
    5loPI   GL2   70   6.563   7.574   9.240 -0.0057  0.1033 -0.3893
    5loPI   C1A   71   6.927   7.454   8.914 -0.4417  0.0451 -0.1980
    5loPI   C2A   72   7.019   7.511   8.450  0.3801  0.4539  0.0215
    5loPI   C3A   73   7.335   7.627   8.188 -0.0220 -0.2571  0.2613
    5loPI   C4A   74   7.653   7.479   7.859 -0.0789 -0.0062 -0.1389
    5loPI   C5A   75   7.793   7.472   7.450 -0.0891  0.2728 -0.1066
    5loPI   C6A   76   7.579   7.519   7.125 -0.3312  0.0303 -0.0457
    5loPI   C1B   77   6.450   7.580   8.808  0.2492  0.2886  0.1255
    5loPI   C2B   78   6.504   7.591   8.382 -0.2670  0.0656 -0.2027
    5loPI   C3B   79   6.725   7.328   8.022 -0.0070  0.1057  0.0762
    5loPI   C4B   80   6.897   7.148   7.652 -0.0364 -0.2400 -0.0949
    6loPI    C1   81  10.743  17.571   9.714  0.0407  0.1389 -0.0586
    6loPI    C2   82  10.675  17.868   9.972  0.1946  0.2268 -0.1177
    6loPI    C3   83  11.003  17.642  10.010  0.0001 -0.0373  0.0205
    6loPI   PO4   84  10.581  17.617   9.571 -0.1726  0.0800  0.0271
    6loPI   GL1   85  10.589  17.393   9.241 -0.1490 -0.1904  0.0017
    6loPI   GL2   86  10.810  17.615   9.004  0.0798 -0.0721  0.0340
    6loPI   C1A   87  10.447  17.347   8.837 -0.0408  0.0445  0.2404
    6loPI   C2A   88  10.421  17.244   8.375 -0.0384  0.3131 -0.0867
    6loPI   C3A   89  10.539  17.360   8.006 -0.0562 -0.0071  0.0981
    6loPI   C4A   90  10.710  17.447   7.679 -0.0406 -0.1158 -0.1866
    6loPI   C5A   91  10.625  17.707   7.360  0.1723 -0.0298 -0.2381
    6loPI   C6A   92  10.523  17.812   6.920 -0.1515  0.1590 -0.0855
    6loPI   C1B   93  10.754  17.622   8.544  0.2168  0.0536  0.0903
    6loPI   C2B   94  10.841  17.734   8.164 -0.0265 -0.0835 -0.1816
    6loPI   C3B   95  10.598  17.971   7.810  0.0025 -0.0062 -0.0134
    6loPI   C4B   96  10.285  18.206   7.883  0.2151 -0.1288  0.2305
    7loPI    C1   97   3.292  13.994   9.854 -0.2229 -0.0412 -0.0479
    7loPI    C2   98   3.078  14.002  10.192 -0.1003 -0.1114  0.0320
    7loPI    C3   99   3.278  13.671  10.090  0.0115 -0.0298 -0.0160
    7loPI   PO4  100   3.108  14.060   9.586 -0.0623 -0.1036  0.2055
    7loPI   GL1  101   3.175  14.140   9.262 -0.1554 -0.3970  0.0988
    7loPI   GL2  102   3.438  14.073   9.151  0.0588  0.1137 -0.0413
    7loPI   C1A  103   2.799  14.041   8.964 -0.1946  0.1213  0.1593
    7loPI   C2A  104   2.660  14.018   8.535 -0.1866  0.1264  0.0486
    7loPI   C3A  105   2.617  14.174   8.145  0.3071  0.1572 -0.1631
    7loPI   C4A  106   2.438  13.949   7.761 -0.2063  0.0185 -0.1867
    7loPI   C5A  107   2.115  13.671   7.534 -0.0532  0.0147 -0.1772
    7loPI   C6A  108   1.774  13.477   7.388  0.1608 -0.1789 -0.3305
    7loPI   C1B  109   3.474  14.240   8.743 -0.0716 -0.1508  0.1413
    7loPI   C2B  110   3.486  14.304   8.418 -0.0239 -0.2171  0.2087
    7loPI   C3B  111   3.492  14.461   8.010 -0.0959  0.1301  0.3374
    7loPI   C4B  112   3.431  14.396   7.628  0.0836 -0.3050  0.0031
    8loPI    C1  113   4.450  18.508   9.863  0.0682 -0.0274  0.2060
    8loPI    C2  114   4.789  18.709   9.799 -0.0484  0.1490  0.1321
    8loPI    C3  115   4.802  18.323   9.905  0.1724  0.1369  0.0673
    8loPI   PO4  116   4.288  18.684   9.646 -0.3327  0.0809  0.0208
    8loPI   GL1  117   4.302  18.787   9.242  0.1739  0.0107  0.3296
    8loPI   GL2  118   4.044  19.100   9.209  0.2397 -0.0532  0.1260
    8loPI   C1A  119   4.399  18.904   8.908 -0.0904  0.3828  0.1186
    8loPI   C2A  120   4.343  18.989   8.438 -0.1704  0.1315 -0.0641
    8loPI   C3A  121   4.484  19.183   8.083  0.0826  0.2656 -0.1048
    8loPI   C4A  122   4.569  19.268   7.702 -0.1283  0.1678  0.1527
    8loPI   C5A  123   4.514  19.089   7.354 -0.1796 -0.0032  0.0732
    8loPI   C6A  124   4.181  18.885   7.187 -0.0782  0.3679  0.1595
    8loPI   C1B  125   4.061  19.326   8.764  0.0981 -0.1712  0.1008
    8loPI   C2B  126   4.051  19.390   8.302 -0.1316  0.3941  0.1016
    8loPI   C3B  127   4.055  19.514   7.886 -0.3376  0.0020  0.2198
    8loPI   C4B  128   4.084  19.904   7.630 -0.0379 -0.2612  0.1889
    9loPI    C1  129   2.131   8.248  10.030 -0.0225  0.1301  0.1417
    9loPI    C2  130   2.115   8.644  10.084 -0.0323  0.1296  0.1417
    9loPI    C3  131   1.873   8.403  10.293 -0.1380  0.1350  0.0268
    9loPI   PO4  132   2.065   8.219   9.797  0.1967  0.1749  0.0889
    9loPI   GL1  133   1.918   8.338   9.373  0.1269 -0.1324 -0.1695
    9loPI   GL2  134   1.724   8.097   9.245 -0.0718  0.1239 -0.0179
    9loPI   C1A  135   2.211   8.220   9.090 -0.1746  0.2325 -0.1106
    9loPI   C2A  136   2.464   7.992   8.824  0.2643 -0.1237  0.1919
    9loPI   C3A  137   2.417   8.143   8.422  0.1481  0.2325 -0.1131
    9loPI   C4A  138   2.308   8.066   8.094 -0.2296  0.1336  0.0277
    9loPI   C5A  139   2.258   8.182   7.782 -0.1162 -0.2101 -0.2386
    9loPI   C6A  140   1.951   8.023   7.484  0.2214 -0.2669  0.1135
    9loPI   C1B  141   1.700   8.203   8.839 -0.0405 -0.1318  0.0066
    9loPI   C2B  142   1.660   8.296   8.524  0.4350  0.0305  0.2206
    9loPI   C3B  143   1.396   8.206   8.268  0.0768  0.1566  0.0617
    9loPI   C4B  144   1.441   8.015   7.792 -0.3600  0.0856  0.0806
   10loPI    C1  145   7.470  14.054  10.168  0.3953  0.1577 -0.0665
   10loPI    C2  146   7.336  13.960  10.532  0.0112  0.0623 -0.2276
   10loPI    C3  147   7.686  14.149  10.491  0.2086 -0.2013  0.1705
   10loPI   PO4  148   7.330  13.928  10.010 -0.0294  0.0408  0.1006
   10loPI   GL1  149   7.552  14.005   9.564  0.2979 -0.1614 -0.3451
   10loPI   GL2  150   7.206  13.737   9.487  0.4149 -0.0080 -0.4101
   10loPI   C1A  151   7.709  13.693   9.247  0.1323  0.1599 -0.0702
   10loPI   C2A  152   8.089  13.600   9.017 -0.0173 -0.2496  0.3646
   10loPI   C3A  153   8.272  13.614   8.586  0.4648 -0.0434 -0.1558
   10loPI   C4A  154   8.443  13.277   8.324 -0.3702  0.3536 -0.1523
   10loPI   C5A  155   8.744  13.456   8.022 -0.1887  0.3474 -0.1091
   10loPI   C6A  156   8.726  13.600   7.514  0.2171  0.2394  0.0772
   10loPI   C1B  157   7.224  13.826   8.966  0.3722  0.1953 -0.0071
   10loPI   C2B  158   7.230  13.781   8.456  0.0963  0.0916 -0.2847
   10loPI   C3B  159   7.304  13.731   7.948  0.2608  0.1533 -0.1676
   10loPI   C4B  160   7.057  13.631   7.531  0.0090  0.1577 -0.0107
   11loPI    C1  161   5.396   3.383  10.285 -0.0342 -0.3740  0.0717
   11loPI    C2  162   5.762   3.518  10.197 -0.0708 -0.0191  0.4367
   11loPI    C3  163   5.718   3.160  10.368  0.0673 -0.2677 -0.0308
   11loPI   PO4  164   5.323   3.378  10.003  0.0661 -0.0600 -0.0180
   11loPI   GL1  165   5.319   3.506   9.696  0.1171  0.1016 -0.3006
   11loPI   GL2  166   5.614   3.616   9.710 -0.0362  0.0670 -0.2531
   11loPI   C1A  167   5.151   3.247   9.270 -0.3874  0.4199  0.1067
   11loPI   C2A  168   5.271   3.282   8.904 -0.1044 -0.0851  0.0593
   11loPI   C3A  169   5.285   3.272   8.469 -0.1405  0.0711  0.0288
   11loPI   C4A  170   5.387   3.200   8.011 -0.2797 -0.0876 -0.0887
   11loPI   C5A  171   5.395   3.257   7.562  0.0207  0.1444 -0.1023
   11loPI   C6A  172   5.454   2.888   7.358  0.2127 -0.1574  0.1202
   11loPI   C1B  173   5.652   3.524   9.264  0.0661  0.2434  0.0962
   11loPI   C2B  174   5.753   3.480   8.773 -0.0575  0.0048 -0.2331
   11loPI   C3B  175   5.877   3.426   8.287 -0.0760 -0.1414  0.1272
   11loPI   C4B  176   5.907   3.507   7.857  0.1995 -0.2405 -0.0486
   12loPI    C1  177  16.884   2.991   9.904 -0.0028  0.0026 -0.2260
   12loPI    C2  178  16.524   3.108   9.773 -0.1115  0.0225  0.0838
   12loPI    C3  179  16.584   3.039  10.163  0.2462  0.1091  0.0483
   12loPI   PO4  180  17.062   3.060   9.729 -0.0323  0.3776  0.2926
   12loPI   GL1  181  17.164   2.897   9.375  0.1495 -0.0158  0.0007
   12loPI   GL2  182  17.064   2.500   9.308 -0.4956 -0.0653 -0.2072
   12loPI   C1A  183  16.987   2.913   9.022 -0.2320 -0.0036  0.3632
   12loPI   C2A  184  17.037   2.938   8.652  0.0358 -0.2255  0.3227
   12loPI   C3A  185  16.973   3.167   8.271  0.0645 -0.0739 -0.4932
   12loPI   C4A  186  16.604   3.296   8.036 -0.1412 -0.3834 -0.0523
   12loPI   C5A  187  16.270   3.051   7.805  0.1640 -0.0250 -0.5070
   12loPI   C6A  188  15.982   3.066   7.717  0.0542 -0.1829 -0.3556
   12loPI   C1B  189  17.447   2.674   8.996 -0.1966  0.1790  0.2414
   12loPI   C2B  190  17.469   2.682   8.562  0.1092 -0.2942 -0.0500
   12loPI   C3B  191  17.673   2.792   8.327  0.1429  0.2029  0.1793
   12loPI   C4B  192  17.879   2.979   7.945  0.2738 -0.0693  0.3224
   13loPI    C1  193   0.754  17.319   9.922 -0.0855  0.0602  0.1013
   13loPI    C2  194   0.558  17.008   9.764 -0.1870  0.1866 -0.0242
   13loPI    C3  195   0.503  17.105  10.148 -0.0231 -0.0545  0.0626
   13loPI   PO4  196   0.769  17.478   9.660  0.2616 -0.1170  0.2752
   13loPI   GL1  197   1.034  17.668   9.370 -0.1510  0.0606  0.0822
   13loPI   GL2  198   1.324  17.782   9.289 -0.4459 -0.2428  0.4698
   13loPI   C1A  199   0.746  17.850   9.063 -0.1334  0.2380  0.0762
   13loPI   C2A  200   0.340  18.049   8.789 -0.0137  0.2375  0.0143
   13loPI   C3A  201   0.162  18.101   8.403 -0.1559 -0.0973 -0.1104
   13loPI   C4A  202   0.143  18.196   8.026 -0.1873  0.6242  0.0780
   13loPI   C5A  203   0.277  17.876   7.689 -0.1081 -0.1534 -0.0676
   13loPI   C6A  204   0.334  17.415   7.510  0.2466  0.1483  0.0014
   13loPI   C1B  205   1.409  17.897   8.872  0.0142  0.0171 -0.0278
   13loPI   C2B  206   1.465  17.894   8.420  0.0655  0.1667 -0.1683
   13loPI   C3B  207   1.575  17.866   7.931 -0.0418 -0.1065 -0.2398
   13loPI   C4B  208   1.651  17.831   7.509  0.0455 -0.1509 -0.1480
   14loPI    C1  209  15.791   4.443  10.318 -0.1220  0.1259 -0.0106
   14loPI    C2  210  15.501   4.168  10.345 -0.0911  0.1026  0.0893
   14loPI    C3  211  15.794   4.177  10.617  0.0146  0.1118 -0.0241
   14loPI   PO4  212  15.858   4.418  10.034  0.0116 -0.0262  0.1481
   14loPI   GL1  213  16.027   4.413   9.782 -0.0580 -0.1142 -0.0490
   14loPI   GL2  214  16.335   4.596   9.757  0.2712 -0.0195 -0.0410
   14loPI   C1A  215  15.681   4.550   9.409  0.1244 -0.0452 -0.0747
   14loPI   C2A  216  15.711   4.625   8.962 -0.1503 -0.1481 -0.0727
   14loPI   C3A  217  15.741   4.621   8.539 -0.0993 -0.0373  0.1048
   14loPI   C4A  218  15.699   4.535   8.140  0.0559 -0.1201  0.4910
   14loPI   C5A  219  16.117   4.598   7.860  0.0613 -0.3241 -0.0970
   14loPI   C6A  220  16.602   4.771   7.855  0.1212 -0.0693  0.1480
   14loPI   C1B  221  16.221   4.624   9.339  0.1693  0.1751 -0.0578
   14loPI   C2B  222  16.351   4.754   8.987  0.0193  0.1542  0.1122
   14loPI   C3B  223  16.524   4.693   8.732 -0.0245  0.1013 -0.0566
   14loPI   C4B  224  16.808   4.672   8.354 -0.2309 -0.0243  0.2029
   15loPI    C1  225   4.005   8.172  10.123 -0.1574 -0.0050 -0.0834
   15loPI    C2  226   4.126   8.387  10.438  0.1863 -0.1310 -0.1257
   15loPI    C3  227   3.760   8.226  10.434  0.1581 -0.0800  0.1835
   15loPI   PO4  228   4.181   8.307   9.884  0.4058 -0.0057 -0.0095
   15loPI   GL1  229   4.083   8.204   9.370  0.1449  0.0487  0.0204
   15loPI   GL2  230   4.395   8.474   9.435  0.1198 -0.1411  0.1221
   15loPI   C1A  231   3.936   8.163   8.963  0.3442 -0.0725  0.0610
   15loPI   C2A  232   3.812   8.362   8.551  0.0812  0.2479 -0.3162
   15loPI   C3A  233   3.879   8.587   8.247 -0.0608 -0.4332  0.2374
   15loPI   C4A  234   3.896   8.636   7.877 -0.3247  0.0764  0.1474
   15loPI   C5A  235   4.080   8.587   7.423  0.0788 -0.0738 -0.0554
   15loPI   C6A  236   3.945   8.897   7.086  0.0756  0.1525  0.1154
   15loPI   C1B  237   4.710   8.435   9.169  0.3836  0.0097  0.0783
   15loPI   C2B  238   4.805   8.226   8.769  0.0195 -0.4771 -0.0592
   15loPI   C3B  239   4.683   8.152   8.291  0.0377 -0.0330 -0.2512
   15loPI   C4B  240   4.575   8.100   7.932  0.2142 -0.0839  0.0066
   16loPI    C1  241  16.132   8.721  10.699  0.1313 -0.2856 -0.1283
   16loPI    C2  242  16.491   8.801  10.856 -0.0025 -0.2463  0.1627
   16loPI    C3  243  16.176   9.031  10.946 -0.0575 -0.1431 -0.2703
   16loPI   PO4  244  16.182   8.540  10.406 -0.1927  0.2305  0.2151
   16loPI   GL1  245  16.038   8.668  10.001 -0.0463  0.2629  0.3534
   16loPI   GL2  246  16.167   8.684   9.774 -0.1874 -0.1021  0.0915
   16loPI   C1A  247  15.653   8.783   9.677  0.2189 -0.3108 -0.0862
   16loPI   C2A  248  15.642   8.804   9.255  0.1882 -0.1860  0.1784
   16loPI   C3A  249  15.684   8.540   8.929 -0.2298 -0.2851 -0.0278
   16loPI   C4A  250  15.750   8.082   8.930 -0.4279  0.3908  0.2985
   16loPI   C5A  251  15.905   8.035   9.329 -0.3065 -0.3236  0.2214
   16loPI   C6A  252  15.886   8.254   9.693 -0.1405 -0.2630 -0.1947
   16loPI   C1B  253  16.122   8.717   9.235 -0.0618 -0.0956  0.0729
   16loPI   C2B  254  16.111   8.800   8.870  0.1782  0.1550 -0.0088
   16loPI   C3B  255  16.033   8.673   8.544 -0.0362  0.1012  0.1085
   16loPI   C4B  256  15.697   8.484   8.201 -0.2213  0.0226 -0.2003
   17loPI    C1  257   8.897  18.904   9.711  0.1337  0.0389 -0.1214
   17loPI    C2  258   9.074  18.829  10.062  0.2247 -0.0247 -0.1803
   17loPI    C3  259   8.770  19.089  10.043 -0.0173 -0.2878  0.0071
   17loPI   PO4  260   8.872  18.673   9.569 -0.0905 -0.2143 -0.2245
   17loPI   GL1  261   9.077  18.445   9.258  0.3113  0.0810  0.1006
   17loPI   GL2  262   9.110  18.719   9.160 -0.0547 -0.2756  0.0130
   17loPI   C1A  263   9.046  18.369   8.828  0.0265 -0.0661  0.1939
   17loPI   C2A  264   9.122  18.411   8.415  0.2091  0.0954 -0.0444
   17loPI   C3A  265   9.094  18.331   7.989  0.1723 -0.0980  0.1816
   17loPI   C4A  266   9.045  18.125   7.577 -0.0928 -0.2693 -0.1969
   17loPI   C5A  267   9.342  18.112   7.270 -0.3270 -0.0566 -0.0685
   17loPI   C6A  268   9.682  18.192   7.470  0.0426 -0.1836  0.1512
   17loPI   C1B  269   9.089  18.935   8.849  0.0265 -0.0860  0.1103
   17loPI   C2B  270   9.126  18.900   8.495 -0.0376  0.2920 -0.1879
   17loPI   C3B  271   9.237  18.765   8.057 -0.2813 -0.1252 -0.0385
   17loPI   C4B  272   9.412  18.553   7.605 -0.2866 -0.2259 -0.2825
   18loPI    C1  273   6.386  12.019  10.082  0.0597 -0.0121  0.0759
   18loPI    C2  274   6.721  12.011  10.301  0.1806 -0.2295 -0.1115
   18loPI    C3  275   6.370  11.914  10.467  0.2049  0.0188  0.0909
   18loPI   PO4  276   6.465  11.981   9.840 -0.4511  0.1132  0.4529
   18loPI   GL1  277   6.584  12.102   9.424 -0.0419  0.2299  0.1637
   18loPI   GL2  278   6.755  12.319   9.142  0.3221  0.1426 -0.1456
   18loPI   C1A  279   6.524  11.841   9.035  0.1432 -0.0043  0.2188
   18loPI   C2A  280   6.575  11.772   8.521 -0.1411  0.3234 -0.3944
   18loPI   C3A  281   6.649  11.700   8.009  0.3660 -0.1883 -0.1817
   18loPI   C4A  282   6.410  11.609   7.614 -0.1017 -0.0309  0.0926
   18loPI   C5A  283   6.291  11.532   7.181 -0.2531  0.2736  0.3553
   18loPI   C6A  284   6.051  11.594   6.725 -0.0791 -0.0956  0.1786
   18loPI   C1B  285   6.859  12.055   8.766  0.1142 -0.3357  0.4037
   18loPI   C2B  286   7.019  11.922   8.358  0.0382  0.0646  0.1235
   18loPI   C3B  287   7.109  11.857   7.936 -0.0068 -0.0824 -0.3404
   18loPI   C4B  288   6.945  12.033   7.594  0.3070  0.0797 -0.1273
   19loPI    C1  289   6.941   0.839  10.216  0.0976  0.0408  0.0740
   19loPI    C2  290   7.011   1.187  10.400  0.1779  0.0384  0.0487
   19loPI    C3  291   7.313   0.934  10.330  0.1357  0.0068 -0.0203
   19loPI   PO4  292   6.904   0.770  10.002  0.0163 -0.0832 -0.3832
   19loPI   GL1  293   6.953   0.879   9.597  0.2288 -0.0398  0.4074
   19loPI   GL2  294   7.015   1.109   9.430  0.0323  0.3122 -0.1025
   19loPI   C1A  295   6.550   0.858   9.263  0.4094 -0.0990  0.1082
   19loPI   C2A  296   6.531   0.791   8.920  0.1495 -0.0690 -0.2948
   19loPI   C3A  297   6.664   0.811   8.544 -0.0698  0.1742  0.1505
   19loPI   C4A  298   6.680   0.818   8.041 -0.1335  0.4708 -0.0358
   19loPI   C5A  299   6.644   0.943   7.578 -0.2327  0.1433 -0.0362
   19loPI   C6A  300   6.510   1.169   7.173 -0.0832  0.1068  0.3490
   19loPI   C1B  301   7.052   0.937   9.061  0.1775  0.2400  0.0635
   19loPI   C2B  302   7.060   1.113   8.601 -0.3801 -0.0234 -0.0609
   19loPI   C3B  303   7.037   1.107   8.167 -0.1298  0.4059  0.0798
   19loPI   C4B  304   7.046   1.151   7.748 -0.1936 -0.1124 -0.0410
   20loPI    C1  305  15.963  16.446  10.372  0.0219 -0.0921  0.0587
   20loPI    C2  306  15.809  16.112  10.214  0.0440 -0.1692  0.1996
   20loPI    C3  307  15.763  16.189  10.604 -0.2859  0.1770  0.0973
   20loPI   PO4  308  15.824  16.698  10.174 -0.0638  0.2911 -0.1683
   20loPI   GL1  309  15.923  16.743   9.812  0.0750  0.3620  0.2603
   20loPI   GL2  310  16.028  16.517   9.504 -0.0359 -0.1765  0.0816
   20loPI   C1A  311  15.671  16.936   9.420 -0.1172 -0.0363  0.1141
   20loPI   C2A  312  15.793  17.151   9.020  0.1508 -0.1970 -0.0943
   20loPI   C3A  313  15.680  17.292   8.607 -0.2047 -0.1771 -0.0829
   20loPI   C4A  314  15.706  17.407   8.128  0.3389  0.0663  0.3374
   20loPI   C5A  315  15.445  17.625   7.733 -0.0893 -0.0116 -0.1178
   20loPI   C6A  316  15.127  17.946   7.629  0.1615 -0.0506 -0.5235
   20loPI   C1B  317  16.062  16.713   9.092  0.0667 -0.0104 -0.0116
   20loPI   C2B  318  16.022  16.428   8.604  0.0560 -0.1583  0.1261
   20loPI   C3B  319  15.828  16.179   8.488  0.0780 -0.2567  0.0456
   20loPI   C4B  320  15.549  16.085   8.653  0.0614 -0.2088 -0.0245
   21loPI    C1  321   9.299  13.539   9.871  0.2477  0.0231  0.1166
   21loPI    C2  322   9.095  13.483  10.210 -0.2317  0.1377 -0.1447
   21loPI    C3  323   9.357  13.783  10.183 -0.2550  0.1820  0.0943
   21loPI   PO4  324   9.154  13.408   9.693 -0.2570 -0.2600 -0.0552
   21loPI   GL1  325   8.901  13.442   9.442 -0.0817  0.0988 -0.2848
   21loPI   GL2  326   8.989  13.740   9.389 -0.2897  0.1861 -0.0881
   21loPI   C1A  327   8.980  13.044   9.101  0.0682  0.1493  0.2045
   21loPI   C2A  328   9.267  13.022   8.770  0.0202  0.0126 -0.0158
   21loPI   C3A  329   9.368  12.926   8.521  0.0459  0.1444 -0.2205
   21loPI   C4A  330   9.291  12.791   8.117 -0.0652  0.1042  0.1597
   21loPI   C5A  331   9.216  13.031   7.813 -0.0456 -0.0052  0.1466
   21loPI   C6A  332   9.175  13.417   7.667 -0.0205  0.4382  0.1564
   21loPI   C1B  333   8.891  13.537   8.981 -0.1771  0.1505  0.0816
   21loPI   C2B  334   8.760  13.567   8.508  0.1253 -0.0301 -0.1696
   21loPI   C3B  335   8.521  13.822   8.231 -0.4132 -0.1598  0.3367
   21loPI   C4B  336   8.618  13.950   7.838  0.2935  0.0347 -0.2395
   22loPI    C1  337  12.567  12.938   9.868 -0.0793  0.4992 -0.2187
   22loPI    C2  338  12.270  13.112  10.073 -0.1581  0.1131  0.0057
   22loPI    C3  339  12.420  12.762  10.196  0.0239  0.0377 -0.4114
   22loPI   PO4  340  12.566  12.919   9.651 -0.1353 -0.0410  0.1678
   22loPI   GL1  341  12.685  12.638   9.432 -0.2359 -0.4855  0.0591
   22loPI   GL2  342  12.955  12.700   9.406  0.0065 -0.2262 -0.0582
   22loPI   C1A  343  12.590  12.905   9.018  0.0862 -0.3599  0.2388
   22loPI   C2A  344  12.513  12.912   8.534 -0.1848  0.0653  0.3760
   22loPI   C3A  345  12.391  12.725   8.181  0.0347 -0.0410  0.0228
   22loPI   C4A  346  11.977  12.683   8.061 -0.0003 -0.3974  0.0526
   22loPI   C5A  347  11.788  12.456   7.864  0.1460  0.0765  0.1457
   22loPI   C6A  348  11.604  12.141   7.792 -0.0393 -0.0964 -0.0307
   22loPI   C1B  349  13.070  12.566   9.036 -0.1521  0.0978  0.1543
   22loPI   C2B  350  12.982  12.713   8.612  0.0551 -0.0241  0.0140
   22loPI   C3B  351  12.976  12.540   8.227  0.1479  0.0163 -0.3165
   22loPI   C4B  352  13.085  12.517   7.770 -0.2517  0.4396  0.1967
   23loPI    C1  353  14.416   2.338   9.914 -0.0619 -0.1852 -0.1315
   23loPI    C2  354  14.699   2.259  10.185 -0.0074  0.2573 -0.0510
   23loPI    C3  355  14.358   2.049  10.185  0.1520 -0.0077  0.1090
   23loPI   PO4  356  14.618   2.556   9.675  0.0795  0.1627 -0.0322
   23loPI   GL1  357  14.919   2.598   9.450  0.2468  0.2618  0.2275
   23loPI   GL2  358  14.958   2.256   9.229  0.3588  0.1262  0.1431
   23loPI   C1A  359  14.858   2.759   8.973  0.3549  0.0952 -0.0586
   23loPI   C2A  360  14.760   2.750   8.557  0.1977 -0.0207  0.1940
   23loPI   C3A  361  14.770   2.878   8.107  0.2736 -0.0852 -0.2683
   23loPI   C4A  362  14.697   2.972   7.656 -0.1382  0.0121 -0.0173
   23loPI   C5A  363  14.874   2.772   7.188  0.1585 -0.1525 -0.2716
   23loPI   C6A  364  14.776   2.858   6.759  0.1636 -0.2169  0.0242
   23loPI   C1B  365  14.627   2.274   8.813  0.1064 -0.0645 -0.0279
   23loPI   C2B  366  14.663   2.254   8.414 -0.0390  0.2167  0.1324
   23loPI   C3B  367  14.681   2.101   7.980 -0.0165  0.0511 -0.1663
   23loPI   C4B  368  14.644   1.682   7.697 -0.4014  0.1028  0.2999
   24loPI    C1  369  17.181   8.826  10.076  0.1326 -0.2545 -0.2147
   24loPI    C2  370  17.377   8.859  10.423 -0.2783 -0.3000  0.0280
   24loPI    C3  371  17.362   9.170  10.172  0.0777 -0.2883  0.0170
   24loPI   PO4  372  16.990   8.636  10.049  0.1667 -0.3394  0.1007
   24loPI   GL1  373  16.899   8.226   9.759 -0.0489 -0.2218 -0.1286
   24loPI   GL2  374  17.152   8.490   9.587  0.2650 -0.3388  0.2584
   24loPI   C1A  375  16.763   8.061   9.358  0.2534  0.1307  0.0355
   24loPI   C2A  376  16.713   8.117   8.873  0.2776 -0.0744 -0.0475
   24loPI   C3A  377  16.774   8.123   8.509  0.0912  0.0590 -0.1019
   24loPI   C4A  378  16.942   8.236   8.096 -0.1119  0.1807  0.1461
   24loPI   C5A  379  16.948   8.201   7.661 -0.0845 -0.2010 -0.0973
   24loPI   C6A  380  16.781   7.888   7.338 -0.2825 -0.1205 -0.3116
   24loPI   C1B  381  17.062   8.453   9.149 -0.1270 -0.2650 -0.0388
   24loPI   C2B  382  16.999   8.489   8.747 -0.0947  0.0656 -0.0654
   24loPI   C3B  383  17.298   8.430   8.432  0.0846 -0.1197 -0.0095
   24loPI   C4B  384  17.380   8.282   7.965 -0.2190  0.0021  0.0537
   25loPI    C1  385   0.661   7.728  10.300  0.1366  0.0994  0.0162
   25loPI    C2  386   0.814   7.396  10.137 -0.1217  0.0630 -0.1586
   25loPI    C3  387   0.973   7.546  10.472  0.0775 -0.1638 -0.1489
   25loPI   PO4  388   0.743   7.943  10.078 -0.0616  0.0235  0.0023
   25loPI   GL1  389   0.753   7.954   9.609 -0.0695 -0.1046 -0.7321
   25loPI   GL2  390   0.809   7.666   9.578 -0.1929  0.0200  0.1305
   25loPI   C1A  391   0.588   8.078   9.260 -0.1410 -0.0009 -0.3703
   25loPI   C2A  392   0.441   7.972   8.922  0.4945  0.0970 -0.0813
   25loPI   C3A  393   0.311   8.034   8.539  0.1092  0.0757  0.0974
   25loPI   C4A  394   0.359   8.072   7.999  0.1127  0.0447 -0.2076
   25loPI   C5A  395   0.277   7.946   7.598  0.1751  0.0227 -0.2469
   25loPI   C6A  396   0.456   8.001   7.140  0.0220 -0.4163 -0.2346
   25loPI   C1B  397   0.778   7.641   9.147  0.1628  0.1489 -0.1271
   25loPI   C2B  398   0.778   7.742   8.708 -0.0968 -0.0218 -0.0952
   25loPI   C3B  399   0.632   7.781   8.327 -0.1217  0.3000 -0.0787
   25loPI   C4B  400   0.519   7.646   7.968  0.0341 -0.1475 -0.0785
   26loPI    C1  401  16.074  10.318  10.315 -0.2005  0.0712  0.1271
   26loPI    C2  402  15.838  10.059  10.121 -0.1197  0.0504  0.0561
   26loPI    C3  403  15.693  10.270  10.429 -0.2259  0.0252  0.0237
   26loPI   PO4  404  16.226  10.441  10.022 -0.1513  0.0407 -0.1587
   26loPI   GL1  405  16.070  10.150   9.669  0.1117 -0.2130  0.1693
   26loPI   GL2  406  16.164  10.280   9.374 -0.2699 -0.3160 -0.0926
   26loPI   C1A  407  15.766   9.966   9.393 -0.2414 -0.1641 -0.0892
   26loPI   C2A  408  15.800   9.688   9.025  0.2723  0.3565  0.4736
   26loPI   C3A  409  15.706   9.475   8.611 -0.0106  0.0826  0.1615
   26loPI   C4A  410  15.880   9.244   8.270 -0.2853 -0.1173  0.0365
   26loPI   C5A  411  15.723   8.987   7.837  0.1301 -0.0980 -0.1304
   26loPI   C6A  412  15.532   8.618   7.650  0.2006  0.2953 -0.6676
   26loPI   C1B  413  16.298  10.284   8.864 -0.2180  0.1117 -0.2589
   26loPI   C2B  414  16.176  10.297   8.421 -0.2245 -0.4685 -0.0456
   26loPI   C3B  415  15.994  10.484   8.080  0.0598 -0.0181 -0.2007
   26loPI   C4B  416  15.584  10.467   7.792 -0.0658 -0.2361  0.0778
   27loPI    C1  417   1.854   1.515  10.208  0.2731  0.0040  0.0284
   27loPI    C2  418   2.104   1.248  10.370  0.1085 -0.0508  0.1953
   27loPI    C3  419   1.719   1.254  10.480  0.0848  0.1779  0.1043
   27loPI   PO4  420   1.800   1.471   9.945 -0.3672  0.0055 -0.0236
   27loPI   GL1  421   2.007   1.701   9.607 -0.0699  0.1556  0.2190
   27loPI   GL2  422   1.736   1.654   9.405 -0.2556  0.2155 -0.1480
   27loPI   C1A  423   2.206   1.621   9.216  0.2135  0.0527 -0.1013
   27loPI   C2A  424   2.200   1.647   8.805  0.1765 -0.0353 -0.3360
   27loPI   C3A  425   2.092   1.692   8.408 -0.0897 -0.0600  0.2535
   27loPI   C4A  426   2.079   1.863   8.024  0.0616 -0.0370  0.0961
   27loPI   C5A  427   2.033   1.800   7.573 -0.1771  0.0761 -0.1096
   27loPI   C6A  428   2.333   1.841   7.236  0.3360  0.0429  0.0873
   27loPI   C1B  429   1.710   1.589   9.039  0.0249  0.1289 -0.1960
   27loPI   C2B  430   1.700   1.535   8.784  0.0347  0.0465 -0.1924
   27loPI   C3B  431   1.623   1.509   8.403  0.0427 -0.0301  0.5260
   27loPI   C4B  432   1.673   1.272   8.058 -0.1158  0.1850  0.0829
   28loPI    C1  433   5.826   5.014  10.177 -0.0275 -0.1102  0.2050
   28loPI    C2  434   6.114   4.765  10.299  0.0591 -0.0379  0.1485
   28loPI    C3  435   5.730   4.665  10.347  0.0935 -0.1362  0.2203
   28loPI   PO4  436   5.782   4.968   9.900 -0.1345 -0.3733  0.3579
   28loPI   GL1  437   5.872   4.924   9.605 -0.0152  0.0018 -0.0296
   28loPI   GL2  438   5.589   4.996   9.449 -0.0234 -0.1110 -0.0063
   28loPI   C1A  439   5.894   4.674   9.188 -0.0543 -0.1676 -0.1290
   28loPI   C2A  440   5.855   4.504   8.800 -0.0930 -0.0932  0.1854
   28loPI   C3A  441   5.846   4.465   8.470 -0.5201 -0.0497 -0.1043
   28loPI   C4A  442   5.533   4.316   8.081  0.3257  0.3581 -0.3412
   28loPI   C5A  443   5.274   4.239   7.764 -0.0446  0.0763  0.2841
   28loPI   C6A  444   4.952   4.112   7.591  0.2291  0.2339  0.0045
   28loPI   C1B  445   5.384   4.956   8.951  0.1458 -0.2931 -0.0948
   28loPI   C2B  446   5.404   4.930   8.483 -0.0552  0.0432 -0.1088
   28loPI   C3B  447   5.503   4.817   8.040  0.2498 -0.2968  0.0963
   28loPI   C4B  448   5.649   4.645   7.655 -0.1540  0.1867 -0.1372
   29loPI    C1  449  16.806  13.229  10.259  0.0186  0.2458  0.5241
   29loPI    C2  450  16.437  13.370  10.318 -0.1098  0.1199  0.0613
   29loPI    C3  451  16.514  12.982  10.377 -0.0706  0.1305  0.0799
   29loPI   PO4  452  16.914  13.278   9.911  0.1655  0.2528  0.0683
   29loPI   GL1  453  16.785  13.477   9.593 -0.1391 -0.3067 -0.2048
   29loPI   GL2  454  16.571  13.364   9.596  0.3167  0.1122 -0.0309
   29loPI   C1A  455  16.918  13.707   9.316  0.3418  0.0515 -0.0394
   29loPI   C2A  456  16.944  13.900   8.945 -0.0164  0.1071  0.0844
   29loPI   C3A  457  17.204  13.891   8.468 -0.2190 -0.0761 -0.1556
   29loPI   C4A  458  17.566  13.829   8.300 -0.0982 -0.0156  0.0549
   29loPI   C5A  459  17.787  13.928   8.040 -0.1584 -0.0512 -0.1348
   29loPI   C6A  460  17.909  14.043   7.730  0.3253  0.0191  0.1051
   29loPI   C1B  461  16.597  13.375   9.159  0.0831  0.2387  0.1915
   29loPI   C2B  462  16.330  13.211   8.810  0.2351 -0.0967  0.3009
   29loPI   C3B  463  16.296  12.964   8.511  0.4598 -0.0567  0.1914
   29loPI   C4B  464  16.528  13.016   8.174  0.1047  0.3660  0.0826
   30loPI    C1  465  12.580   0.930  10.271  0.0684  0.1959  0.2008
   30loPI    C2  466  12.567   1.152  10.604 -0.2064  0.2883  0.1307
   30loPI    C3  467  12.310   0.849  10.555  0.1188 -0.0041  0.1935
   30loPI   PO4  468  12.591   1.164  10.030  0.0346 -0.2418 -0.1859
   30loPI   GL1  469  12.849   1.217   9.637 -0.0094 -0.1170  0.4315
   30loPI   GL2  470  12.608   1.336   9.478 -0.2262 -0.0267 -0.1848
   30loPI   C1A  471  12.990   1.126   9.321 -0.1957  0.0177  0.0673
   30loPI   C2A  472  13.200   1.137   8.981 -0.0096 -0.0565 -0.0606
   30loPI   C3A  473  13.193   1.026   8.665 -0.0029 -0.3198  0.2090
   30loPI   C4A  474  13.135   1.081   8.304 -0.0478  0.0157  0.0966
   30loPI   C5A  475  13.185   0.966   7.881 -0.0175 -0.0598 -0.1376
   30loPI   C6A  476  12.971   0.613   7.821  0.0253 -0.1969 -0.0371
   30loPI   C1B  477  12.554   1.112   9.159  0.1217 -0.0173  0.2054
   30loPI   C2B  478  12.655   0.943   8.902  0.2411 -0.0773  0.2732
   30loPI   C3B  479  12.663   0.925   8.476 -0.1872  0.0419  0.0736
   30loPI   C4B  480  12.656   1.014   7.972 -0.0122 -0.3779  0.2868
   31loPI    C1  481  12.009   1.741   9.940 -0.0996 -0.1137 -0.0148
   31loPI    C2  482  12.308   1.978  10.061 -0.1020  0.0016 -0.2303
   31loPI    C3  483  12.004   1.899  10.308 -0.1658  0.3289 -0.1988
   31loPI   PO4  484  12.193   1.576   9.812  0.4102  0.2131 -0.1219
   31loPI   GL1  485  12.098   1.160   9.685  0.1729 -0.0433 -0.0347
   31loPI   GL2  486  12.047   1.349   9.359  0.1602 -0.1913  0.0902
   31loPI   C1A  487  12.165   0.810   9.220 -0.0146 -0.2843  0.2622
   31loPI   C2A  488  12.170   0.830   8.696 -0.1784  0.2175 -0.0162
   31loPI   C3A  489  12.267   0.680   8.315  0.0830  0.0485  0.1986
   31loPI   C4A  490  12.473   0.510   7.878  0.0550 -0.1010  0.1735
   31loPI   C5A  491  12.485   0.840   7.485 -0.1971  0.0232  0.2354
   31loPI   C6A  492  12.463   1.206   7.396 -0.0925  0.2313 -0.2841
   31loPI   C1B  493  11.915   1.441   9.051  0.0512 -0.1024 -0.0242
   31loPI   C2B  494  11.650   1.606   8.721 -0.0870  0.0485 -0.1033
   31loPI   C3B  495  11.869   1.571   8.346 -0.0686  0.0979 -0.1027
   31loPI   C4B  496  11.974   1.792   7.960  0.2635  0.0814  0.2665
   32loPI    C1  497  13.098   2.108  10.064  0.0706 -0.2206  0.0271
   32loPI    C2  498  13.285   1.817  10.265  0.1839 -0.0463  0.1772
   32loPI    C3  499  13.362   2.201  10.350  0.0493  0.0287 -0.0312
   32loPI   PO4  500  13.077   2.020   9.785  0.2183 -0.0674  0.3126
   32loPI   GL1  501  12.951   2.224   9.422 -0.0190  0.0484  0.0365
   32loPI   GL2  502  13.142   2.391   9.224  0.2025 -0.0947  0.1637
   32loPI   C1A  503  12.767   1.993   9.043  0.4623 -0.1215  0.4471
   32loPI   C2A  504  12.670   1.982   8.609 -0.1280  0.0625  0.3137
   32loPI   C3A  505  12.667   1.988   8.302 -0.3426  0.0029  0.1198
   32loPI   C4A  506  12.428   2.061   7.954 -0.3369 -0.1837 -0.0445
   32loPI   C5A  507  12.482   2.177   7.512 -0.1452 -0.2118 -0.2438
   32loPI   C6A  508  12.170   2.279   7.092  0.0912  0.3755 -0.0364
   32loPI   C1B  509  13.088   2.335   8.719 -0.0887  0.2451 -0.0357
   32loPI   C2B  510  12.994   2.399   8.267  0.1078 -0.0548 -0.3209
   32loPI   C3B  511  12.814   2.380   7.909  0.0476 -0.0496 -0.0057
   32loPI   C4B  512  12.913   2.373   7.516 -0.2441 -0.1527  0.0805
   33loPI    C1  513   7.589  11.216  10.049  0.2345  0.0682 -0.0829
   33loPI    C2  514   7.516  11.206  10.442  0.2325 -0.1666 -0.0882
   33loPI    C3  515   7.873  11.094  10.302  0.1432 -0.3481 -0.1745
   33loPI   PO4  516   7.530  11.393   9.924  0.1120  0.0021  0.1251
   33loPI   GL1  517   7.629  11.387   9.506 -0.0105 -0.3727 -0.1977
   33loPI   GL2  518   7.418  11.252   9.434 -0.0945  0.0935  0.0127
   33loPI   C1A  519   7.797  11.405   9.101 -0.3053 -0.0155 -0.5579
   33loPI   C2A  520   7.817  11.445   8.663 -0.0074  0.0192  0.2224
   33loPI   C3A  521   7.968  11.487   8.339 -0.1635  0.0329  0.0166
   33loPI   C4A  522   8.104  11.428   7.873  0.0604  0.0938  0.2068
   33loPI   C5A  523   7.827  11.477   7.552  0.0555 -0.2235 -0.1087
   33loPI   C6A  524   7.484  11.192   7.515 -0.0908  0.1536 -0.1564
   33loPI   C1B  525   7.349  11.184   9.058 -0.1443  0.0416 -0.0966
   33loPI   C2B  526   7.577  10.835   8.784  0.4156 -0.0383  0.0329
   33loPI   C3B  527   7.521  10.683   8.316 -0.0872  0.3758  0.0452
   33loPI   C4B  528   7.622  10.624   7.826 -0.1456 -0.1112 -0.4731
   34loPI    C1  529   0.554  17.780  10.079  0.0108  0.1950  0.1851
   34loPI    C2  530   0.879  17.890  10.284  0.1721  0.1016 -0.0168
   34loPI    C3  531   0.646  17.596  10.421  0.2521  0.0721  0.0565
   34loPI   PO4  532   0.578  18.023   9.894  0.0214 -0.1017 -0.0117
   34loPI   GL1  533   0.480  18.152   9.566 -0.2393 -0.0686 -0.1862
   34loPI   GL2  534   0.328  17.912   9.518 -0.2331 -0.1477  0.4048
   34loPI   C1A  535   0.532  18.348   9.131  0.0021 -0.2270 -0.2137
   34loPI   C2A  536   0.622  18.439   8.672  0.1483  0.0485 -0.1138
   34loPI   C3A  537   0.752  18.534   8.254 -0.0682  0.1897  0.0876
   34loPI   C4A  538   0.861  18.726   7.912  0.0576  0.1787 -0.1130
   34loPI   C5A  539   0.627  18.858   7.497 -0.2754  0.0430  0.3513
   34loPI   C6A  540   0.493  18.782   7.137  0.6173  0.0023 -0.0235
   34loPI   C1B  541   0.052  17.941   9.184 -0.3016 -0.0294 -0.0031
   34loPI   C2B  542  -0.179  17.772   9.008 -0.1629 -0.3670  0.1838
   34loPI   C3B  543  -0.298  17.856   8.580 -0.2993 -0.0085  0.0532
   34loPI   C4B  544  -0.304  18.003   8.153  0.0766  0.1504 -0.0351
   35loPI    C1  545   7.164   2.355  10.010 -0.2816  0.0958  0.0031
   35loPI    C2  546   7.351   2.187  10.321 -0.2808 -0.0741 -0.0878
   35loPI    C3  547   7.047   2.439  10.383 -0.0906  0.1240  0.0576
   35loPI   PO4  548   7.382   2.377   9.816  0.0515 -0.0288  0.0334
   35loPI   GL1  549   7.433   2.380   9.316 -0.2526  0.2578 -0.4072
   35loPI   GL2  550   7.465   2.731   9.390 -0.3300 -0.2611  0.1838
   35loPI   C1A  551   7.672   2.376   8.897 -0.3829 -0.1840 -0.4718
   35loPI   C2A  552   7.938   2.303   8.550  0.1812  0.2633  0.0455
   35loPI   C3A  553   8.076   2.291   8.080  0.1788  0.3867  0.0938
   35loPI   C4A  554   8.248   2.266   7.719  0.1395  0.2928 -0.3090
   35loPI   C5A  555   8.527   2.591   7.515 -0.0600  0.3499  0.1035
   35loPI   C6A  556   8.629   2.941   7.252  0.1726  0.0034 -0.1091
   35loPI   C1B  557   7.639   2.882   8.961 -0.1753  0.1362  0.1154
   35loPI   C2B  558   7.814   2.812   8.530 -0.0016  0.2721  0.2295
   35loPI   C3B  559   7.853   2.805   8.107  0.0525  0.0503 -0.0282
   35loPI   C4B  560   7.865   2.612   7.731 -0.2520 -0.4166  0.2950
   36loPI    C1  561   0.214   7.374  10.398 -0.1350 -0.1794  0.3096
   36loPI    C2  562   0.248   7.158  10.733  0.3128 -0.1877  0.2648
   36loPI    C3  563   0.444   7.505  10.698 -0.1572  0.0802  0.2155
   36loPI   PO4  564   0.327   7.160  10.227  0.1579 -0.0404  0.2196
   36loPI   GL1  565   0.489   6.897   9.821 -0.0530  0.1571 -0.0380
   36loPI   GL2  566   0.660   7.199   9.653 -0.1724 -0.3095 -0.0031
   36loPI   C1A  567   0.380   6.611   9.377  0.0749 -0.3356  0.0637
   36loPI   C2A  568   0.472   6.462   8.904  0.0508 -0.2767  0.0359
   36loPI   C3A  569   0.404   6.408   8.359  0.2884  0.2199  0.2255
   36loPI   C4A  570   0.642   6.384   8.053 -0.1230  0.0243 -0.2533
   36loPI   C5A  571   0.864   6.334   7.661 -0.0501  0.2294 -0.1041
   36loPI   C6A  572   1.065   6.519   7.347 -0.1570 -0.0854 -0.1589
   36loPI   C1B  573   0.574   7.200   9.336 -0.1272 -0.0968 -0.0950
   36loPI   C2B  574   0.626   7.286   8.818 -0.0860  0.3012 -0.0902
   36loPI   C3B  575   0.407   7.216   8.360  0.1052 -0.0800 -0.0174
   36loPI   C4B  576   0.506   7.171   7.991  0.1200  0.4156 -0.1935
   37loPI    C1  577   9.620   5.141  10.079 -0.1147  0.0598 -0.2059
   37loPI    C2  578   9.779   5.467  10.248  0.1169  0.0043 -0.3129
   37loPI    C3  579   9.448   5.303  10.401  0.2619  0.0177  0.0223
   37loPI   PO4  580   9.571   5.158   9.848 -0.0274 -0.2322  0.1133
   37loPI   GL1  581   9.472   5.185   9.478 -0.1228 -0.0821 -0.2845
   37loPI   GL2  582   9.187   5.122   9.482 -0.0916 -0.0916 -0.0931
   37loPI   C1A  583   9.498   4.797   9.188 -0.3183 -0.0723  0.1058
   37loPI   C2A  584   9.390   4.575   8.805  0.0127 -0.1086  0.0563
   37loPI   C3A  585   9.251   4.511   8.413  0.1924 -0.0875 -0.0704
   37loPI   C4A  586   9.082   4.505   7.988 -0.2015 -0.2792  0.2856
   37loPI   C5A  587   8.688   4.281   7.825 -0.0093 -0.0507 -0.2444
   37loPI   C6A  588   8.317   4.335   7.664 -0.0307 -0.0855  0.4420
   37loPI   C1B  589   9.111   5.044   9.080 -0.0286  0.2687  0.2328
   37loPI   C2B  590   9.089   4.958   8.627 -0.0497  0.1137 -0.1625
   37loPI   C3B  591   8.912   4.874   8.240  0.1930  0.2134 -0.1823
   37loPI   C4B  592   8.590   4.837   7.903 -0.1052 -0.0052  0.1052
   38loPI    C1  593   0.035   3.447  10.251 -0.2199  0.0924 -0.1665
   38loPI    C2  594   0.123   3.103  10.067 -0.1028  0.0942 -0.1142
   38loPI    C3  595  -0.253   3.238  10.069 -0.1342  0.0088 -0.2068
   38loPI   PO4  596   0.237   3.624  10.173  0.1195  0.0123 -0.0464
   38loPI   GL1  597   0.326   3.546   9.725  0.0140  0.1006  0.0243
   38loPI   GL2  598   0.052   3.463   9.623  0.0225 -0.3202  0.0727
   38loPI   C1A  599   0.433   3.330   9.275 -0.0235  0.2246 -0.0793
   38loPI   C2A  600   0.466   3.243   8.793 -0.1881 -0.0062  0.0942
   38loPI   C3A  601   0.500   3.140   8.349  0.1185 -0.1076  0.0025
   38loPI   C4A  602   0.611   3.170   7.869  0.2554 -0.0122  0.1988
   38loPI   C5A  603   0.620   3.486   7.525  0.1038 -0.2237  0.0522
   38loPI   C6A  604   0.449   3.758   7.372 -0.1615  0.0141  0.2465
   38loPI   C1B  605  -0.149   3.361   9.169  0.2193  0.3904  0.0900
   38loPI   C2B  606  -0.156   3.428   8.651 -0.0720 -0.3847 -0.2188
   38loPI   C3B  607  -0.033   3.556   8.233 -0.4564  0.2549 -0.0856
   38loPI   C4B  608   0.108   3.589   7.809 -0.3654  0.1245 -0.2908
   39loPI    C1  609  12.914  13.930   9.922 -0.1662 -0.2408 -0.0690
   39loPI    C2  610  12.526  14.013   9.871 -0.1390  0.0424  0.1659
   39loPI    C3  611  12.669  13.940  10.238  0.0671  0.1399  0.1064
   39loPI   PO4  612  12.947  13.680   9.701 -0.0980 -0.0537 -0.0568
   39loPI   GL1  613  12.992  13.731   9.314  0.0332 -0.0970  0.1339
   39loPI   GL2  614  12.691  13.774   9.327 -0.2733  0.2004 -0.2543
   39loPI   C1A  615  12.970  13.981   8.916 -0.0895 -0.0161  0.0418
   39loPI   C2A  616  12.790  13.870   8.461 -0.0819 -0.0917 -0.1349
   39loPI   C3A  617  12.962  13.604   8.082  0.0254 -0.0238 -0.0787
   39loPI   C4A  618  12.913  13.396   7.760 -0.1028  0.0373 -0.2386
   39loPI   C5A  619  12.816  13.397   7.356  0.0996 -0.3366 -0.0476
   39loPI   C6A  620  12.714  13.628   6.998  0.2609 -0.3887 -0.3241
   39loPI   C1B  621  12.701  13.612   8.880 -0.0976 -0.0014  0.2140
   39loPI   C2B  622  12.556  13.465   8.466 -0.0201  0.0778  0.0822
   39loPI   C3B  623  12.468  13.452   8.064 -0.2448 -0.1378 -0.2613
   39loPI   C4B  624  12.293  13.198   7.680  0.0667 -0.0101  0.1572
   40loPI    C1  625  16.701  10.226  10.207 -0.0509  0.0274 -0.1730
   40loPI    C2  626  16.915  10.092  10.517 -0.1374 -0.2189 -0.2179
   40loPI    C3  627  16.516  10.062  10.521 -0.1932  0.4045 -0.0539
   40loPI   PO4  628  16.831  10.124  10.012  0.0397 -0.0087 -0.0686
   40loPI   GL1  629  16.674   9.914   9.667  0.2072 -0.1304  0.3862
   40loPI   GL2  630  16.576   9.750   9.628  0.1365 -0.4149 -0.0357
   40loPI   C1A  631  16.659  10.046   9.229 -0.1472  0.0289 -0.2404
   40loPI   C2A  632  16.696  10.018   8.859 -0.0234  0.0749  0.0299
   40loPI   C3A  633  16.663  10.159   8.473 -0.0880 -0.1014 -0.0146
   40loPI   C4A  634  16.768  10.074   8.060 -0.0988 -0.2091  0.2420
   40loPI   C5A  635  16.865   9.977   7.654 -0.0396 -0.1699  0.2841
   40loPI   C6A  636  16.759   9.781   7.286 -0.1633 -0.1925  0.4133
   40loPI   C1B  637  16.234   9.784   9.285  0.3820  0.0341  0.1670
   40loPI   C2B  638  16.279   9.753   8.788  0.1698  0.2259  0.2092
   40loPI   C3B  639  16.320   9.733   8.350 -0.2100 -0.0039 -0.2674
   40loPI   C4B  640  16.283  10.012   7.979 -0.2971  0.5927 -0.1865
   41loPI    C1  641   1.763   4.635   9.793 -0.0063 -0.2572 -0.0897
   41loPI    C2  642   1.489   4.535  10.066  0.1405  0.0018  0.1582
   41loPI    C3  643   1.803   4.760  10.171  0.1431  0.1973 -0.2486
   41loPI   PO4  644   1.664   4.738   9.662 -0.0683 -0.0891 -0.0717
   41loPI   GL1  645   1.409   4.721   9.338 -0.0986 -0.4016 -0.0195
   41loPI   GL2  646   1.212   4.960   9.421  0.0884 -0.1665  0.3405
   41loPI   C1A  647   1.231   4.945   8.895  0.1558 -0.1484  0.2061
   41loPI   C2A  648   1.269   5.235   8.534  0.1622 -0.0751  0.2954
   41loPI   C3A  649   1.329   5.473   8.199 -0.3072  0.4789 -0.0234
   41loPI   C4A  650   1.035   5.466   7.891  0.2744  0.0738  0.0945
   41loPI   C5A  651   0.813   5.379   7.546 -0.3659 -0.2292 -0.1480
   41loPI   C6A  652   0.707   5.016   7.337 -0.2491  0.1768 -0.1456
   41loPI   C1B  653   0.854   4.780   9.140 -0.0736 -0.4412 -0.1957
   41loPI   C2B  654   0.615   4.825   8.663  0.2100 -0.0327 -0.1593
   41loPI   C3B  655   0.489   4.874   8.309 -0.0097  0.0831  0.1041
   41loPI   C4B  656   0.110   5.031   8.109 -0.1251 -0.0903 -0.0129
   42loPI    C1  657  18.336  16.065  10.366  0.0580 -0.1104 -0.1537
   42loPI    C2  658  18.109  16.163  10.681 -0.0084 -0.2589 -0.1547
   42loPI    C3  659  18.494  16.068  10.734  0.0524 -0.0166 -0.1518
   42loPI   PO4  660  18.368  16.266  10.263  0.1290 -0.0275 -0.4433
   42loPI   GL1  661  18.121  16.327   9.942 -0.0090 -0.0774 -0.2000
   42loPI   GL2  662  18.012  16.197   9.672 -0.2522  0.0414  0.0152
   42loPI   C1A  663  18.122  16.646   9.659 -0.4559  0.1059 -0.2855
   42loPI   C2A  664  18.362  16.813   9.322 -0.3313 -0.0121 -0.0840
   42loPI   C3A  665  18.315  17.018   8.897  0.2233  0.0143  0.0379
   42loPI   C4A  666  18.051  17.181   8.610  0.6425  0.1243 -0.0052
   42loPI   C5A  667  18.089  17.145   8.193 -0.1876  0.0546 -0.1849
   42loPI   C6A  668  18.296  17.093   7.747  0.0721 -0.0108  0.3372
   42loPI   C1B  669  17.693  16.410   9.382  0.0288 -0.0513  0.0207
   42loPI   C2B  670  17.530  16.566   9.073 -0.0323  0.0810 -0.3114
   42loPI   C3B  671  17.304  16.800   9.035 -0.2002  0.0789  0.1761
   42loPI   C4B  672  16.884  16.906   9.123  0.0541  0.1390 -0.0648
   43loPI    C1  673  18.009  13.979   9.772  0.0577 -0.2364  0.2035
   43loPI    C2  674  17.643  13.994   9.932  0.0133 -0.3753  0.1177
   43loPI    C3  675  17.944  14.195  10.102 -0.1035 -0.2549  0.1848
   43loPI   PO4  676  17.945  13.973   9.491 -0.1290 -0.2354  0.2433
   43loPI   GL1  677  17.649  13.806   9.200  0.1243 -0.0104  0.3361
   43loPI   GL2  678  17.406  13.599   9.216 -0.4258 -0.2621  0.1648
   43loPI   C1A  679  17.749  13.791   8.816 -0.1013  0.1191 -0.0471
   43loPI   C2A  680  17.936  14.030   8.572  0.2382  0.0485 -0.2423
   43loPI   C3A  681  18.088  14.313   8.287  0.0747 -0.0619  0.1762
   43loPI   C4A  682  18.285  14.240   7.979 -0.5300 -0.0171  0.3838
   43loPI   C5A  683  18.450  14.128   7.772  0.2231  0.1189  0.1450
   43loPI   C6A  684  18.695  13.961   7.471 -0.2048  0.0145  0.0335
   43loPI   C1B  685  17.317  13.559   8.853  0.3539  0.0965  0.0328
   43loPI   C2B  686  16.846  13.450   8.723  0.2456 -0.0688  0.3298
   43loPI   C3B  687  16.647  13.494   8.394  0.0087 -0.1110  0.1409
   43loPI   C4B  688  16.437  13.811   8.116  0.0276  0.0005 -0.7794
   44loPI    C1  689   1.938  17.353   9.722  0.2304  0.0799 -0.0749
   44loPI    C2  690   1.777  17.512  10.052  0.0709 -0.2008 -0.0138
   44loPI    C3  691   2.063  17.234  10.083  0.2880  0.0067 -0.1185
   44loPI   PO4  692   1.716  17.448   9.470  0.1876  0.0572 -0.1856
   44loPI   GL1  693   1.856  17.698   9.075  0.1963 -0.0840  0.3673
   44loPI   GL2  694   2.020  17.946   9.014 -0.0938 -0.1186 -0.0546
   44loPI   C1A  695   2.119  17.571   8.691 -0.0134  0.0509 -0.3384
   44loPI   C2A  696   1.931  17.765   8.273  0.1137  0.0701  0.1758
   44loPI   C3A  697   2.089  17.820   7.826  0.2545  0.0765  0.3340
   44loPI   C4A  698   2.139  18.267   7.563  0.2070  0.0858 -0.0004
   44loPI   C5A  699   2.051  18.549   7.255 -0.0513  0.0049  0.0643
   44loPI   C6A  700   2.103  19.007   7.300  0.2264 -0.0343  0.1191
   44loPI   C1B  701   1.821  18.122   8.670  0.3388 -0.0337 -0.1065
   44loPI   C2B  702   1.588  18.310   8.237  0.2705 -0.0885  0.0210
   44loPI   C3B  703   1.723  18.369   7.825 -0.1865  0.0572  0.1863
   44loPI   C4B  704   1.527  18.317   7.442  0.0320 -0.2473 -0.2767
   45loPI    C1  705  10.792   4.390  10.208 -0.3478 -0.0496 -0.2005
   45loPI    C2  706  11.179   4.478  10.156 -0.3771  0.0997 -0.1699
   45loPI    C3  707  11.061   4.280  10.483 -0.3389  0.1380 -0.1328
   45loPI   PO4  708  10.807   4.223   9.875  0.1729 -0.0338  0.1133
   45loPI   GL1  709  11.059   4.293   9.530 -0.0884  0.3031 -0.3259
   45loPI   GL2  710  10.722   4.485   9.361  0.4124 -0.1315 -0.1199
   45loPI   C1A  711  11.140   4.327   9.116 -0.1223  0.1744  0.1837
   45loPI   C2A  712  11.185   4.494   8.704 -0.2654  0.0568  0.0794
   45loPI   C3A  713  11.254   4.680   8.321 -0.0851 -0.0957  0.1550
   45loPI   C4A  714  11.316   4.955   7.903  0.2966 -0.0323 -0.1685
   45loPI   C5A  715  11.418   5.192   7.469 -0.0688 -0.4770  0.2048
   45loPI   C6A  716  11.571   5.155   7.167  0.1801  0.1754  0.1232
   45loPI   C1B  717  10.747   4.607   8.980  0.0260 -0.1955 -0.2046
   45loPI   C2B  718  10.792   4.847   8.606 -0.1958  0.0853 -0.0536
   45loPI   C3B  719  10.907   5.045   8.170  0.2342 -0.1213 -0.2087
   45loPI   C4B  720  10.930   5.246   7.748  0.3471  0.0123 -0.0519
   46loPI    C1  721  11.982  10.077  10.288 -0.1922 -0.1327  0.0729
   46loPI    C2  722  12.099  10.171  10.659 -0.1770 -0.0128  0.0381
   46loPI    C3  723  11.977   9.799  10.576  0.0934 -0.1169  0.0964
   46loPI   PO4  724  11.785  10.291  10.160  0.4131  0.1219  0.2119
   46loPI   GL1  725  11.586  10.315   9.709 -0.1311 -0.3343  0.2000
   46loPI   GL2  726  11.282  10.125   9.677  0.1491 -0.2013 -0.1790
   46loPI   C1A  727  11.330  10.235   9.232  0.0818 -0.1269 -0.0199
   46loPI   C2A  728  11.087  10.283   8.903 -0.1388 -0.1260  0.2342
   46loPI   C3A  729  10.891  10.632   8.594 -0.0924  0.1786 -0.1749
   46loPI   C4A  730  10.748  10.708   8.270 -0.0763  0.2646  0.0987
   46loPI   C5A  731  10.778  10.980   7.900  0.4071 -0.1619  0.1784
   46loPI   C6A  732  10.555  10.943   7.398  0.0958  0.0737  0.0518
   46loPI   C1B  733  10.810  10.181   9.508 -0.3218  0.3931  0.0476
   46loPI   C2B  734  10.693   9.895   9.232 -0.1006  0.1568  0.0268
   46loPI   C3B  735  10.762   9.945   8.814 -0.0255  0.0159  0.0364
   46loPI   C4B  736  10.682  10.044   8.438  0.1458 -0.0328  0.1855
   47loPI    C1  737  10.129  13.003  10.323  0.0536  0.0135  0.0297
   47loPI    C2  738   9.787  13.056  10.524  0.0016 -0.1829 -0.0045
   47loPI    C3  739  10.131  13.006  10.723 -0.0428 -0.3337  0.0356
   47loPI   PO4  740   9.973  12.920  10.065 -0.0864  0.3154  0.1498
   47loPI   GL1  741   9.938  12.827   9.664 -0.0189 -0.0055  0.1624
   47loPI   GL2  742   9.982  12.595   9.452  0.2490 -0.1391  0.0458
   47loPI   C1A  743  10.121  13.012   9.209  0.1213  0.0532  0.1512
   47loPI   C2A  744  10.377  12.963   8.945  0.2795 -0.1257  0.3028
   47loPI   C3A  745  10.519  12.987   8.426  0.2463 -0.1502  0.2454
   47loPI   C4A  746  10.658  13.101   7.988  0.2709 -0.3125  0.2869
   47loPI   C5A  747  10.723  13.264   7.593  0.1544  0.3257  0.1106
   47loPI   C6A  748  11.039  13.492   7.586  0.3255  0.0413  0.2508
   47loPI   C1B  749  10.138  12.491   9.063  0.0271 -0.2901  0.0653
   47loPI   C2B  750  10.207  12.607   8.543 -0.0829  0.1893 -0.0116
   47loPI   C3B  751  10.258  12.509   8.082 -0.2799 -0.0647 -0.0639
   47loPI   C4B  752  10.253  12.779   7.757  0.1482 -0.2020 -0.1373
   48loPI    C1  753   7.467   2.719  10.403  0.2720 -0.2657  0.0843
   48loPI    C2  754   7.375   3.106  10.362  0.0654 -0.3166  0.0548
   48loPI    C3  755   7.365   2.936  10.723  0.0811 -0.3129  0.0570
   48loPI   PO4  756   7.579   2.652  10.188 -0.2992  0.0467  0.3089
   48loPI   GL1  757   7.823   2.728   9.749  0.2719  0.3653 -0.0468
   48loPI   GL2  758   8.045   2.592   9.581  0.2639 -0.0988  0.0221
   48loPI   C1A  759   7.769   3.133   9.561  0.0837 -0.2480  0.2943
   48loPI   C2A  760   7.669   3.445   9.196  0.0898 -0.0990  0.1041
   48loPI   C3A  761   7.739   3.258   8.703  0.0117 -0.3857 -0.3184
   48loPI   C4A  762   7.835   3.324   8.281  0.3125  0.2265  0.0558
   48loPI   C5A  763   7.670   3.219   7.887  0.0757  0.0889  0.0934
   48loPI   C6A  764   7.316   3.321   7.611 -0.0047  0.0956 -0.0349
   48loPI   C1B  765   7.996   2.644   9.199 -0.1437 -0.0396  0.1276
   48loPI   C2B  766   8.178   2.615   8.852  0.2131 -0.0801 -0.1900
   48loPI   C3B  767   8.240   2.640   8.411 -0.0368 -0.0217 -0.2250
   48loPI   C4B  768   8.360   2.697   7.987 -0.0710  0.3350  0.0220
   49loPI    C1  769  14.591  15.488  10.248  0.0394 -0.0468 -0.0088
   49loPI    C2  770  14.306  15.765  10.296 -0.2241 -0.3427  0.1694
   49loPI    C3  771  14.512  15.632  10.613  0.1188 -0.1296  0.0415
   49loPI   PO4  772  14.506  15.370   9.943 -0.0092 -0.0181  0.2118
   49loPI   GL1  773  14.727  15.451   9.535  0.1588 -0.0303 -0.0395
   49loPI   GL2  774  14.914  15.658   9.389 -0.1910  0.1756  0.3478
   49loPI   C1A  775  14.867  15.133   9.250  0.2344 -0.1875  0.0165
   49loPI   C2A  776  14.706  15.133   8.862  0.1821 -0.0468  0.0233
   49loPI   C3A  777  14.932  15.321   8.442 -0.0416  0.0910  0.1821
   49loPI   C4A  778  15.170  15.371   8.011  0.2755  0.0418 -0.1375
   49loPI   C5A  779  15.335  15.557   7.709 -0.2820 -0.1045 -0.1475
   49loPI   C6A  780  15.246  15.740   7.422  0.1778 -0.1020 -0.2586
   49loPI   C1B  781  14.998  15.517   8.963 -0.3101 -0.3452  0.0551
   49loPI   C2B  782  15.076  15.802   8.684  0.1023  0.1867 -0.3120
   49loPI   C3B  783  15.131  15.833   8.230  0.2518 -0.1797  0.1615
   49loPI   C4B  784  15.152  16.134   7.851  0.0664 -0.3562  0.2596
   50loPI    C1  785   6.727   5.678   9.596 -0.0398  0.0826 -0.2136
   50loPI    C2  786   6.799   5.714   9.988  0.0508 -0.1730 -0.2051
   50loPI    C3  787   6.464   5.536   9.862  0.1304 -0.2992 -0.2414
   50loPI   PO4  788   6.963   5.567   9.481 -0.2916  0.1005  0.0847
   50loPI   GL1  789   7.113   5.079   9.290  0.2821 -0.3964 -0.0939
   50loPI   GL2  790   6.992   4.876   9.273  0.2345  0.0965 -0.4072
   50loPI   C1A  791   6.949   5.235   8.913 -0.1592  0.4002 -0.1864
   50loPI   C2A  792   6.807   5.416   8.426  0.1759  0.1620 -0.0836
   50loPI   C3A  793   6.811   5.465   7.997  0.0742  0.1980 -0.0455
   50loPI   C4A  794   6.809   5.667   7.561  0.0509 -0.0332  0.1159
   50loPI   C5A  795   6.779   6.086   7.481  0.1318 -0.1065  0.5208
   50loPI   C6A  796   6.970   6.480   7.238 -0.1964  0.1901  0.4347
   50loPI   C1B  797   7.046   4.740   8.950  0.2091  0.1475 -0.4019
   50loPI   C2B  798   6.967   4.748   8.579 -0.0300 -0.0393  0.4115
   50loPI   C3B  799   6.813   4.873   8.160  0.0172 -0.0333  0.2126
   50loPI   C4B  800   6.704   4.601   7.718  0.0275  0.1260 -0.0951
   51loPI    C1  801   2.249  17.768   9.721  0.2256 -0.0694 -0.2236
   51loPI    C2  802   2.429  17.461   9.903  0.0872 -0.0222 -0.0037
   51loPI    C3  803   2.602  17.821   9.901  0.0391  0.0022  0.1300
   51loPI   PO4  804   2.230  17.652   9.416 -0.1515 -0.0180 -0.0819
   51loPI   GL1  805   2.529  17.872   9.087  0.2008  0.1168 -0.3111
   51loPI   GL2  806   2.729  18.062   9.354  0.1775  0.1816  0.1933
   51loPI   C1A  807   2.373  18.009   8.700  0.3350 -0.0818  0.0442
   51loPI   C2A  808   2.428  17.767   8.355  0.0894  0.0037 -0.0535
   51loPI   C3A  809   2.489  17.633   7.960 -0.3011 -0.0117 -0.0247
   51loPI   C4A  810   2.398  17.534   7.548 -0.3485  0.1734 -0.1815
   51loPI   C5A  811   2.702  17.302   7.402 -0.0434 -0.0520 -0.2696
   51loPI   C6A  812   3.158  17.549   7.219  0.2633  0.0773  0.0891
   51loPI   C1B  813   2.662  18.351   8.936 -0.2739  0.1898  0.0577
   51loPI   C2B  814   2.972  18.663   8.665  0.2169  0.1714  0.1416
   51loPI   C3B  815   3.348  18.823   8.369 -0.2926 -0.1409  0.3755
   51loPI   C4B  816   3.369  18.804   7.914  0.1474  0.2483 -0.2096
   52loPI    C1  817   4.653  14.652  10.175  0.1027 -0.1563 -0.0139
   52loPI    C2  818   4.909  14.856  10.405  0.0483 -0.0436 -0.0528
   52loPI    C3  819   4.817  14.477  10.496  0.0058  0.0091  0.1267
   52loPI   PO4  820   4.803  14.766   9.943 -0.2362 -0.0228 -0.2414
   52loPI   GL1  821   4.848  14.671   9.470 -0.1139 -0.0353  0.5374
   52loPI   GL2  822   5.123  14.884   9.402  0.1315 -0.1596  0.0313
   52loPI   C1A  823   4.992  14.460   9.086 -0.2620  0.3138  0.3424
   52loPI   C2A  824   5.131  14.339   8.686 -0.3949 -0.0324  0.0854
   52loPI   C3A  825   5.296  14.379   8.357  0.0090 -0.1161 -0.0980
   52loPI   C4A  826   5.608  14.604   8.187  0.0414  0.1160  0.0833
   52loPI   C5A  827   5.724  14.788   7.655 -0.0173 -0.0139 -0.2725
   52loPI   C6A  828   6.036  15.147   7.440  0.1083  0.2321 -0.3761
   52loPI   C1B  829   5.210  15.125   8.982 -0.2942  0.3079  0.2011
   52loPI   C2B  830   5.161  14.847   8.616  0.2970 -0.0277  0.1664
   52loPI   C3B  831   5.114  14.766   8.158 -0.1921 -0.2937 -0.0224
   52loPI   C4B  832   5.148  14.799   7.656  0.2499  0.2315  0.0814
   53loPI    C1  833   5.574  14.335  10.155  0.0407 -0.1128  0.1628
   53loPI    C2  834   5.178  14.280  10.167  0.0344 -0.1135 -0.0150
   53loPI    C3  835   5.331  14.644  10.233 -0.0054 -0.0833 -0.0875
   53loPI   PO4  836   5.603  14.196   9.805  0.0724  0.0559  0.1483
   53loPI   GL1  837   5.384  14.254   9.401 -0.3043 -0.0781 -0.0268
   53loPI   GL2  838   5.612  14.540   9.319 -0.1806 -0.1580 -0.0296
   53loPI   C1A  839   5.799  14.098   9.105  0.1793  0.1350  0.2411
   53loPI   C2A  840   6.039  13.975   8.653  0.2696  0.0933 -0.0958
   53loPI   C3A  841   6.121  13.916   8.281  0.0738  0.1598  0.0646
   53loPI   C4A  842   6.224  13.734   7.885  0.0649  0.1182  0.2346
   53loPI   C5A  843   6.274  13.497   7.571  0.0841 -0.0388  0.1218
   53loPI   C6A  844   6.624  13.572   7.279  0.0350  0.1801 -0.3700
   53loPI   C1B  845   5.526  14.562   8.903  0.0600 -0.2134  0.3187
   53loPI   C2B  846   5.829  14.420   8.590  0.0923 -0.2226 -0.1082
   53loPI   C3B  847   6.013  14.386   8.271  0.2422  0.1169 -0.1540
   53loPI   C4B  848   6.049  14.463   7.912 -0.5063  0.0483 -0.1772
   54loPI    C1  849   4.812  10.931   9.724  0.3528 -0.1039 -0.1353
   54loPI    C2  850   4.948  11.201   9.986 -0.1436  0.0745 -0.0504
   54loPI    C3  851   5.043  10.815  10.029  0.1173  0.1577  0.1484
   54loPI   PO4  852   4.917  11.037   9.380  0.1208 -0.1767  0.0280
   54loPI   GL1  853   4.951  10.882   9.010  0.0133  0.0430 -0.2254
   54loPI   GL2  854   5.302  11.056   9.119  0.0100  0.3654 -0.2552
   54loPI   C1A  855   4.958  10.952   8.472 -0.3782 -0.1322 -0.1351
   54loPI   C2A  856   4.830  10.825   8.182  0.3696 -0.1369  0.1129
   54loPI   C3A  857   4.810  10.759   7.691  0.1335  0.0840  0.1259
   54loPI   C4A  858   4.572  10.929   7.340 -0.1941  0.0377  0.0679
   54loPI   C5A  859   4.264  11.325   7.189  0.0720 -0.1171  0.1583
   54loPI   C6A  860   4.239  11.533   6.826  0.0739  0.1027  0.0366
   54loPI   C1B  861   5.351  11.346   8.739 -0.0859 -0.1680  0.1360
   54loPI   C2B  862   5.586  11.625   8.439 -0.1721  0.0869  0.2831
   54loPI   C3B  863   5.762  11.404   8.104 -0.0629  0.0167 -0.1992
   54loPI   C4B  864   6.016  11.333   7.772  0.1972 -0.0340 -0.1405
   55loPI    C1  865   7.152  10.414  10.044 -0.1239  0.1186  0.1588
   55loPI    C2  866   7.224  10.030  10.130 -0.0503  0.0531 -0.1823
   55loPI    C3  867   7.315  10.315  10.396  0.2704 -0.1329 -0.0876
   55loPI   PO4  868   7.311  10.483   9.770  0.1498 -0.3402 -0.0610
   55loPI   GL1  869   7.391  10.321   9.350 -0.0117  0.2615  0.0062
   55loPI   GL2  870   7.446  10.645   9.268  0.1239 -0.2054  0.0051
   55loPI   C1A  871   7.598  10.250   8.987  0.1731 -0.1586  0.0352
   55loPI   C2A  872   7.462  10.222   8.620 -0.1157 -0.1035  0.0631
   55loPI   C3A  873   7.170  10.246   8.273 -0.3962 -0.2794  0.2968
   55loPI   C4A  874   7.160  10.481   7.908  0.1359 -0.0380  0.2470
   55loPI   C5A  875   7.139  10.930   7.766  0.1847 -0.0077 -0.0240
   55loPI   C6A  876   7.153  11.290   7.943 -0.1080 -0.3159  0.1260
   55loPI   C1B  877   7.086  10.598   8.936  0.1706 -0.1132  0.0820
   55loPI   C2B  878   6.870  10.621   8.512  0.1143 -0.1150 -0.1817
   55loPI   C3B  879   6.836  10.898   8.211  0.1439 -0.2966 -0.2266
   55loPI   C4B  880   6.859  11.391   8.370 -0.0064  0.2342  0.2995
   56loPI    C1  881  12.592  10.656   9.985  0.1363  0.0323  0.1430
   56loPI    C2  882  12.255  10.542  10.168  0.0244 -0.1247 -0.1530
   56loPI    C3  883  12.478  10.836  10.323 -0.0672 -0.2514  0.2293
   56loPI   PO4  884  12.520  10.650   9.735  0.0546 -0.2555  0.0425
   56loPI   GL1  885  12.442  10.832   9.405 -0.0964 -0.2524  0.1640
   56loPI   GL2  886  12.763  10.874   9.265 -0.1138  0.1558  0.2563
   56loPI   C1A  887  12.255  10.933   8.978  0.0155  0.0773  0.0268
   56loPI   C2A  888  12.315  10.986   8.551 -0.0661 -0.0786  0.2114
   56loPI   C3A  889  12.342  11.078   8.123 -0.2586  0.1007 -0.0660
   56loPI   C4A  890  12.513  11.033   7.668  0.2901  0.0841  0.0074
   56loPI   C5A  891  12.468  10.963   7.299 -0.0766  0.1524 -0.1658
   56loPI   C6A  892  12.161  10.721   6.922 -0.3883 -0.3117 -0.2460
   56loPI   C1B  893  12.724  10.796   8.809 -0.0249 -0.2831  0.1171
   56loPI   C2B  894  12.822  10.800   8.368  0.3250 -0.1268 -0.0418
   56loPI   C3B  895  12.914  10.786   7.899 -0.2630  0.1715  0.0611
   56loPI   C4B  896  13.055  10.877   7.492 -0.1936  0.2986  0.0932
   57loPI    C1  897   8.779   5.444  10.201 -0.0196 -0.2932  0.0809
   57loPI    C2  898   8.395   5.351  10.265 -0.0647 -0.0412  0.1897
   57loPI    C3  899   8.662   5.310  10.560  0.0213 -0.3512  0.0727
   57loPI   PO4  900   8.798   5.594   9.895  0.0031 -0.1417 -0.1744
   57loPI   GL1  901   9.152   5.664   9.650 -0.2314  0.1358 -0.0765
   57loPI   GL2  902   9.317   5.978   9.712 -0.1557 -0.0698 -0.0955
   57loPI   C1A  903   9.289   5.563   9.278 -0.0786 -0.2856 -0.0097
   57loPI   C2A  904   9.220   5.457   8.830 -0.0127 -0.0755  0.3355
   57loPI   C3A  905   8.990   5.376   8.408  0.1895 -0.2101  0.1489
   57loPI   C4A  906   9.150   5.267   8.040  0.0318 -0.2324 -0.1876
   57loPI   C5A  907   9.099   4.904   7.679  0.1050 -0.0345  0.2734
   57loPI   C6A  908   8.898   4.593   7.474  0.3333  0.0450 -0.4311
   57loPI   C1B  909   9.493   6.074   9.349 -0.4095 -0.0966 -0.1011
   57loPI   C2B  910   9.637   6.155   8.862 -0.2893 -0.1014  0.2683
   57loPI   C3B  911   9.561   6.196   8.416  0.1223 -0.1778  0.1316
   57loPI   C4B  912   9.597   6.017   8.092 -0.1311  0.0915  0.1105
   58loPI    C1  913   8.505  13.692  10.318  0.0419 -0.3646  0.0041
   58loPI    C2  914   8.351  13.635  10.683  0.1792 -0.2508  0.0805
   58loPI    C3  915   8.737  13.556  10.614  0.1494 -0.2883 -0.0448
   58loPI   PO4  916   8.378  13.614  10.054 -0.1244 -0.0088 -0.1900
   58loPI   GL1  917   8.299  13.861   9.688  0.0685  0.3270 -0.2088
   58loPI   GL2  918   8.460  13.611   9.573 -0.2560  0.1597  0.0604
   58loPI   C1A  919   8.174  14.056   9.342 -0.1862 -0.0697  0.2566
   58loPI   C2A  920   8.013  14.097   8.921 -0.1864 -0.1286  0.2617
   58loPI   C3A  921   8.130  14.094   8.448  0.2006 -0.1703 -0.1510
   58loPI   C4A  922   8.098  14.015   8.029  0.2519  0.3049  0.1759
   58loPI   C5A  923   7.801  13.706   7.796  0.1272  0.1935  0.0999
   58loPI   C6A  924   7.907  13.440   7.398 -0.1447 -0.0556 -0.1883
   58loPI   C1B  925   8.559  13.734   9.232 -0.4371 -0.2921  0.1243
   58loPI   C2B  926   8.472  13.979   8.855 -0.1688  0.1638  0.2875
   58loPI   C3B  927   8.706  14.230   8.553 -0.0448  0.1415 -0.1799
   58loPI   C4B  928   8.813  14.293   8.166 -0.1449 -0.0199  0.1720
   59loPI    C1  929   1.511  14.441   9.475 -0.1472  0.0260 -0.0669
   59loPI    C2  930   1.702  14.173   9.702 -0.0325  0.0675 -0.1141
   59loPI    C3  931   1.343  14.310   9.814 -0.0133  0.0260 -0.0002
   59loPI   PO4  932   1.474  14.376   9.280 -0.3723 -0.2033  0.2858
   59loPI   GL1  933   1.278  14.369   8.966 -0.0685 -0.0382 -0.2801
   59loPI   GL2  934   1.206  14.013   8.923 -0.0084  0.0128  0.1570
   59loPI   C1A  935   1.003  14.658   8.784  0.1551  0.1288 -0.1620
   59loPI   C2A  936   1.113  14.699   8.419  0.2926  0.0645 -0.3274
   59loPI   C3A  937   1.131  14.768   7.970 -0.0940 -0.0314 -0.0597
   59loPI   C4A  938   1.248  14.896   7.491  0.0867 -0.4347 -0.3732
   59loPI   C5A  939   1.036  15.221   7.241  0.0721 -0.3312  0.1048
   59loPI   C6A  940   1.238  15.594   7.179  0.2040  0.1740  0.0376
   59loPI   C1B  941   1.049  14.061   8.516 -0.0186  0.2786 -0.2486
   59loPI   C2B  942   1.071  14.004   8.094 -0.1578 -0.2703  0.1171
   59loPI   C3B  943   0.964  13.850   7.666  0.4528  0.1236  0.1299
   59loPI   C4B  944   0.856  14.034   7.298  0.2084 -0.0035  0.3221
   60loPI    C1  945   8.074   5.569   9.937 -0.0189 -0.1141  0.1618
   60loPI    C2  946   7.683   5.609  10.010 -0.1001 -0.3510 -0.1226
   60loPI    C3  947   7.922   5.442  10.285 -0.1527  0.0068  0.1479
   60loPI   PO4  948   8.033   5.452   9.690  0.3062 -0.2811 -0.1180
   60loPI   GL1  949   8.112   5.681   9.265 -0.0757 -0.1548  0.2364
   60loPI   GL2  950   8.280   5.387   9.294 -0.0705  0.0230 -0.0242
   60loPI   C1A  951   7.720   5.616   9.074  0.1129 -0.0614  0.1316
   60loPI   C2A  952   7.465   5.305   8.975  0.3344  0.0270  0.0197
   60loPI   C3A  953   7.257   5.183   8.547  0.0445 -0.0194  0.2402
   60loPI   C4A  954   7.254   5.264   8.097  0.1364  0.2988  0.0212
   60loPI   C5A  955   7.062   5.181   7.633 -0.0138  0.0331 -0.1275
   60loPI   C6A  956   6.727   5.081   7.518 -0.0589 -0.2512  0.2719
   60loPI   C1B  957   8.176   5.437   8.828  0.1235 -0.0267  0.0083
   60loPI   C2B  958   8.401   5.594   8.510  0.0621  0.3576 -0.2797
   60loPI   C3B  959   8.561   5.502   8.096  0.1515  0.0906 -0.3098
   60loPI   C4B  960   8.744   5.312   7.713  0.1027 -0.1747 -0.0308
   61loPI    C1  961   8.634   1.849  10.343 -0.0297  0.1510  0.1298
   61loPI    C2  962   8.793   1.582  10.595  0.2255 -0.0430 -0.2276
   61loPI    C3  963   8.918   1.962  10.602  0.0846  0.0015  0.0710
   61loPI   PO4  964   8.678   1.784  10.082 -0.1818 -0.0300 -0.3379
   61loPI   GL1  965   8.764   2.033   9.657 -0.2274 -0.1184  0.1921
   61loPI   GL2  966   8.547   1.775   9.527  0.0926 -0.0382  0.0256
   61loPI   C1A  967   9.074   2.133   9.185  0.0567 -0.0319  0.4293
   61loPI   C2A  968   9.120   2.245   8.854  0.2617 -0.0891 -0.0665
   61loPI   C3A  969   9.123   2.146   8.515 -0.2709  0.0060 -0.1324
   61loPI   C4A  970   9.139   2.277   8.130 -0.1582  0.1528 -0.1541
   61loPI   C5A  971   9.173   2.371   7.661  0.0200 -0.0490  0.0748
   61loPI   C6A  972   9.060   2.360   7.294 -0.0127  0.0091  0.0578
   61loPI   C1B  973   8.755   1.789   9.224  0.3400  0.2916  0.3120
   61loPI   C2B  974   8.785   1.775   8.738 -0.0949  0.0728  0.2135
   61loPI   C3B  975   8.829   1.776   8.335  0.1225 -0.0961 -0.2412
   61loPI   C4B  976   8.859   1.447   8.064 -0.0900  0.0416  0.3001
   62loPI    C1  977  18.148  17.330  10.560 -0.1255 -0.2508 -0.0208
   62loPI    C2  978  18.503  17.299  10.379  0.0356  0.0547  0.2318
   62loPI    C3  979  18.362  16.994  10.596  0.0333 -0.1552 -0.0598
   62loPI   PO4  980  17.972  17.361  10.372  0.0251  0.2618 -0.1228
   62loPI   GL1  981  17.608  17.574  10.096 -0.2285  0.0811  0.0883
   62loPI   GL2  982  17.509  17.277  10.002 -0.0548  0.1512  0.2084
   62loPI   C1A  983  17.612  17.662   9.602 -0.0391 -0.3690 -0.0996
   62loPI   C2A  984  17.689  17.693   9.256 -0.1214  0.0231  0.3541
   62loPI   C3A  985  17.751  17.513   8.853  0.3968 -0.0374  0.2445
   62loPI   C4A  986  17.624  17.451   8.471  0.3533 -0.0564 -0.1712
   62loPI   C5A  987  17.622  17.131   8.256  0.1815  0.0533 -0.1097
   62loPI   C6A  988  17.330  17.067   7.887 -0.3005 -0.1493 -0.2306
   62loPI   C1B  989  17.821  17.097   9.684  0.2173 -0.1993 -0.0802
   62loPI   C2B  990  17.867  16.887   9.256 -0.3122 -0.1932 -0.0118
   62loPI   C3B  991  17.615  17.026   8.796 -0.1876  0.2427  0.0320
   62loPI   C4B  992  17.204  17.090   8.651  0.1880  0.3397  0.0277
   63loPI    C1  993   8.291  18.390  10.024  0.2802  0.0416  0.1833
   63loPI    C2  994   8.661  18.540  10.016  0.1905  0.2610  0.0522
   63loPI    C3  995   8.346  18.785   9.996  0.0406  0.0504 -0.2549
   63loPI   PO4  996   8.240  18.202   9.898 -0.4396  0.0174  0.0142
   63loPI   GL1  997   8.202  18.068   9.487  0.0162 -0.0986 -0.1516
   63loPI   GL2  998   8.137  17.776   9.360  0.0754 -0.1177 -0.1105
   63loPI   C1A  999   8.073  18.197   9.064 -0.1131  0.0690 -0.0223
   63loPI   C2A 1000   8.145  18.259   8.559 -0.1985 -0.1349  0.0367
   63loPI   C3A 1001   8.055  18.165   8.201  0.1843 -0.0984 -0.1476
   63loPI   C4A 1002   7.959  18.192   7.744  0.0007 -0.1800  0.0542
   63loPI   C5A 1003   7.973  17.979   7.357 -0.1460 -0.0163 -0.1470
   63loPI   C6A 1004   7.955  17.759   7.047  0.1832  0.0578 -0.1113
   63loPI   C1B 1005   8.293  17.802   8.973 -0.1621 -0.0783 -0.0044
   63loPI   C2B 1006   8.295  17.776   8.554 -0.0063 -0.3307 -0.0360
   63loPI   C3B 1007   8.353  17.769   8.033  0.0492  0.0674 -0.0135
   63loPI   C4B 1008   8.248  17.752   7.698  0.3497 -0.2035 -0.2121
   64loPI    C1 1009   5.755  18.363  10.063  0.0742 -0.2247  0.2604
   64loPI    C2 1010   5.701  18.715  10.246 -0.2495 -0.0540 -0.1468
   64loPI    C3 1011   5.589  18.376  10.427 -0.0846  0.0623  0.1813
   64loPI   PO4 1012   5.661  18.416   9.833 -0.0496  0.0865  0.2073
   64loPI   GL1 1013   5.711  18.404   9.430 -0.2094 -0.2237  0.2810
   64loPI   GL2 1014   5.423  18.480   9.250  0.0642 -0.1119 -0.2758
   64loPI   C1A 1015   5.709  18.182   8.947  0.0619  0.0304  0.0386
   64loPI   C2A 1016   5.664  18.295   8.449  0.0201 -0.1358 -0.0425
   64loPI   C3A 1017   5.415  18.220   8.061 -0.0497 -0.0364  0.0282
   64loPI   C4A 1018   5.642  18.455   7.691 -0.0259  0.4481  0.0585
   64loPI   C5A 1019   5.936  18.683   7.308  0.4485 -0.2179  0.1622
   64loPI   C6A 1020   6.385  18.750   7.287 -0.3033 -0.0015  0.0163
   64loPI   C1B 1021   5.306  18.440   8.845  0.0624  0.3147  0.0417
   64loPI   C2B 1022   5.205  18.579   8.343 -0.3056 -0.2482 -0.1390
   64loPI   C3B 1023   5.169  18.717   7.897 -0.1026  0.1631  0.0804
   64loPI   C4B 1024   5.027  18.940   7.605  0.0998  0.3886 -0.2507
   65loPI    C1 1025  13.903  16.056  10.328  0.1956  0.1075 -0.0045
   65loPI    C2 1026  14.009  16.218  10.678 -0.0065  0.1504  0.0381
   65loPI    C3 1027  13.955  15.823  10.649  0.3317  0.1061 -0.0269
   65loPI   PO4 1028  14.181  16.170  10.061  0.2116  0.0941 -0.1810
   65loPI   GL1 1029  14.138  16.180   9.563  0.0107  0.0565 -0.6301
   65loPI   GL2 1030  14.367  16.049   9.356  0.0412 -0.2723  0.0853
   65loPI   C1A 1031  13.915  16.300   9.164  0.0479  0.3885 -0.0175
   65loPI   C2A 1032  13.756  16.339   8.785 -0.1454 -0.0806 -0.0416
   65loPI   C3A 1033  13.906  16.282   8.342 -0.3275 -0.1429 -0.1118
   65loPI   C4A 1034  13.843  16.226   7.854  0.0632  0.0511  0.1216
   65loPI   C5A 1035  14.008  15.964   7.459  0.2300 -0.1155 -0.0735
   65loPI   C6A 1036  13.930  15.551   7.282  0.0196  0.2529 -0.0838
   65loPI   C1B 1037  14.353  16.079   9.019  0.0171 -0.0858  0.1079
   65loPI   C2B 1038  14.436  16.113   8.645  0.1350  0.1874  0.1940
   65loPI   C3B 1039  14.734  16.094   8.137  0.1328  0.0564  0.1180
   65loPI   C4B 1040  14.799  15.708   7.732  0.0027  0.3278 -0.3516
   66loPI    C1 1041   8.031   4.933  10.165 -0.0281 -0.0108 -0.1365
   66loPI    C2 1042   7.779   4.636  10.072  0.0655 -0.1732  0.1178
   66loPI    C3 1043   7.693   4.886  10.373 -0.0638  0.1273 -0.1624
   66loPI   PO4 1044   8.163   5.008   9.948 -0.0840  0.1313  0.3543
   66loPI   GL1 1045   8.116   4.931   9.486  0.0547 -0.0718 -0.0744
   66loPI   GL2 1046   7.913   4.699   9.586  0.2506 -0.0096 -0.1061
   66loPI   C1A 1047   7.891   5.148   9.193  0.1498  0.1013  0.4720
   66loPI   C2A 1048   7.845   5.054   8.795 -0.0942 -0.4367  0.4457
   66loPI   C3A 1049   7.878   5.267   8.368 -0.0171 -0.3325 -0.0497
   66loPI   C4A 1050   8.041   5.664   8.162  0.1752  0.0063 -0.4544
   66loPI   C5A 1051   8.200   5.659   7.759  0.1023  0.0869 -0.0914
   66loPI   C6A 1052   8.196   5.686   7.385 -0.1151 -0.1314 -0.1808
   66loPI   C1B 1053   7.861   4.395   9.223 -0.0976  0.1478  0.1296
   66loPI   C2B 1054   7.808   4.255   8.842 -0.0509  0.2686  0.0627
   66loPI   C3B 1055   7.974   4.219   8.467 -0.3911  0.1364 -0.1955
   66loPI   C4B 1056   8.000   4.037   8.030 -0.2738 -0.1687  0.2258
   67loPI    C1 1057  11.851   2.872  10.035  0.0561  0.0529 -0.0280
   67loPI    C2 1058  11.528   2.694  10.190  0.1450 -0.1020 -0.0190
   67loPI    C3 1059  11.728   2.967  10.404 -0.1332  0.1906 -0.1250
   67loPI   PO4 1060  11.808   2.853   9.811  0.3300  0.0052 -0.0746
   67loPI   GL1 1061  11.719   3.183   9.561 -0.0441  0.0395  0.1789
   67loPI   GL2 1062  11.690   2.929   9.280 -0.0519  0.1987 -0.0906
   67loPI   C1A 1063  11.612   3.405   9.095 -0.1321 -0.6228 -0.2438
   67loPI   C2A 1064  11.624   3.564   8.706  0.3189  0.2888 -0.0675
   67loPI   C3A 1065  11.740   3.743   8.341  0.2177  0.1153 -0.0230
   67loPI   C4A 1066  11.970   4.007   8.004  0.2330  0.2040  0.3416
   67loPI   C5A 1067  11.830   4.269   7.654  0.2733  0.3330  0.0868
   67loPI   C6A 1068  11.684   4.682   7.579  0.2841 -0.2401  0.0628
   67loPI   C1B 1069  11.686   2.990   8.835 -0.0403  0.0141  0.1008
   67loPI   C2B 1070  11.752   3.171   8.462  0.2310  0.1996  0.1218
   67loPI   C3B 1071  11.906   3.287   8.127  0.0277 -0.3992  0.2731
   67loPI   C4B 1072  11.825   3.448   7.705 -0.1599  0.0813  0.0575
   68loPI    C1 1073  13.353  11.101  10.214 -0.0938  0.1741 -0.0741
   68loPI    C2 1074  13.634  11.385  10.232 -0.0978  0.1728  0.0119
   68loPI    C3 1075  13.564  11.153  10.550  0.1671 -0.1763 -0.1789
   68loPI   PO4 1076  13.310  11.034   9.948 -0.0036 -0.1053  0.1339
   68loPI   GL1 1077  13.123  11.145   9.537  0.0450 -0.2218  0.0111
   68loPI   GL2 1078  12.869  11.447   9.332  0.2710 -0.1746 -0.0904
   68loPI   C1A 1079  13.170  11.074   9.115 -0.0152  0.0237 -0.1991
   68loPI   C2A 1080  13.177  11.054   8.688 -0.1065  0.0506 -0.2505
   68loPI   C3A 1081  13.258  11.132   8.253  0.0301 -0.0487  0.2248
   68loPI   C4A 1082  13.374  11.096   7.799  0.2417  0.0513 -0.1187
   68loPI   C5A 1083  13.434  11.417   7.527 -0.0235 -0.0440  0.2682
   68loPI   C6A 1084  13.257  11.671   7.540  0.0479  0.2780  0.0128
   68loPI   C1B 1085  12.644  11.300   8.865  0.1138 -0.0707 -0.2039
   68loPI   C2B 1086  12.762  11.287   8.425  0.0510 -0.0623  0.1388
   68loPI   C3B 1087  12.902  11.300   7.966 -0.0834 -0.0692 -0.1374
   68loPI   C4B 1088  12.878  11.358   7.496 -0.0942  0.2471 -0.2310
   69loPI    C1 1089  18.737  17.681  10.150  0.1233 -0.0754  0.0266
   69loPI    C2 1090  19.019  17.484  10.353  0.1114  0.0017  0.1189
   69loPI    C3 1091  19.043  17.881  10.313 -0.0960  0.0353  0.3113
   69loPI   PO4 1092  18.576  17.597   9.915 -0.2262 -0.3738 -0.2375
   69loPI   GL1 1093  18.561  17.293   9.561 -0.0787 -0.1299  0.1822
   69loPI   GL2 1094  18.798  17.469   9.415 -0.2062  0.2630 -0.2936
   69loPI   C1A 1095  18.170  17.377   9.235 -0.1816 -0.1092 -0.0610
   69loPI   C2A 1096  18.262  17.535   8.891  0.1899 -0.2029 -0.0273
   69loPI   C3A 1097  18.075  17.631   8.468  0.0840  0.1309 -0.0267
   69loPI   C4A 1098  17.729  17.570   8.033 -0.2914  0.0186  0.2480
   69loPI   C5A 1099  17.285  17.567   7.967  0.0262 -0.1136 -0.3273
   69loPI   C6A 1100  16.934  17.841   8.068  0.2777  0.1367  0.1089
   69loPI   C1B 1101  18.669  17.278   9.071 -0.0845  0.1189 -0.3532
   69loPI   C2B 1102  18.616  17.347   8.578 -0.4580 -0.0122  0.3464
   69loPI   C3B 1103  18.476  17.489   8.238 -0.2218  0.0238  0.3708
   69loPI   C4B 1104  18.160  17.593   7.829  0.0353  0.4608 -0.1359
   70loPI    C1 1105  17.859   7.216  10.282 -0.1292 -0.1015  0.0734
   70loPI    C2 1106  17.886   7.574  10.459  0.4198 -0.0491 -0.0969
   70loPI    C3 1107  17.578   7.332  10.542  0.0041  0.4843 -0.0296
   70loPI   PO4 1108  17.883   7.255   9.993 -0.1293 -0.1704  0.0378
   70loPI   GL1 1109  17.976   7.441   9.580 -0.0858  0.3416 -0.1747
   70loPI   GL2 1110  18.366   7.334   9.620  0.1714  0.0925 -0.0651
   70loPI   C1A 1111  18.032   7.351   9.082  0.1087 -0.1063 -0.0214
   70loPI   C2A 1112  17.942   7.336   8.643  0.3088 -0.0836 -0.0369
   70loPI   C3A 1113  18.009   7.248   8.225 -0.0537 -0.1675  0.1387
   70loPI   C4A 1114  17.854   7.357   7.840  0.0911  0.1556  0.2788
   70loPI   C5A 1115  17.797   7.602   7.517  0.0276  0.1880  0.0256
   70loPI   C6A 1116  18.085   7.774   7.335 -0.0093  0.1579  0.3224
   70loPI   C1B 1117  18.522   7.280   9.226  0.2574  0.0226  0.0846
   70loPI   C2B 1118  18.813   7.254   8.846 -0.2725  0.0037  0.3191
   70loPI   C3B 1119  18.827   7.138   8.381 -0.0770 -0.1705  0.1797
   70loPI   C4B 1120  18.857   7.200   7.988 -0.0920 -0.2510  0.0495
   71loPI    C1 1121  11.030   5.271  10.548  0.2378  0.2044 -0.2494
   71loPI    C2 1122  11.025   5.551  10.834 -0.2400  0.0209 -0.0687
   71loPI    C3 1123  11.225   5.209  10.891 -0.3618 -0.0291  0.0636
   71loPI   PO4 1124  11.023   5.458  10.285 -0.1394 -0.2021  0.3491
   71loPI   GL1 1125  11.098   5.448   9.776 -0.1786  0.0321 -0.1600
   71loPI   GL2 1126  10.929   5.245   9.815  0.2563  0.1173 -0.2161
   71loPI   C1A 1127  11.285   5.377   9.367 -0.3595 -0.0335  0.2386
   71loPI   C2A 1128  11.186   5.237   8.903 -0.0150  0.0278  0.1509
   71loPI   C3A 1129  11.271   5.117   8.596 -0.1971  0.0409 -0.2697
   71loPI   C4A 1130  11.657   5.150   8.299 -0.0286  0.0907 -0.0039
   71loPI   C5A 1131  11.705   5.296   7.891 -0.2702 -0.0593  0.2264
   71loPI   C6A 1132  11.940   5.599   7.558 -0.3865 -0.2188  0.0574
   71loPI   C1B 1133  10.920   4.949   9.393  0.3217  0.1030  0.0505
   71loPI   C2B 1134  11.245   4.815   9.109  0.2261 -0.1653  0.0218
   71loPI   C3B 1135  11.652   5.052   8.893  0.3171  0.0582 -0.1466
   71loPI   C4B 1136  11.621   5.443   8.716 -0.2772 -0.1839 -0.1456
   72loPI    C1 1137  18.856  10.516  10.301 -0.0278  0.0611 -0.1258
   72loPI    C2 1138  18.458  10.505  10.341 -0.0042 -0.1404  0.0734
   72loPI    C3 1139  18.688  10.589  10.657  0.1163 -0.1190 -0.0192
   72loPI   PO4 1140  18.915  10.447  10.087 -0.1870 -0.0611  0.1283
   72loPI   GL1 1141  18.821  10.172   9.805 -0.4830 -0.3150  0.1674
   72loPI   GL2 1142  18.487  10.283   9.830  0.1067 -0.0608  0.2870
   72loPI   C1A 1143  18.710  10.245   9.395  0.4187  0.0391 -0.0216
   72loPI   C2A 1144  18.424  10.173   9.057  0.4349 -0.2638  0.1995
   72loPI   C3A 1145  18.127  10.268   8.646 -0.0998 -0.0269  0.0599
   72loPI   C4A 1146  18.019  10.318   8.317 -0.2880  0.0905 -0.0754
   72loPI   C5A 1147  17.785  10.203   8.067 -0.2379 -0.1134  0.3298
   72loPI   C6A 1148  17.661   9.868   7.735 -0.0530 -0.0759  0.3127
   72loPI   C1B 1149  18.213  10.142   9.475  0.0347  0.2000  0.2570
   72loPI   C2B 1150  18.199   9.794   9.246 -0.2159  0.2332 -0.0981
   72loPI   C3B 1151  18.039   9.693   8.787  0.1633 -0.1318 -0.1653
   72loPI   C4B 1152  18.062   9.705   8.401  0.4541 -0.1305  0.1834
   73loPI    C1 1153   8.953   8.275  10.168 -0.1430 -0.0387  0.1265
   73loPI    C2 1154   8.830   8.632  10.035  0.0633 -0.1030 -0.2487
   73loPI    C3 1155   8.945   8.590  10.415 -0.0908  0.1967 -0.1657
   73loPI   PO4 1156   9.041   8.096   9.862 -0.2167 -0.0032 -0.0732
   73loPI   GL1 1157   8.865   8.056   9.402 -0.0247  0.0690  0.2839
   73loPI   GL2 1158   9.068   7.794   9.250  0.1062 -0.1077  0.2959
   73loPI   C1A 1159   8.801   8.194   9.031  0.2382  0.1792 -0.0527
   73loPI   C2A 1160   8.921   8.498   8.842 -0.1430 -0.1647  0.1614
   73loPI   C3A 1161   9.032   8.503   8.472  0.0065  0.2528 -0.0539
   73loPI   C4A 1162   8.941   8.352   8.077  0.1834  0.1478  0.2234
   73loPI   C5A 1163   8.851   8.265   7.638 -0.0190 -0.1155 -0.2242
   73loPI   C6A 1164   8.907   8.304   7.080  0.2088  0.0216  0.1986
   73loPI   C1B 1165   8.876   7.719   8.866  0.0705 -0.2985  0.0903
   73loPI   C2B 1166   8.940   7.926   8.337  0.1943 -0.0232  0.4774
   73loPI   C3B 1167   9.059   7.875   7.855 -0.0610 -0.1615  0.1791
   73loPI   C4B 1168   9.153   8.007   7.354 -0.1324 -0.2371 -0.0858
   74loPI    C1 1169   6.076  17.470   9.767 -0.0625  0.0633  0.0531
   74loPI    C2 1170   5.880  17.158   9.922  0.0428  0.0382  0.1374
   74loPI    C3 1171   6.278  17.146   9.887  0.0229  0.0563 -0.1077
   74loPI   PO4 1172   5.959  17.495   9.488  0.1834 -0.0444 -0.2184
   74loPI   GL1 1173   5.807  17.645   9.142  0.1825  0.0678 -0.0527
   74loPI   GL2 1174   5.496  17.424   9.055 -0.0030 -0.1050 -0.0759
   74loPI   C1A 1175   5.924  17.755   8.627 -0.1401 -0.2181  0.0626
   74loPI   C2A 1176   6.160  17.811   8.349 -0.1288 -0.0430 -0.0267
   74loPI   C3A 1177   6.198  17.788   7.867 -0.0410  0.2071 -0.1533
   74loPI   C4A 1178   6.256  17.645   7.438  0.3403 -0.2867 -0.2585
   74loPI   C5A 1179   6.018  17.527   7.110 -0.3665 -0.0631 -0.3007
   74loPI   C6A 1180   6.022  17.720   6.816 -0.2862  0.1310 -0.0679
   74loPI   C1B 1181   5.527  17.393   8.689  0.2338  0.2352 -0.0610
   74loPI   C2B 1182   5.584  17.172   8.206  0.0971 -0.0673 -0.2581
   74loPI   C3B 1183   5.485  16.848   7.874  0.3203 -0.4392  0.2497
   74loPI   C4B 1184   5.244  16.504   7.648  0.0745 -0.0546 -0.0208
   75loPI    C1 1185  14.034   3.388   9.691  0.0601  0.1768 -0.0090
   75loPI    C2 1186  13.717   3.592   9.558 -0.0053  0.0728 -0.0143
   75loPI    C3 1187  14.080   3.760   9.552 -0.0701  0.2172  0.0546
   75loPI   PO4 1188  14.076   3.202   9.491  0.0795  0.1202 -0.0987
   75loPI   GL1 1189  13.960   3.098   9.124  0.1862  0.1659 -0.0217
   75loPI   GL2 1190  14.025   3.463   9.104  0.1349 -0.0929  0.3092
   75loPI   C1A 1191  13.788   2.939   8.707  0.1282  0.1051  0.0335
   75loPI   C2A 1192  13.788   2.922   8.228 -0.0295  0.1374 -0.0793
   75loPI   C3A 1193  13.816   2.727   7.885 -0.0461 -0.3649 -0.1519
   75loPI   C4A 1194  13.981   2.364   7.583  0.1184 -0.0204 -0.0233
   75loPI   C5A 1195  14.407   2.301   7.456 -0.2362 -0.2456 -0.0421
   75loPI   C6A 1196  14.879   2.441   7.607 -0.1690  0.0919  0.0037
   75loPI   C1B 1197  14.108   3.594   8.743 -0.0643  0.1235 -0.2109
   75loPI   C2B 1198  14.066   3.541   8.274 -0.0088 -0.1016 -0.3404
   75loPI   C3B 1199  13.971   3.361   7.878 -0.2754 -0.0272 -0.2846
   75loPI   C4B 1200  13.744   3.394   7.574  0.1452 -0.2374  0.1149
   76loPI    C1 1201   9.183  12.389  10.249  0.0790  0.0396  0.0804
   76loPI    C2 1202   9.419  12.691  10.364  0.1471  0.0893 -0.1836
   76loPI    C3 1203   9.444  12.336  10.548  0.1381  0.2132  0.0606
   76loPI   PO4 1204   9.224  12.343  10.041 -0.2105  0.0516 -0.1838
   76loPI   GL1 1205   9.424  12.152   9.781 -0.0112  0.3424 -0.0383
   76loPI   GL2 1206   9.564  12.326   9.555  0.2409 -0.2028  0.4182
   76loPI   C1A 1207   9.195  12.011   9.393  0.2088 -0.0830  0.0636
   76loPI   C2A 1208   9.258  11.976   9.075  0.0975  0.4106  0.1140
   76loPI   C3A 1209   9.057  11.987   8.657 -0.0653 -0.1827  0.1256
   76loPI   C4A 1210   9.037  11.968   8.193  0.2500  0.4276  0.1047
   76loPI   C5A 1211   9.046  11.854   7.726  0.1687  0.0919  0.0650
   76loPI   C6A 1212   8.914  11.999   7.361 -0.3419  0.2843 -0.1349
   76loPI   C1B 1213   9.678  12.294   9.152 -0.1460 -0.3641 -0.0414
   76loPI   C2B 1214   9.609  12.075   8.766  0.1663  0.1049 -0.0136
   76loPI   C3B 1215   9.481  11.982   8.443 -0.1590  0.2200 -0.2183
   76loPI   C4B 1216   9.403  12.220   8.007  0.1521  0.1085 -0.0711
   77loPI    C1 1217   2.217  18.442  10.174  0.2235  0.1403  0.1658
   77loPI    C2 1218   2.439  18.124  10.270 -0.0086 -0.1058 -0.0939
   77loPI    C3 1219   2.121  18.221  10.493  0.1454  0.0336  0.0689
   77loPI   PO4 1220   2.268  18.297   9.798 -0.1397 -0.3554  0.1763
   77loPI   GL1 1221   2.536  18.586   9.399  0.0520  0.0173 -0.1235
   77loPI   GL2 1222   2.313  18.346   9.249  0.2568 -0.1266  0.1658
   77loPI   C1A 1223   2.434  18.801   9.050 -0.1486 -0.2694  0.1829
   77loPI   C2A 1224   2.567  18.902   8.647  0.0127 -0.1139  0.2812
   77loPI   C3A 1225   2.539  18.868   8.232 -0.0774  0.0388 -0.1890
   77loPI   C4A 1226   2.535  18.686   7.868 -0.1256  0.3032 -0.1113
   77loPI   C5A 1227   2.511  18.702   7.424 -0.2006 -0.1919  0.1591
   77loPI   C6A 1228   2.548  18.843   6.927 -0.0936 -0.4279  0.2387
   77loPI   C1B 1229   2.022  18.559   8.960  0.1255  0.1070 -0.0847
   77loPI   C2B 1230   1.753  18.623   8.630  0.3391  0.4020  0.2357
   77loPI   C3B 1231   1.834  18.794   8.138  0.0406 -0.2510 -0.1841
   77loPI   C4B 1232   2.084  18.788   7.819 -0.2464 -0.2364  0.0825
   78loPI    C1 1233   0.720  18.795  10.371  0.1097 -0.5095  0.1060
   78loPI    C2 1234   0.487  19.067  10.549  0.0623 -0.2196 -0.3802
   78loPI    C3 1235   0.756  18.864  10.763  0.1645  0.2764 -0.0198
   78loPI   PO4 1236   0.807  18.895  10.068  0.1578 -0.0090 -0.5553
   78loPI   GL1 1237   0.737  18.947   9.653  0.0194  0.3174  0.1217
   78loPI   GL2 1238   0.425  18.825   9.556  0.0617 -0.0824 -0.2413
   78loPI   C1A 1239   1.018  18.785   9.309  0.0765 -0.0610  0.0154
   78loPI   C2A 1240   1.276  18.945   8.973 -0.0415 -0.1409 -0.0483
   78loPI   C3A 1241   1.493  19.065   8.563 -0.1716  0.0277 -0.0283
   78loPI   C4A 1242   1.542  19.358   8.273  0.0026 -0.0213  0.1853
   78loPI   C5A 1243   1.479  19.178   7.888 -0.1980 -0.1323  0.3471
   78loPI   C6A 1244   1.510  19.361   7.399 -0.1693 -0.4016 -0.2100
   78loPI   C1B 1245   0.556  18.871   9.120  0.1567  0.1011  0.0272
   78loPI   C2B 1246   0.631  19.018   8.580 -0.1645 -0.2550 -0.1169
   78loPI   C3B 1247   0.539  19.036   8.120 -0.2222  0.4235  0.2415
   78loPI   C4B 1248   0.134  19.068   7.832  0.0099 -0.4280 -0.0418
   79loPI    C1 1249   6.205   2.288  10.263  0.1909  0.0621  0.1642
   79loPI    C2 1250   5.874   2.290  10.488 -0.0557 -0.0657 -0.1896
   79loPI    C3 1251   6.231   2.226  10.658 -0.2336 -0.1407  0.1648
   79loPI   PO4 1252   6.121   2.238  10.031  0.0269  0.0369  0.1314
   79loPI   GL1 1253   6.249   2.030   9.611 -0.3317 -0.0463  0.2120
   79loPI   GL2 1254   6.423   2.372   9.556  0.0988  0.2973  0.1133
   79loPI   C1A 1255   6.238   2.151   9.089 -0.2873  0.1782 -0.0326
   79loPI   C2A 1256   6.233   2.143   8.649  0.2202  0.0260  0.2048
   79loPI   C3A 1257   5.975   2.068   8.364 -0.0598  0.0050  0.0171
   79loPI   C4A 1258   5.758   1.930   8.077 -0.2354 -0.1711 -0.0204
   79loPI   C5A 1259   5.422   1.638   7.854 -0.0544 -0.3165 -0.2419
   79loPI   C6A 1260   5.543   1.478   7.520  0.0790  0.1246  0.0778
   79loPI   C1B 1261   6.659   2.335   9.256 -0.1522  0.0334  0.0275
   79loPI   C2B 1262   6.666   2.370   8.845  0.2201 -0.1285  0.2171
   79loPI   C3B 1263   6.684   2.552   8.506 -0.2490  0.4495 -0.2590
   79loPI   C4B 1264   6.902   2.462   8.247  0.2028 -0.0460  0.2259
   80loPI    C1 1265   8.713  11.394   9.960  0.1057 -0.2541  0.1038
   80loPI    C2 1266   8.725  11.239  10.328 -0.1360 -0.0185  0.2140
   80loPI    C3 1267   8.693  11.635  10.278 -0.5084 -0.0775 -0.0546
   80loPI   PO4 1268   8.622  11.180   9.785 -0.0669  0.1473  0.0764
   80loPI   GL1 1269   8.238  10.998   9.642  0.0287  0.2378 -0.2325
   80loPI   GL2 1270   8.392  10.751   9.562 -0.0396 -0.1731  0.1979
   80loPI   C1A 1271   8.267  11.173   9.236 -0.0755 -0.0627  0.2798
   80loPI   C2A 1272   8.444  11.273   8.771  0.1341  0.0954  0.2986
   80loPI   C3A 1273   8.474  11.200   8.372  0.2374 -0.2908 -0.0648
   80loPI   C4A 1274   8.535  11.188   7.987  0.2138  0.0370 -0.1349
   80loPI   C5A 1275   8.470  11.109   7.511  0.1438 -0.1230  0.3277
   80loPI   C6A 1276   8.265  10.988   7.128  0.1744 -0.2752 -0.4154
   80loPI   C1B 1277   8.411  10.715   9.068 -0.1647  0.1778 -0.1763
   80loPI   C2B 1278   8.433  10.779   8.614 -0.3259  0.2689 -0.1294
   80loPI   C3B 1279   8.549  10.698   8.245  0.0736 -0.0207 -0.2532
   80loPI   C4B 1280   8.486  10.679   7.791  0.2325  0.1589 -0.1716
   81loPI    C1 1281   6.245  13.606   9.881 -0.0026  0.0505  0.2491
   81loPI    C2 1282   6.148  13.623  10.268 -0.0438 -0.1092  0.2466
   81loPI    C3 1283   6.478  13.429  10.154  0.0237  0.0258  0.2108
   81loPI   PO4 1284   6.046  13.477   9.730 -0.1066 -0.0616 -0.0341
   81loPI   GL1 1285   6.104  13.299   9.325 -0.0761  0.2290  0.0984
   81loPI   GL2 1286   6.432  13.442   9.369  0.1165  0.1476  0.0270
   81loPI   C1A 1287   6.087  13.077   8.904 -0.1522 -0.0834 -0.0913
   81loPI   C2A 1288   5.975  12.985   8.523  0.0312  0.1764 -0.0128
   81loPI   C3A 1289   6.098  12.938   8.177  0.1136  0.1055 -0.2473
   81loPI   C4A 1290   6.201  13.002   7.673  0.0580 -0.1328  0.2579
   81loPI   C5A 1291   6.327  12.774   7.371  0.0928 -0.1810  0.0200
   81loPI   C6A 1292   6.264  12.786   6.948 -0.3655 -0.0591  0.1061
   81loPI   C1B 1293   6.540  13.228   8.942  0.0074 -0.0422 -0.0968
   81loPI   C2B 1294   6.479  13.000   8.553  0.1549  0.0180  0.0257
   81loPI   C3B 1295   6.595  12.772   8.178 -0.4489 -0.2368 -0.4048
   81loPI   C4B 1296   6.748  12.695   7.804  0.1592  0.0882 -0.0853
   82loPI    C1 1297   4.485  16.433  10.197 -0.1424 -0.0881 -0.1228
   82loPI    C2 1298   4.133  16.412  10.385 -0.0229 -0.0763  0.1051
   82loPI    C3 1299   4.425  16.154  10.477  0.0186 -0.1054 -0.1044
   82loPI   PO4 1300   4.484  16.463   9.801 -0.0940 -0.2155  0.0771
   82loPI   GL1 1301   4.556  16.264   9.401 -0.1868  0.1582 -0.1702
   82loPI   GL2 1302   4.214  16.285   9.401 -0.2876  0.2457  0.3543
   82loPI   C1A 1303   4.683  16.346   9.093  0.0058  0.2997 -0.1463
   82loPI   C2A 1304   4.852  16.421   8.684  0.0832 -0.4344 -0.0717
   82loPI   C3A 1305   4.663  16.394   8.269  0.1211 -0.2569 -0.0541
   82loPI   C4A 1306   4.595  16.406   7.772  0.2419  0.1970 -0.2601
   82loPI   C5A 1307   4.533  16.835   7.720  0.0225 -0.1586 -0.0668
   82loPI   C6A 1308   4.633  17.308   7.772 -0.0221  0.2130 -0.0130
   82loPI   C1B 1309   4.262  16.661   9.020 -0.0254 -0.1171  0.0045
   82loPI   C2B 1310   4.362  16.872   8.623 -0.0898 -0.1800  0.0548
   82loPI   C3B 1311   4.514  16.910   8.200  0.2316  0.0896 -0.3826
   82loPI   C4B 1312   4.162  16.639   7.958  0.0279 -0.3161  0.0615
   83loPI    C1 1313  12.528  10.137  10.118  0.0719  0.0507 -0.0372
   83loPI    C2 1314  12.841   9.948  10.280  0.0940  0.0100 -0.1272
   83loPI    C3 1315  12.479   9.917  10.449  0.0601 -0.2626 -0.2428
   83loPI   PO4 1316  12.595  10.155   9.787  0.1545 -0.1276 -0.1958
   83loPI   GL1 1317  12.779   9.866   9.519 -0.0086  0.1375 -0.2879
   83loPI   GL2 1318  13.054   9.709   9.568  0.0725 -0.1430 -0.1940
   83loPI   C1A 1319  12.763   9.974   9.176 -0.0657 -0.1155 -0.0378
   83loPI   C2A 1320  12.797   9.924   8.771 -0.0426 -0.3047 -0.1326
   83loPI   C3A 1321  12.753   9.884   8.402 -0.0676  0.1349  0.0200
   83loPI   C4A 1322  12.558  10.067   8.052 -0.0817  0.2079  0.0855
   83loPI   C5A 1323  12.727  10.314   7.690 -0.3114 -0.1247 -0.2192
   83loPI   C6A 1324  13.135  10.248   7.609  0.2408 -0.1474 -0.3515
   83loPI   C1B 1325  13.074   9.597   9.117  0.1088 -0.0560 -0.2330
   83loPI   C2B 1326  13.203   9.571   8.747  0.0941 -0.0193 -0.1107
   83loPI   C3B 1327  13.393   9.393   8.446 -0.0474 -0.1555  0.1337
   83loPI   C4B 1328  13.529   9.300   8.076  0.0808 -0.0704 -0.0451
   84loPI    C1 1329   3.491  15.307   9.868 -0.1388  0.1117  0.0560
   84loPI    C2 1330   3.524  14.999   9.615  0.1555  0.1071  0.0960
   84loPI    C3 1331   3.529  14.935  10.009 -0.3446  0.1100  0.1088
   84loPI   PO4 1332   3.420  15.594   9.724  0.0930 -0.2875 -0.0451
   84loPI   GL1 1333   3.107  15.621   9.323 -0.0445 -0.3010  0.2346
   84loPI   GL2 1334   2.884  15.556   9.054  0.1241  0.1986 -0.1855
   84loPI   C1A 1335   3.462  15.611   9.049  0.2063 -0.2691 -0.0451
   84loPI   C2A 1336   3.705  15.512   8.722 -0.2554  0.1654 -0.0022
   84loPI   C3A 1337   3.866  15.385   8.375 -0.0034  0.2048 -0.2991
   84loPI   C4A 1338   3.748  15.467   7.946  0.0101 -0.1112 -0.0653
   84loPI   C5A 1339   3.832  15.808   7.754  0.0845  0.0370  0.0039
   84loPI   C6A 1340   4.099  16.029   7.766 -0.0483 -0.1104  0.1218
   84loPI   C1B 1341   3.049  15.579   8.666 -0.1086  0.0154  0.1989
   84loPI   C2B 1342   2.863  15.845   8.295  0.0015  0.2069  0.1864
   84loPI   C3B 1343   2.888  15.885   7.923 -0.0591 -0.2628  0.0331
   84loPI   C4B 1344   2.823  16.343   7.879  0.1020  0.3143 -0.0094
   85loPI    C1 1345  14.336   0.518  10.107 -0.0069  0.0118  0.0756
   85loPI    C2 1346  14.724   0.570  10.192 -0.0189 -0.1280  0.2206
   85loPI    C3 1347  14.497   0.337  10.425 -0.2143  0.0325  0.1944
   85loPI   PO4 1348  14.359   0.447   9.804 -0.0131  0.0225 -0.0037
   85loPI   GL1 1349  14.240   0.555   9.454  0.1353 -0.1457 -0.3020
   85loPI   GL2 1350  14.661   0.727   9.430  0.2527 -0.1867 -0.0371
   85loPI   C1A 1351  14.255   0.466   9.079 -0.0265  0.1809  0.1596
   85loPI   C2A 1352  14.186   0.492   8.716  0.2931 -0.0578  0.1354
   85loPI   C3A 1353  14.130   0.397   8.328  0.2129  0.0576 -0.2593
   85loPI   C4A 1354  14.130   0.568   7.918  0.3501 -0.1281 -0.0719
   85loPI   C5A 1355  13.793   0.765   7.632 -0.0185  0.1991 -0.1424
   85loPI   C6A 1356  13.409   1.109   7.478 -0.0369  0.1027 -0.0338
   85loPI   C1B 1357  14.711   0.761   8.977 -0.4234  0.1246 -0.0013
   85loPI   C2B 1358  14.630   0.700   8.534 -0.1860  0.1779 -0.2276
   85loPI   C3B 1359  14.583   0.806   8.094  0.1629  0.1035 -0.1007
   85loPI   C4B 1360  14.607   1.096   7.878 -0.1848  0.0143  0.1382
   86loPI    C1 1361   6.329   1.335  10.207  0.0537  0.1736 -0.0128
   86loPI    C2 1362   6.525   1.020  10.357 -0.2631 -0.0532 -0.0647
   86loPI    C3 1363   6.302   1.248  10.597  0.1028  0.2402  0.0056
   86loPI   PO4 1364   6.161   1.278   9.992  0.1354 -0.0410  0.1618
   86loPI   GL1 1365   6.192   1.477   9.593 -0.2565  0.0041 -0.1465
   86loPI   GL2 1366   6.443   1.376   9.414  0.3084 -0.4649  0.0649
   86loPI   C1A 1367   6.056   1.632   9.203  0.2515  0.1231  0.0101
   86loPI   C2A 1368   6.171   1.628   8.783 -0.1179 -0.1041 -0.1576
   86loPI   C3A 1369   6.251   1.680   8.439  0.3750  0.1684  0.1058
   86loPI   C4A 1370   6.267   1.816   8.018  0.0443  0.0275  0.0325
   86loPI   C5A 1371   6.094   2.182   7.856 -0.2549  0.0527  0.1860
   86loPI   C6A 1372   6.060   2.616   7.933 -0.0999 -0.3618 -0.1653
   86loPI   C1B 1373   6.606   1.295   9.065 -0.5242  0.0175 -0.0517
   86loPI   C2B 1374   6.596   1.329   8.683 -0.1073 -0.0898 -0.2586
   86loPI   C3B 1375   6.709   1.513   8.389 -0.2517  0.4346  0.1490
   86loPI   C4B 1376   6.976   1.609   8.071 -0.0896  0.2533 -0.1277
   87loPI    C1 1377   8.154  11.860  10.091 -0.1538 -0.2914  0.0945
   87loPI    C2 1378   8.215  12.249  10.160 -0.2896 -0.2565  0.0205
   87loPI    C3 1379   8.137  12.002  10.465 -0.1901 -0.2285  0.0690
   87loPI   PO4 1380   8.345  11.818   9.963 -0.0143 -0.1298  0.3337
   87loPI   GL1 1381   8.433  11.662   9.576 -0.1580 -0.1151 -0.1074
   87loPI   GL2 1382   8.759  11.771   9.562 -0.2126  0.4235 -0.1756
   87loPI   C1A 1383   8.635  11.561   9.142  0.0781 -0.1392 -0.3227
   87loPI   C2A 1384   8.786  11.647   8.832 -0.3557 -0.0866 -0.1681
   87loPI   C3A 1385   8.925  11.565   8.407  0.2901 -0.1713  0.2671
   87loPI   C4A 1386   9.036  11.432   7.951  0.1653  0.0840 -0.0952
   87loPI   C5A 1387   8.947  11.372   7.523  0.0747  0.2523 -0.0898
   87loPI   C6A 1388   8.713  11.604   7.216 -0.0258 -0.1404 -0.0536
   87loPI   C1B 1389   8.624  12.066   9.282 -0.2694  0.3373 -0.2203
   87loPI   C2B 1390   8.632  12.175   8.810 -0.0556 -0.1042 -0.4309
   87loPI   C3B 1391   8.501  12.248   8.283  0.0111  0.0995  0.0034
   87loPI   C4B 1392   8.622  12.147   7.866 -0.0759  0.0244  0.1409
   88loPI    C1 1393  13.643  15.441  10.449  0.0760 -0.0214  0.1182
   88loPI    C2 1394  13.905  15.270  10.698 -0.0255 -0.2470  0.0726
   88loPI    C3 1395  13.636  15.531  10.838  0.1284 -0.1248  0.1433
   88loPI   PO4 1396  13.702  15.608  10.221 -0.0383 -0.1329  0.1453
   88loPI   GL1 1397  13.573  15.824   9.792 -0.2449 -0.2621  0.0676
   88loPI   GL2 1398  13.611  16.101   9.626  0.1054  0.1009 -0.0503
   88loPI   C1A 1399  13.425  15.630   9.420  0.0081 -0.3106 -0.1022
   88loPI   C2A 1400  13.446  15.608   8.983 -0.0681 -0.1422 -0.2100
   88loPI   C3A 1401  13.446  15.548   8.556  0.5040  0.0253 -0.0636
   88loPI   C4A 1402  13.403  15.530   8.129 -0.2042  0.0373 -0.3097
   88loPI   C5A 1403  13.278  15.546   7.726 -0.1502  0.0830 -0.2468
   88loPI   C6A 1404  13.599  15.370   7.573  0.2163  0.0955 -0.1489
   88loPI   C1B 1405  13.403  16.072   9.180 -0.1658  0.0451 -0.0554
   88loPI   C2B 1406  13.402  16.027   8.697  0.0492 -0.0968  0.3105
   88loPI   C3B 1407  13.413  16.040   8.280 -0.2790 -0.3193 -0.0304
   88loPI   C4B 1408  13.385  16.010   7.909  0.1228  0.3538 -0.2807
   89loPI    C1 1409  13.249  14.633   9.937  0.2872 -0.2724 -0.2101
   89loPI    C2 1410  13.339  14.642  10.327  0.1281  0.0462 -0.1775
   89loPI    C3 1411  13.131  14.335  10.176  0.0448  0.0035  0.0213
   89loPI   PO4 1412  13.162  14.898   9.937  0.0662 -0.4844  0.1454
   89loPI   GL1 1413  13.099  15.254   9.761  0.2219 -0.0907  0.1265
   89loPI   GL2 1414  12.877  15.381   9.580 -0.1584  0.5531  0.2491
   89loPI   C1A 1415  13.289  15.215   9.312 -0.1018 -0.0281  0.3623
   89loPI   C2A 1416  13.361  14.803   8.995 -0.0688  0.1663 -0.0087
   89loPI   C3A 1417  13.375  14.762   8.605 -0.0497  0.0984  0.0764
   89loPI   C4A 1418  13.535  14.594   8.309 -0.3678  0.0975 -0.1764
   89loPI   C5A 1419  13.494  14.473   7.969  0.0608  0.0730  0.2784
   89loPI   C6A 1420  13.647  14.406   7.434 -0.0424 -0.1500 -0.0330
   89loPI   C1B 1421  12.863  15.415   9.151 -0.1613 -0.1624  0.0019
   89loPI   C2B 1422  13.173  15.208   8.748 -0.1727 -0.0113  0.1308
   89loPI   C3B 1423  13.173  15.119   8.305 -0.1872  0.0294  0.1164
   89loPI   C4B 1424  13.460  15.046   7.969  0.5003 -0.2087  0.0010
   90loPI    C1 1425  15.296  14.828   9.912 -0.1708 -0.0763  0.0640
   90loPI    C2 1426  15.639  14.670   9.779 -0.2523 -0.0734 -0.1546
   90loPI    C3 1427  15.639  14.907  10.102 -0.1162 -0.4462  0.1256
   90loPI   PO4 1428  15.125  14.763   9.768  0.1936  0.0687 -0.0238
   90loPI   GL1 1429  15.305  14.646   9.341 -0.0388  0.0175 -0.0794
   90loPI   GL2 1430  15.452  14.378   9.334 -0.0014  0.0734 -0.2940
   90loPI   C1A 1431  14.994  14.708   9.018  0.1279  0.0045  0.1057
   90loPI   C2A 1432  14.994  14.748   8.551 -0.0771 -0.2866  0.4086
   90loPI   C3A 1433  15.091  14.868   8.009 -0.1516 -0.0815 -0.0705
   90loPI   C4A 1434  15.300  14.733   7.593  0.0948 -0.0968 -0.0584
   90loPI   C5A 1435  15.496  14.712   7.240 -0.3545 -0.0469  0.2213
   90loPI   C6A 1436  15.683  14.721   6.792  0.2554  0.1432  0.0684
   90loPI   C1B 1437  15.340  14.312   8.881  0.3096 -0.2389  0.1278
   90loPI   C2B 1438  15.195  13.981   8.563  0.3832 -0.0185 -0.1863
   90loPI   C3B 1439  15.221  13.820   8.152  0.0136  0.0785 -0.3689
   90loPI   C4B 1440  15.022  13.865   7.707  0.0319  0.1714 -0.1509
   91loPI    C1 1441  18.071  18.307  10.290 -0.2741 -0.1714  0.3323
   91loPI    C2 1442  18.323  18.158  10.563 -0.0682 -0.1294  0.1675
   91loPI    C3 1443  18.082  18.464  10.658  0.0544 -0.0669  0.2805
   91loPI   PO4 1444  18.024  18.097  10.114 -0.4023 -0.3179 -0.1605
   91loPI   GL1 1445  18.172  18.000   9.781  0.0626  0.1669 -0.0899
   91loPI   GL2 1446  18.157  17.666   9.650 -0.3152  0.1606  0.1971
   91loPI   C1A 1447  17.745  18.136   9.477  0.0870 -0.1087  0.1037
   91loPI   C2A 1448  17.576  18.122   9.001 -0.0106 -0.2623 -0.0224
   91loPI   C3A 1449  17.573  17.961   8.574 -0.0866 -0.0704 -0.0001
   91loPI   C4A 1450  17.478  17.915   8.275 -0.2094 -0.2110  0.2610
   91loPI   C5A 1451  17.283  18.112   7.792  0.1887 -0.0175  0.0757
   91loPI   C6A 1452  17.068  18.303   7.335 -0.2727 -0.1305 -0.1378
   91loPI   C1B 1453  18.137  17.862   9.294  0.1754 -0.1475  0.2138
   91loPI   C2B 1454  18.047  18.012   8.823  0.1677  0.3317 -0.3266
   91loPI   C3B 1455  18.042  18.162   8.296  0.0225  0.1112  0.4141
   91loPI   C4B 1456  17.782  18.218   8.063  0.1178 -0.0551  0.1394
   92loPI    C1 1457  15.184   4.927  10.177  0.0931 -0.0113  0.1448
   92loPI    C2 1458  15.558   4.821  10.085 -0.0285 -0.2421 -0.0993
   92loPI    C3 1459  15.383   4.671  10.412  0.1330 -0.0346  0.0857
   92loPI   PO4 1460  15.013   4.874   9.948 -0.1833  0.3168  0.2404
   92loPI   GL1 1461  15.211   4.833   9.584  0.2156 -0.3105 -0.0155
   92loPI   GL2 1462  15.378   5.037   9.651 -0.1760 -0.0748 -0.2058
   92loPI   C1A 1463  14.990   4.769   9.304 -0.1292 -0.1097  0.2358
   92loPI   C2A 1464  15.243   4.723   8.892  0.1069 -0.0302 -0.1251
   92loPI   C3A 1465  15.167   4.757   8.447  0.2884  0.3159  0.0430
   92loPI   C4A 1466  15.244   4.956   8.089 -0.0528  0.1756  0.2026
   92loPI   C5A 1467  15.163   4.841   7.673 -0.0726 -0.1769 -0.0806
   92loPI   C6A 1468  15.025   5.135   7.439  0.0349 -0.0604 -0.1239
   92loPI   C1B 1469  15.557   5.189   9.344 -0.3003 -0.1185 -0.2371
   92loPI   C2B 1470  15.560   5.101   8.856 -0.0731  0.0141 -0.2935
   92loPI   C3B 1471  15.607   5.127   8.425  0.0395 -0.2368 -0.1349
   92loPI   C4B 1472  15.848   5.139   8.041  0.2511 -0.2740  0.0266
   93loPI    C1 1473   9.134   1.983  10.096  0.0071 -0.0351  0.0468
   93loPI    C2 1474   9.127   1.614  10.251  0.0430 -0.0333  0.0527
   93loPI    C3 1475   9.401   1.878  10.375  0.0952 -0.0432 -0.0398
   93loPI   PO4 1476   9.206   1.983   9.875 -0.5019  0.0432 -0.1219
   93loPI   GL1 1477   9.457   2.187   9.542 -0.0589 -0.0155 -0.2666
   93loPI   GL2 1478   9.132   2.358   9.561 -0.2360  0.2592 -0.0220
   93loPI   C1A 1479   9.570   2.029   9.112 -0.4560  0.1058 -0.0788
   93loPI   C2A 1480   9.717   2.024   8.745 -0.0016  0.1368 -0.0945
   93loPI   C3A 1481   9.645   2.101   8.309  0.2869 -0.0379 -0.0461
   93loPI   C4A 1482   9.560   2.132   7.846  0.2614 -0.1143  0.2401
   93loPI   C5A 1483   9.684   2.453   7.614  0.0228 -0.1319 -0.0036
   93loPI   C6A 1484   9.672   2.914   7.520 -0.1478 -0.2649  0.1090
   93loPI   C1B 1485   9.374   2.538   9.202  0.3303 -0.0016 -0.2237
   93loPI   C2B 1486   9.541   2.491   8.825 -0.2333 -0.2620 -0.0036
   93loPI   C3B 1487   9.558   2.603   8.357  0.0483  0.0316 -0.1149
   93loPI   C4B 1488   9.258   2.740   7.964  0.3892 -0.0333  0.1687
   94loPI    C1 1489  14.388   1.663   9.802  0.0208  0.0645 -0.2557
   94loPI    C2 1490  14.097   1.930   9.736  0.1009  0.2153 -0.0155
   94loPI    C3 1491  14.072   1.680  10.047  0.0593 -0.0137 -0.2002
   94loPI   PO4 1492  14.634   1.794   9.843  0.0043 -0.2576  0.0672
   94loPI   GL1 1493  14.588   1.833   9.397  0.1681  0.0707  0.3992
   94loPI   GL2 1494  14.421   2.171   9.340  0.0993  0.0774  0.0999
   94loPI   C1A 1495  14.838   1.831   9.008 -0.1950  0.0720  0.1089
   94loPI   C2A 1496  14.836   1.802   8.552  0.2231 -0.3168  0.3249
   94loPI   C3A 1497  15.045   1.778   8.229 -0.1185  0.1596 -0.1871
   94loPI   C4A 1498  15.195   1.979   7.859 -0.0800 -0.0600 -0.1841
   94loPI   C5A 1499  15.398   2.208   7.550  0.0292 -0.1927  0.0784
   94loPI   C6A 1500  15.329   2.563   7.219 -0.1021  0.0525  0.0680
   94loPI   C1B 1501  14.333   1.883   8.970 -0.1524  0.2894  0.1728
   94loPI   C2B 1502  14.297   1.863   8.648  0.4069  0.1483 -0.3191
   94loPI   C3B 1503  14.316   1.958   8.257 -0.2571 -0.0181  0.3504
   94loPI   C4B 1504  14.182   1.905   7.777 -0.3622 -0.3684  0.0899
   95loPI    C1 1505   9.607  17.513  10.309  0.1350  0.1069  0.1108
   95loPI    C2 1506   9.459  17.881  10.254 -0.0536  0.0212  0.0345
   95loPI    C3 1507   9.460  17.718  10.619 -0.1035  0.0415  0.0439
   95loPI   PO4 1508   9.435  17.411   9.980 -0.3053  0.0900 -0.1487
   95loPI   GL1 1509   9.296  17.419   9.582  0.1519 -0.1191 -0.0345
   95loPI   GL2 1510   9.111  17.466   9.399  0.2061 -0.1615  0.1790
   95loPI   C1A 1511   9.581  17.402   9.289 -0.4650 -0.0641 -0.0514
   95loPI   C2A 1512   9.602  17.431   8.827 -0.1468  0.0342  0.2685
   95loPI   C3A 1513   9.643  17.495   8.337 -0.3320  0.0061 -0.2336
   95loPI   C4A 1514   9.724  17.476   7.894  0.0106 -0.3327 -0.3999
   95loPI   C5A 1515   9.604  17.636   7.522  0.2750  0.1595 -0.0415
   95loPI   C6A 1516   9.729  17.834   7.110 -0.0515  0.0827 -0.1197
   95loPI   C1B 1517   9.134  17.469   8.978 -0.0530 -0.0429  0.2466
   95loPI   C2B 1518   9.187  17.414   8.552 -0.1978  0.2452 -0.1683
   95loPI   C3B 1519   9.168  17.428   8.140 -0.1939 -0.0385 -0.1822
   95loPI   C4B 1520   9.238  17.383   7.747 -0.1972  0.0146 -0.2173
   96loPI    C1 1521   5.700  17.925   9.771  0.0937  0.1210  0.2096
   96loPI    C2 1522   5.377  17.922  10.007 -0.1634 -0.1287 -0.1347
   96loPI    C3 1523   5.589  17.587   9.952  0.0889  0.0060 -0.0048
   96loPI   PO4 1524   5.583  17.938   9.536  0.0331 -0.0902 -0.0785
   96loPI   GL1 1525   5.264  17.883   9.270  0.2127 -0.1247  0.1066
   96loPI   GL2 1526   4.954  18.123   9.241  0.0098  0.0508 -0.1226
   96loPI   C1A 1527   5.256  17.795   8.893 -0.1440  0.1913  0.2640
   96loPI   C2A 1528   5.081  17.567   8.551  0.1000 -0.2365  0.5540
   96loPI   C3A 1529   4.970  17.789   8.178  0.4590 -0.1401 -0.0716
   96loPI   C4A 1530   4.908  17.756   7.739 -0.0806 -0.1373 -0.0412
   96loPI   C5A 1531   4.725  17.902   7.314 -0.1308  0.0677 -0.0594
   96loPI   C6A 1532   4.625  18.170   6.902 -0.2065 -0.2926  0.0341
   96loPI   C1B 1533   4.906  18.186   8.823 -0.4319  0.0932 -0.2236
   96loPI   C2B 1534   5.153  18.104   8.500 -0.1407  0.0683 -0.1122
   96loPI   C3B 1535   5.436  17.833   8.365 -0.0716  0.1748  0.2680
   96loPI   C4B 1536   5.749  17.593   8.104  0.0418  0.0239  0.2488
   97loPI    C1 1537  18.626   7.434  10.237 -0.0933  0.1774  0.2204
   97loPI    C2 1538  18.384   7.130  10.142  0.0583  0.1252 -0.0070
   97loPI    C3 1539  18.325   7.334  10.481 -0.0877 -0.1114  0.1132
   97loPI   PO4 1540  18.790   7.352   9.959  0.2505  0.0142 -0.1074
   97loPI   GL1 1541  18.813   7.551   9.505  0.1052 -0.4210 -0.0344
   97loPI   GL2 1542  19.233   7.698   9.451 -0.2062  0.0213  0.0022
   97loPI   C1A 1543  18.991   7.109   9.376 -0.0012 -0.0363 -0.0542
   97loPI   C2A 1544  19.209   6.927   8.966  0.0623 -0.4327  0.2190
   97loPI   C3A 1545  19.074   6.766   8.609 -0.1164  0.0217 -0.1085
   97loPI   C4A 1546  19.097   6.782   8.120 -0.4758 -0.1632  0.1756
   97loPI   C5A 1547  18.904   6.693   7.794 -0.1522  0.1851 -0.2119
   97loPI   C6A 1548  19.131   6.985   7.468 -0.1330  0.3096 -0.0969
   97loPI   C1B 1549  19.121   7.568   9.110 -0.2858 -0.0552 -0.3376
   97loPI   C2B 1550  19.192   7.557   8.703 -0.0744  0.0672  0.1168
   97loPI   C3B 1551  19.018   7.620   8.260  0.1941  0.0946 -0.4223
   97loPI   C4B 1552  18.820   7.760   7.920 -0.0147 -0.1609  0.1006
   98loPI    C1 1553   5.824   6.952   9.849 -0.2001 -0.1445 -0.0046
   98loPI    C2 1554   5.774   7.346   9.897  0.2232 -0.0821 -0.0361
   98loPI    C3 1555   5.743   7.101  10.212  0.1194 -0.0069  0.0130
   98loPI   PO4 1556   6.006   6.963   9.627 -0.1379 -0.0863 -0.0993
   98loPI   GL1 1557   6.161   7.090   9.169  0.2692  0.1685 -0.3950
   98loPI   GL2 1558   6.422   7.033   9.073 -0.0214 -0.0347  0.0271
   98loPI   C1A 1559   5.772   7.215   8.896  0.0964 -0.0123  0.2653
   98loPI   C2A 1560   5.802   6.952   8.584  0.1305  0.0789 -0.0030
   98loPI   C3A 1561   5.879   6.535   8.271  0.0732 -0.0892  0.1653
   98loPI   C4A 1562   5.820   6.545   7.833  0.0778  0.1147 -0.0697
   98loPI   C5A 1563   6.050   6.602   7.513 -0.1525  0.2700  0.2553
   98loPI   C6A 1564   6.331   7.086   7.582 -0.0566  0.0853 -0.0978
   98loPI   C1B 1565   6.272   7.129   8.695  0.0157 -0.1140  0.0375
   98loPI   C2B 1566   6.181   7.204   8.283  0.2685 -0.3236  0.0677
   98loPI   C3B 1567   5.954   7.024   7.980 -0.1171 -0.0945 -0.0454
   98loPI   C4B 1568   5.782   7.020   7.620  0.5802  0.0501 -0.0488
   99loPI    C1 1569  11.053  14.278  10.297  0.0544  0.2941 -0.0125
   99loPI    C2 1570  11.346  14.062  10.461  0.0838  0.2265 -0.1521
   99loPI    C3 1571  11.004  14.121  10.661  0.1083  0.1224 -0.0787
   99loPI   PO4 1572  11.264  14.241   9.969 -0.0331 -0.0178  0.1660
   99loPI   GL1 1573  11.274  14.237   9.486  0.1244 -0.1185  0.1428
   99loPI   GL2 1574  11.535  14.298   9.458 -0.0707 -0.0594  0.2093
   99loPI   C1A 1575  11.138  14.249   9.006 -0.1151 -0.1466  0.2735
   99loPI   C2A 1576  11.031  14.346   8.595 -0.0822 -0.2297 -0.2419
   99loPI   C3A 1577  10.857  14.328   8.090 -0.1801  0.1029  0.0901
   99loPI   C4A 1578  11.071  14.155   7.740 -0.2584  0.2041  0.1315
   99loPI   C5A 1579  11.431  14.209   7.449 -0.0770 -0.1152  0.1424
   99loPI   C6A 1580  11.911  14.095   7.430  0.1013  0.1090  0.2857
   99loPI   C1B 1581  11.575  14.099   9.067 -0.1285  0.2453  0.2937
   99loPI   C2B 1582  11.377  14.007   8.638 -0.2148 -0.2400  0.0429
   99loPI   C3B 1583  11.363  14.257   8.176 -0.1350 -0.0277 -0.2218
   99loPI   C4B 1584  11.271  14.580   7.855  0.0992 -0.2238 -0.2086
  100loPI    C1 1585   5.550   5.446  10.048 -0.2837 -0.0996  0.0279
  100loPI    C2 1586   5.291   5.750  10.025  0.0709  0.1999 -0.1086
  100loPI    C3 1587   5.641   5.800  10.211  0.0961 -0.1565 -0.0533
  100loPI   PO4 1588   5.456   5.354   9.736 -0.3880  0.1444 -0.2128
  100loPI   GL1 1589   5.678   5.550   9.409  0.1176  0.0856  0.2794
  100loPI   GL2 1590   5.309   5.721   9.435  0.2218  0.2815  0.0261
  100loPI   C1A 1591   5.652   5.441   8.999 -0.2380 -0.1136  0.2069
  100loPI   C2A 1592   5.835   5.607   8.616 -0.0975  0.3000 -0.0025
  100loPI   C3A 1593   5.993   5.597   8.144 -0.1024  0.2562  0.2160
  100loPI   C4A 1594   6.158   5.485   7.822  0.0119 -0.0737  0.2413
  100loPI   C5A 1595   6.334   5.466   7.547  0.1216 -0.1409 -0.0656
  100loPI   C6A 1596   6.430   5.838   7.223 -0.0771  0.2930  0.1920
  100loPI   C1B 1597   5.300   5.802   9.002  0.0213 -0.2768  0.1894
  100loPI   C2B 1598   5.357   5.499   8.577  0.0684 -0.3302 -0.2841
  100loPI   C3B 1599   5.571   5.334   8.231  0.1314 -0.1005 -0.1843
  100loPI   C4B 1600   5.619   5.377   7.778 -0.0697  0.0749 -0.3320
  101loPI    C1 1601   6.456  13.999  10.310  0.0824 -0.0585  0.1248
  101loPI    C2 1602   6.552  14.331  10.512  0.2759  0.0587 -0.1532
  101loPI    C3 1603   6.657  13.973  10.655  0.4154  0.1404 -0.0478
  101loPI   PO4 1604   6.484  14.082   9.991  0.2664 -0.0819  0.0734
  101loPI   GL1 1605   6.544  14.005   9.524 -0.0298 -0.1493 -0.2281
  101loPI   GL2 1606   6.229  13.940   9.399 -0.1516  0.0378 -0.2010
  101loPI   C1A 1607   6.820  13.693   9.209  0.1379 -0.2756 -0.3031
  101loPI   C2A 1608   6.872  13.546   8.719  0.1001 -0.1815  0.3569
  101loPI   C3A 1609   6.783  13.285   8.294  0.0881  0.2946  0.0288
  101loPI   C4A 1610   6.893  13.363   7.919  0.2036 -0.0187  0.2310
  101loPI   C5A 1611   6.780  13.221   7.569  0.2339  0.2194  0.0539
  101loPI   C6A 1612   6.676  13.066   7.155  0.4565  0.5207  0.1796
  101loPI   C1B 1613   6.342  13.742   9.047  0.0104 -0.2164 -0.3491
  101loPI   C2B 1614   6.410  13.592   8.577  0.2301  0.1657  0.0801
  101loPI   C3B 1615   6.329  13.430   8.308  0.3135  0.2357  0.1274
  101loPI   C4B 1616   6.409  13.293   8.014 -0.1637  0.2572 -0.0410
  102loPI    C1 1617   1.848   7.068  10.384 -0.1626  0.1751 -0.1563
  102loPI    C2 1618   1.643   6.727  10.434  0.1571  0.0155  0.0996
  102loPI    C3 1619   1.590   7.032  10.687 -0.0059  0.0970 -0.0310
  102loPI   PO4 1620   1.913   7.040  10.049  0.1944 -0.1753 -0.0155
  102loPI   GL1 1621   1.821   7.283   9.775 -0.1363  0.4343  0.0687
  102loPI   GL2 1622   2.140   7.331   9.567  0.2080  0.1015 -0.0431
  102loPI   C1A 1623   1.626   7.210   9.405 -0.0480  0.0878 -0.1502
  102loPI   C2A 1624   1.505   6.965   9.106 -0.0436 -0.1450 -0.1206
  102loPI   C3A 1625   1.556   6.993   8.688  0.2496  0.0914 -0.3258
  102loPI   C4A 1626   1.428   7.196   8.296  0.2510  0.2157 -0.1167
  102loPI   C5A 1627   1.482   7.438   7.918  0.4586 -0.1502  0.0874
  102loPI   C6A 1628   1.927   7.590   7.891 -0.0922  0.1063 -0.2439
  102loPI   C1B 1629   1.941   7.587   9.213  0.1755 -0.2243  0.0562
  102loPI   C2B 1630   2.025   7.821   8.885  0.0573  0.0843 -0.5155
  102loPI   C3B 1631   1.994   7.943   8.499 -0.0702  0.1299  0.2072
  102loPI   C4B 1632   1.837   8.000   8.173  0.4770  0.1407  0.0960
  103loPI    C1 1633  14.068   4.825  10.311 -0.2971  0.1198 -0.3527
  103loPI    C2 1634  13.831   5.146  10.285  0.1327  0.4794  0.0039
  103loPI    C3 1635  13.901   4.978  10.641 -0.3967 -0.2653 -0.2193
  103loPI   PO4 1636  14.077   4.770   9.997 -0.1461 -0.2743 -0.1152
  103loPI   GL1 1637  14.405   5.062   9.756 -0.0325 -0.1692  0.0948
  103loPI   GL2 1638  14.490   5.513   9.746 -0.3193  0.3788 -0.0847
  103loPI   C1A 1639  14.489   4.896   9.389 -0.0249  0.2687  0.0735
  103loPI   C2A 1640  14.586   4.952   8.966  0.0294 -0.1739 -0.1118
  103loPI   C3A 1641  14.703   5.084   8.535  0.1555 -0.0229 -0.0990
  103loPI   C4A 1642  14.759   5.216   8.138 -0.1802 -0.3130  0.1271
  103loPI   C5A 1643  14.856   5.547   7.779 -0.4212  0.0531 -0.1234
  103loPI   C6A 1644  15.062   5.618   7.300  0.3009 -0.3347 -0.0498
  103loPI   C1B 1645  14.353   5.387   9.292 -0.0582 -0.2664  0.0127
  103loPI   C2B 1646  14.527   5.489   8.837  0.1076  0.0285 -0.0716
  103loPI   C3B 1647  14.443   5.495   8.442  0.2500 -0.2469 -0.0219
  103loPI   C4B 1648  14.457   5.633   8.028 -0.3158 -0.2252 -0.0563
  104loPI    C1 1649   8.177   8.585   9.934  0.1573  0.1782  0.0126
  104loPI    C2 1650   8.242   8.913  10.153  0.0294  0.2131 -0.0009
  104loPI    C3 1651   8.378   8.558  10.279 -0.1051  0.2213  0.1717
  104loPI   PO4 1652   8.111   8.716   9.721  0.1402  0.4056 -0.1490
  104loPI   GL1 1653   8.415   8.554   9.356 -0.0073  0.1686 -0.1557
  104loPI   GL2 1654   8.337   8.270   9.302 -0.1642  0.0852  0.1272
  104loPI   C1A 1655   8.612   8.862   9.047  0.1382 -0.1633 -0.1543
  104loPI   C2A 1656   8.641   8.831   8.574  0.3803  0.2045  0.1656
  104loPI   C3A 1657   8.915   8.865   8.181 -0.0806 -0.0549  0.1342
  104loPI   C4A 1658   9.332   8.795   8.086  0.3494 -0.1737 -0.3250
  104loPI   C5A 1659   9.435   8.346   8.105  0.6354  0.0487  0.0990
  104loPI   C6A 1660   9.542   8.101   7.793  0.1943 -0.0007  0.1406
  104loPI   C1B 1661   8.312   8.424   8.910  0.3648 -0.1108 -0.0103
  104loPI   C2B 1662   8.153   8.516   8.511 -0.0315 -0.0451 -0.0289
  104loPI   C3B 1663   7.984   8.306   8.147 -0.1075 -0.0511  0.0593
  104loPI   C4B 1664   7.707   7.933   8.088  0.2310 -0.1312 -0.1919
  105loPI    C1 1665  14.540  13.904  10.215  0.1008  0.4499  0.0764
  105loPI    C2 1666  14.929  13.941  10.300  0.1327  0.1148  0.0913
  105loPI    C3 1667  14.750  13.585  10.334 -0.1862  0.2744  0.1230
  105loPI   PO4 1668  14.521  14.046  10.029 -0.1363  0.0195 -0.0760
  105loPI   GL1 1669  14.506  14.024   9.561 -0.0533  0.1711  0.1143
  105loPI   GL2 1670  14.287  14.054   9.329 -0.2651  0.1311 -0.1369
  105loPI   C1A 1671  14.760  13.900   9.200  0.3477  0.3138  0.0700
  105loPI   C2A 1672  14.693  14.033   8.852 -0.0544  0.0319 -0.1819
  105loPI   C3A 1673  14.812  14.288   8.495 -0.0107 -0.0366 -0.2968
  105loPI   C4A 1674  15.172  14.357   8.160 -0.0887 -0.2324  0.1252
  105loPI   C5A 1675  15.395  14.235   7.778  0.0947  0.0067 -0.0348
  105loPI   C6A 1676  15.582  13.821   7.758  0.1153 -0.2145  0.1817
  105loPI   C1B 1677  14.194  14.235   8.854  0.0941  0.1777  0.3976
  105loPI   C2B 1678  14.276  14.221   8.432  0.2669  0.2687  0.2565
  105loPI   C3B 1679  14.246  14.259   7.994 -0.0360 -0.0365  0.0657
  105loPI   C4B 1680  14.071  14.370   7.683  0.0410 -0.1591  0.3689
  106loPI    C1 1681   0.862   9.960  10.180  0.1386 -0.0960  0.3150
  106loPI    C2 1682   0.832   9.566  10.119  0.2627 -0.0424 -0.1278
  106loPI    C3 1683   1.169   9.720  10.269  0.2971 -0.0815 -0.1647
  106loPI   PO4 1684   0.753  10.116   9.936 -0.0529 -0.0776 -0.1326
  106loPI   GL1 1685   0.514   9.789   9.697 -0.1299 -0.2167  0.3974
  106loPI   GL2 1686   0.363  10.126   9.607  0.0143 -0.0321  0.1385
  106loPI   C1A 1687   0.372   9.560   9.345  0.3410 -0.1883 -0.3093
  106loPI   C2A 1688   0.265   9.846   9.084  0.0034 -0.1794 -0.3845
  106loPI   C3A 1689  -0.010  10.215   8.955  0.0902 -0.0721  0.0266
  106loPI   C4A 1690  -0.309  10.399   8.663  0.1738 -0.0184 -0.1659
  106loPI   C5A 1691  -0.397  10.558   8.295  0.5414 -0.0332  0.2293
  106loPI   C6A 1692  -0.575  10.384   7.965  0.1263  0.2459 -0.1882
  106loPI   C1B 1693   0.426  10.370   9.221  0.3276  0.3640 -0.4468
  106loPI   C2B 1694   0.460  10.277   8.825 -0.0070  0.4799  0.3498
  106loPI   C3B 1695   0.540  10.048   8.369  0.3962  0.5033  0.0077
  106loPI   C4B 1696   0.677   9.713   7.969 -0.1203  0.4074 -0.1255
  107loPI    C1 1697   2.858   6.978   9.992  0.2827  0.3103 -0.1465
  107loPI    C2 1698   3.215   6.974  10.171  0.1537  0.0889  0.1135
  107loPI    C3 1699   2.894   6.834  10.364  0.0060 -0.1375 -0.2859
  107loPI   PO4 1700   2.862   6.895   9.697 -0.4908 -0.2877 -0.3447
  107loPI   GL1 1701   2.595   7.018   9.427 -0.2340  0.0850  0.0780
  107loPI   GL2 1702   2.648   6.734   9.291 -0.0706  0.1466  0.0678
  107loPI   C1A 1703   2.550   7.058   8.990  0.2343 -0.4348  0.2035
  107loPI   C2A 1704   2.389   7.057   8.526 -0.0018 -0.0603 -0.0636
  107loPI   C3A 1705   2.035   7.147   8.375 -0.1232 -0.2011  0.2946
  107loPI   C4A 1706   1.808   6.996   7.987 -0.0057 -0.0730 -0.4252
  107loPI   C5A 1707   1.584   6.612   7.642 -0.2157  0.1114  0.2365
  107loPI   C6A 1708   1.559   6.498   7.252 -0.0321  0.2675 -0.0329
  107loPI   C1B 1709   2.908   6.623   8.868  0.0470 -0.2534 -0.0521
  107loPI   C2B 1710   2.825   6.778   8.418  0.0807  0.3282 -0.0054
  107loPI   C3B 1711   2.602   6.999   8.061  0.0390 -0.2783 -0.1116
  107loPI   C4B 1712   2.269   7.203   7.815  0.2075  0.0480 -0.1299
  108loPI    C1 1713  13.533   2.427   9.916 -0.1774 -0.1612 -0.0502
  108loPI    C2 1714  13.876   2.370  10.114 -0.1600  0.1547  0.0149
  108loPI    C3 1715  13.611   2.639  10.246 -0.3863 -0.0104 -0.0957
  108loPI   PO4 1716  13.488   2.385   9.738 -0.0663 -0.1956 -0.0025
  108loPI   GL1 1717  13.630   2.162   9.375 -0.0338 -0.0329 -0.0251
  108loPI   GL2 1718  13.425   1.949   9.402  0.0868 -0.1357 -0.1964
  108loPI   C1A 1719  13.907   1.964   9.189 -0.2744  0.0332  0.0794
  108loPI   C2A 1720  13.782   2.019   8.836  0.1680  0.0379 -0.1966
  108loPI   C3A 1721  13.739   1.909   8.395 -0.3524  0.0026 -0.1103
  108loPI   C4A 1722  13.647   1.884   7.889  0.3776  0.1795  0.2212
  108loPI   C5A 1723  13.405   1.824   7.504  0.1010 -0.0291 -0.4147
  108loPI   C6A 1724  13.413   1.649   7.115 -0.2004 -0.2975 -0.0857
  108loPI   C1B 1725  13.316   1.967   8.948  0.1039  0.2795  0.3333
  108loPI   C2B 1726  13.267   1.996   8.416  0.3606  0.1112  0.1117
  108loPI   C3B 1727  13.183   1.925   8.052 -0.1582  0.1566  0.0628
  108loPI   C4B 1728  12.932   1.896   7.764  0.2112  0.2176 -0.1869
  109loPI    C1 1729  18.363  14.840   9.733  0.0886  0.2533 -0.0639
  109loPI    C2 1730  18.157  14.687  10.040 -0.1752 -0.2426 -0.4710
  109loPI    C3 1731  17.976  14.931   9.780  0.0229  0.1018 -0.2940
  109loPI   PO4 1732  18.647  14.554   9.820 -0.1535  0.0508 -0.0188
  109loPI   GL1 1733  18.826  14.439   9.442 -0.0413 -0.2657 -0.1173
  109loPI   GL2 1734  18.657  14.636   9.295 -0.0269  0.1609 -0.0009
  109loPI   C1A 1735  19.121  14.224   8.957  0.2242 -0.0664  0.2269
  109loPI   C2A 1736  19.221  13.914   8.690 -0.4798 -0.1441 -0.2109
  109loPI   C3A 1737  19.177  13.823   8.206  0.3241 -0.0819 -0.1910
  109loPI   C4A 1738  18.888  13.827   7.884  0.0347 -0.3578 -0.0619
  109loPI   C5A 1739  19.109  13.707   7.541 -0.0474 -0.0971 -0.1160
  109loPI   C6A 1740  19.440  13.536   7.292  0.0701 -0.2004 -0.1578
  109loPI   C1B 1741  18.975  14.664   8.958  0.2959  0.2688 -0.1658
  109loPI   C2B 1742  19.028  14.477   8.565 -0.0265 -0.1497  0.1761
  109loPI   C3B 1743  19.088  14.735   8.222  0.1910  0.3132 -0.2289
  109loPI   C4B 1744  19.306  14.567   7.844 -0.2608  0.0724  0.2817
  110loPI    C1 1745   0.904  12.534   9.942  0.0940  0.2257 -0.1393
  110loPI    C2 1746   1.023  12.317  10.256 -0.1540 -0.1581 -0.3032
  110loPI    C3 1747   0.754  12.609  10.305  0.1158  0.0609 -0.0955
  110loPI   PO4 1748   1.150  12.509   9.812  0.0003  0.0021  0.0062
  110loPI   GL1 1749   1.237  12.341   9.475 -0.0881  0.0771 -0.0884
  110loPI   GL2 1750   1.079  12.592   9.289  0.4688 -0.1471  0.1357
  110loPI   C1A 1751   1.276  12.226   8.995 -0.0766 -0.2413  0.0909
  110loPI   C2A 1752   1.325  12.188   8.578 -0.2610  0.4178  0.2142
  110loPI   C3A 1753   1.388  12.258   8.130  0.0451 -0.1621  0.0883
  110loPI   C4A 1754   1.488  12.465   7.783  0.0726 -0.0982 -0.1087
  110loPI   C5A 1755   1.300  12.832   7.426 -0.0086  0.1467 -0.2468
  110loPI   C6A 1756   1.476  13.164   7.105 -0.0784  0.2339 -0.2976
  110loPI   C1B 1757   1.049  12.615   8.856  0.0841 -0.3442 -0.1588
  110loPI   C2B 1758   0.992  12.570   8.398 -0.1425 -0.3196  0.1332
  110loPI   C3B 1759   0.874  12.538   7.955 -0.0170  0.3108  0.0552
  110loPI   C4B 1760   0.533  12.671   7.607 -0.3385  0.3926  0.1250
  111loPI    C1 1761   1.955   0.406  10.033 -0.2137 -0.2060  0.0733
  111loPI    C2 1762   2.099   0.040  10.106  0.0780 -0.1245 -0.0809
  111loPI    C3 1763   1.954   0.261  10.406  0.0366 -0.3080  0.0361
  111loPI   PO4 1764   1.858   0.345   9.752 -0.2440  0.0375  0.1120
  111loPI   GL1 1765   1.406   0.391   9.592 -0.2721 -0.1424  0.2123
  111loPI   GL2 1766   1.590   0.469   9.318 -0.2012  0.2371  0.0933
  111loPI   C1A 1767   1.120   0.396   9.288  0.3142  0.0056 -0.1260
  111loPI   C2A 1768   0.943   0.374   8.932 -0.0362  0.0038  0.1740
  111loPI   C3A 1769   1.074   0.279   8.411  0.2402  0.2188 -0.1412
  111loPI   C4A 1770   0.978   0.341   7.952 -0.0829 -0.1348  0.0278
  111loPI   C5A 1771   1.004   0.367   7.462  0.0625  0.1111  0.1801
  111loPI   C6A 1772   0.690   0.336   7.086 -0.3420 -0.1708  0.3021
  111loPI   C1B 1773   1.416   0.550   8.860  0.2892  0.3650 -0.1676
  111loPI   C2B 1774   1.260   0.756   8.551  0.1731 -0.2667  0.2190
  111loPI   C3B 1775   1.290   0.924   8.201  0.0039  0.0733  0.2141
  111loPI   C4B 1776   1.296   0.726   7.774 -0.0507  0.0773 -0.2713
  112loPI    C1 1777  12.855   9.213   9.920  0.1585 -0.1211 -0.1361
  112loPI    C2 1778  13.239   9.272   9.823  0.1989  0.1236  0.1573
  112loPI    C3 1779  13.073   9.482  10.121 -0.1669  0.0258  0.0280
  112loPI   PO4 1780  12.751   9.233   9.709  0.0197 -0.0458 -0.1231
  112loPI   GL1 1781  12.555   8.818   9.482 -0.0066 -0.2297 -0.1854
  112loPI   GL2 1782  12.350   9.033   9.386  0.0878 -0.4075  0.0954
  112loPI   C1A 1783  12.470   8.715   8.992 -0.1680  0.1752  0.1393
  112loPI   C2A 1784  12.464   8.624   8.561  0.1280 -0.3466 -0.3578
  112loPI   C3A 1785  12.148   8.484   8.190  0.0779  0.2002  0.0696
  112loPI   C4A 1786  12.309   8.528   7.809 -0.0605  0.0033 -0.0659
  112loPI   C5A 1787  12.002   8.730   7.427  0.1233  0.0097  0.0389
  112loPI   C6A 1788  12.002   8.968   7.143 -0.2524 -0.3037 -0.2008
  112loPI   C1B 1789  12.169   9.241   8.978  0.3195 -0.3354 -0.0430
  112loPI   C2B 1790  12.287   9.133   8.568  0.0890 -0.1392 -0.4776
  112loPI   C3B 1791  12.399   8.957   8.150 -0.2932  0.1981 -0.2382
  112loPI   C4B 1792  12.732   8.609   8.078 -0.2390 -0.0047  0.0769
  113loPI    C1 1793   4.261  15.486   9.870 -0.0020 -0.0451 -0.1287
  113loPI    C2 1794   3.880  15.593   9.935  0.0765  0.1276  0.0610
  113loPI    C3 1795   3.970  15.213   9.846 -0.1181  0.0416  0.2253
  113loPI   PO4 1796   4.322  15.579   9.635 -0.1739  0.0683 -0.0022
  113loPI   GL1 1797   4.241  15.635   9.217 -0.2290 -0.0561 -0.3290
  113loPI   GL2 1798   3.903  15.816   9.068  0.2203 -0.2683  0.1166
  113loPI   C1A 1799   4.187  15.331   8.960  0.0799 -0.3084 -0.1792
  113loPI   C2A 1800   4.300  15.129   8.579 -0.1882  0.0001 -0.1271
  113loPI   C3A 1801   4.079  15.050   8.128 -0.1166  0.0333  0.2670
  113loPI   C4A 1802   4.057  15.125   7.750 -0.3089 -0.0801  0.1940
  113loPI   C5A 1803   4.026  14.824   7.459 -0.0879 -0.1697 -0.0158
  113loPI   C6A 1804   3.809  14.457   7.238  0.2241  0.0121 -0.0086
  113loPI   C1B 1805   4.248  16.118   8.924 -0.3132 -0.0724  0.1932
  113loPI   C2B 1806   4.602  15.937   8.799  0.2458 -0.0019 -0.0983
  113loPI   C3B 1807   4.834  15.965   8.443  0.0288  0.2680 -0.0813
  113loPI   C4B 1808   4.683  15.911   7.985  0.0831 -0.0483 -0.3185
  114loPI    C1 1809   0.673  13.853   9.798 -0.1754  0.2455 -0.0242
  114loPI    C2 1810   0.454  14.163   9.924 -0.3022  0.0964  0.1274
  114loPI    C3 1811   0.323  13.790   9.981 -0.0890  0.0102  0.0637
  114loPI   PO4 1812   0.829  14.094   9.580  0.1231  0.0207  0.0933
  114loPI   GL1 1813   0.907  14.348   9.291 -0.2089  0.1629  0.1859
  114loPI   GL2 1814   0.698  14.034   9.137 -0.0187 -0.0337  0.2099
  114loPI   C1A 1815   0.615  14.589   9.166  0.0458  0.1974 -0.2501
  114loPI   C2A 1816   0.528  14.766   8.729  0.1301 -0.3074 -0.2015
  114loPI   C3A 1817   0.647  14.902   8.308 -0.2858 -0.1953  0.2348
  114loPI   C4A 1818   0.395  15.067   7.894  0.1113  0.0345  0.2874
  114loPI   C5A 1819   0.104  14.838   7.524  0.0660 -0.1705  0.4131
  114loPI   C6A 1820   0.046  15.290   7.395  0.0603 -0.0065  0.2496
  114loPI   C1B 1821   0.664  14.232   8.788  0.1495 -0.0390 -0.0460
  114loPI   C2B 1822   0.563  14.238   8.295  0.1146  0.2747 -0.1558
  114loPI   C3B 1823   0.490  14.064   7.827  0.1615 -0.5219  0.2749
  114loPI   C4B 1824   0.179  14.211   7.430 -0.0231 -0.0954 -0.1803
  115loPI    C1 1825  10.065  18.701   9.994 -0.0082 -0.0700  0.3425
  115loPI    C2 1826  10.007  19.085  10.087 -0.0670 -0.1075  0.4617
  115loPI    C3 1827   9.693  18.841  10.040 -0.0439 -0.0675  0.0642
  115loPI   PO4 1828  10.177  18.664   9.643  0.0938  0.2933  0.0422
  115loPI   GL1 1829  10.338  18.457   9.303 -0.1206 -0.2526  0.0116
  115loPI   GL2 1830  10.125  18.571   9.127 -0.2748 -0.0602 -0.2206
  115loPI   C1A 1831  10.711  18.574   8.977  0.1934  0.0267  0.3225
  115loPI   C2A 1832  10.934  18.589   8.595  0.1210  0.0554  0.1980
  115loPI   C3A 1833  11.191  18.694   8.144 -0.1783 -0.0837 -0.1138
  115loPI   C4A 1834  11.130  18.857   7.744 -0.0152  0.1217 -0.2119
  115loPI   C5A 1835  10.830  18.841   7.422 -0.1269 -0.0340 -0.2461
  115loPI   C6A 1836  10.860  19.099   7.075 -0.6048  0.2234 -0.3401
  115loPI   C1B 1837  10.240  18.667   8.811  0.0462 -0.0574 -0.1381
  115loPI   C2B 1838  10.114  18.612   8.358  0.1411  0.1457  0.0906
  115loPI   C3B 1839   9.975  18.809   8.009  0.1002 -0.0493  0.1835
  115loPI   C4B 1840   9.974  18.562   7.642 -0.1165 -0.0071 -0.1223
  116loPI    C1 1841  10.378  12.282  10.430 -0.1511  0.0562 -0.0990
  116loPI    C2 1842  10.085  12.553  10.408 -0.1730  0.0304 -0.1257
  116loPI    C3 1843  10.263  12.480  10.758 -0.1486  0.0985 -0.1235
  116loPI   PO4 1844  10.267  12.018  10.264 -0.0975  0.2107 -0.2535
  116loPI   GL1 1845   9.880  11.912   9.898 -0.1024  0.1930  0.1242
  116loPI   GL2 1846  10.306  11.907   9.751 -0.3140  0.0152 -0.0767
  116loPI   C1A 1847   9.748  11.898   9.438 -0.1919  0.5647  0.1062
  116loPI   C2A 1848   9.725  11.663   9.121 -0.0205  0.0694  0.1196
  116loPI   C3A 1849   9.872  11.608   8.692  0.0231 -0.2178 -0.2956
  116loPI   C4A 1850   9.777  11.645   8.321  0.2981 -0.2968  0.0750
  116loPI   C5A 1851   9.609  11.707   7.909  0.2467 -0.3263 -0.4173
  116loPI   C6A 1852   9.390  11.521   7.632 -0.0767 -0.1735 -0.2354
  116loPI   C1B 1853  10.165  12.145   9.453  0.0140 -0.1720 -0.1208
  116loPI   C2B 1854  10.089  12.009   9.016  0.0124  0.3509  0.0905
  116loPI   C3B 1855  10.052  12.072   8.569 -0.0920  0.4230  0.2395
  116loPI   C4B 1856   9.891  12.089   8.121 -0.1219  0.0871 -0.1124
  117loPI    C1 1857  17.662   2.528   9.827 -0.2037  0.1052  0.1127
  117loPI    C2 1858  17.592   2.603   9.440  0.1174 -0.0651  0.0184
  117loPI    C3 1859  17.552   2.895   9.710  0.2245  0.1451 -0.1894
  117loPI   PO4 1860  17.926   2.413   9.787  0.0332  0.0325  0.0990
  117loPI   GL1 1861  18.183   2.496   9.460  0.1706 -0.0038  0.0056
  117loPI   GL2 1862  18.481   2.457   9.398 -0.1282 -0.1376  0.2956
  117loPI   C1A 1863  18.102   2.668   9.117  0.2429  0.2844 -0.2895
  117loPI   C2A 1864  18.094   2.631   8.671  0.2336  0.3122 -0.1843
  117loPI   C3A 1865  18.222   2.811   8.304  0.0441  0.1569 -0.3378
  117loPI   C4A 1866  18.378   3.094   8.081 -0.1047  0.0706  0.2799
  117loPI   C5A 1867  18.517   3.456   7.944 -0.1638  0.1641 -0.2586
  117loPI   C6A 1868  18.594   3.809   7.910  0.1777 -0.1159  0.2314
  117loPI   C1B 1869  18.557   2.791   9.131 -0.0441 -0.0096 -0.1362
  117loPI   C2B 1870  18.585   2.877   8.738 -0.0701  0.0686  0.0810
  117loPI   C3B 1871  18.785   3.033   8.383 -0.0515  0.1018  0.1485
  117loPI   C4B 1872  19.016   3.096   7.982 -0.1524  0.1950  0.0260
  118loPI    C1 1873  11.057   0.102   9.907 -0.0251 -0.2013 -0.0609
  118loPI    C2 1874  11.055  -0.194  10.176 -0.4029 -0.2534 -0.1164
  118loPI    C3 1875  11.049   0.187  10.298  0.2410 -0.2574 -0.0415
  118loPI   PO4 1876  11.000   0.053   9.645  0.1591 -0.1039 -0.1600
  118loPI   GL1 1877  11.002  -0.289   9.382  0.0867 -0.0626 -0.2319
  118loPI   GL2 1878  11.196  -0.597   9.387 -0.1317  0.2072 -0.1776
  118loPI   C1A 1879  11.024  -0.010   9.048 -0.1399  0.2136  0.1760
  118loPI   C2A 1880  11.122   0.116   8.663  0.0600 -0.1895 -0.0940
  118loPI   C3A 1881  11.286   0.229   8.307 -0.2370 -0.2411 -0.1614
  118loPI   C4A 1882  11.281   0.434   7.888 -0.1004  0.4465 -0.2164
  118loPI   C5A 1883  11.637   0.464   7.584  0.0239 -0.0564  0.2538
  118loPI   C6A 1884  11.759   0.398   7.169 -0.0632  0.1439 -0.0256
  118loPI   C1B 1885  11.291  -0.426   8.982  0.0392 -0.1074  0.0431
  118loPI   C2B 1886  11.391  -0.440   8.597 -0.0738 -0.1338 -0.0662
  118loPI   C3B 1887  11.637  -0.512   8.206 -0.1975 -0.0758  0.2203
  118loPI   C4B 1888  11.835  -0.573   7.745 -0.0867 -0.0804 -0.1575
  119loPI    C1 1889   2.206   8.775   9.544  0.2799  0.4361 -0.0432
  119loPI    C2 1890   2.544   8.728   9.754  0.2258 -0.0538 -0.0552
  119loPI    C3 1891   2.408   8.430   9.523 -0.1836  0.1600 -0.0988
  119loPI   PO4 1892   2.169   8.946   9.445  0.3688 -0.0556 -0.0500
  119loPI   GL1 1893   2.413   9.152   9.239 -0.1350 -0.3539 -0.0550
  119loPI   GL2 1894   2.629   8.877   9.218  0.0868 -0.1500 -0.2231
  119loPI   C1A 1895   2.185   9.194   8.795  0.0319  0.3197 -0.2160
  119loPI   C2A 1896   2.052   9.168   8.386  0.1160  0.0395 -0.5069
  119loPI   C3A 1897   2.027   9.231   7.972 -0.1938  0.2397  0.0368
  119loPI   C4A 1898   1.724   9.261   7.699  0.3675  0.0315 -0.1210
  119loPI   C5A 1899   1.354   9.408   7.651 -0.0456  0.1432 -0.1362
  119loPI   C6A 1900   1.111   9.764   7.754  0.1251  0.0087  0.0656
  119loPI   C1B 1901   2.631   8.918   8.840  0.0127 -0.0927 -0.1930
  119loPI   C2B 1902   2.543   8.942   8.475  0.0547  0.1226  0.0494
  119loPI   C3B 1903   2.476   8.930   8.051 -0.1291 -0.0042  0.2071
  119loPI   C4B 1904   2.462   9.174   7.621 -0.2724 -0.2428 -0.0816
  120loPI    C1 1905  11.928  12.726  10.233  0.0655 -0.3033  0.2937
  120loPI    C2 1906  11.661  12.940  10.441  0.1968  0.1933 -0.0296
  120loPI    C3 1907  12.051  13.021  10.474  0.2807 -0.2418  0.1112
  120loPI   PO4 1908  11.888  12.883   9.875 -0.0882 -0.1862  0.1885
  120loPI   GL1 1909  11.913  12.678   9.454 -0.1654 -0.0596 -0.4851
  120loPI   GL2 1910  12.182  12.865   9.382  0.1423  0.3656  0.0531
  120loPI   C1A 1911  11.707  12.911   9.208  0.1527 -0.1793  0.1913
  120loPI   C2A 1912  11.658  13.115   8.751 -0.0379 -0.1174 -0.3627
  120loPI   C3A 1913  11.636  12.932   8.432 -0.0286 -0.1831  0.3400
  120loPI   C4A 1914  11.596  13.059   8.101 -0.0438 -0.0286 -0.3282
  120loPI   C5A 1915  11.744  13.392   7.869  0.0576  0.1896 -0.1549
  120loPI   C6A 1916  11.957  13.619   7.621 -0.0387 -0.2752 -0.2651
  120loPI   C1B 1917  12.126  12.786   8.864 -0.4667 -0.0444 -0.1569
  120loPI   C2B 1918  12.092  12.514   8.501  0.0195  0.2943  0.0955
  120loPI   C3B 1919  11.834  12.348   8.393  0.1118 -0.1783  0.0739
  120loPI   C4B 1920  11.711  12.039   8.254  0.2131  0.1987  0.0425
  121loPI    C1 1921   7.382   9.164  10.015 -0.1268 -0.3159  0.2614
  121loPI    C2 1922   7.762   9.046   9.982  0.0752  0.2642  0.3948
  121loPI    C3 1923   7.563   8.982  10.322  0.0439 -0.0518  0.3204
  121loPI   PO4 1924   7.252   9.084   9.686 -0.0264  0.0197  0.0733
  121loPI   GL1 1925   7.406   9.198   9.248  0.0719 -0.0319 -0.1982
  121loPI   GL2 1926   7.298   9.446   9.170 -0.0797 -0.1251 -0.1603
  121loPI   C1A 1927   7.568   9.256   8.828 -0.1320 -0.4806  0.0692
  121loPI   C2A 1928   7.723   9.289   8.429  0.0701  0.3444 -0.2253
  121loPI   C3A 1929   7.759   9.173   8.041 -0.0406 -0.5293 -0.3514
  121loPI   C4A 1930   7.699   9.229   7.551 -0.1088  0.0898 -0.3290
  121loPI   C5A 1931   7.917   9.093   7.205  0.6182 -0.1423 -0.0012
  121loPI   C6A 1932   8.229   8.790   7.046 -0.2360  0.1961  0.4503
  121loPI   C1B 1933   7.203   9.826   8.901  0.1014 -0.2412  0.2170
  121loPI   C2B 1934   7.382   9.764   8.502 -0.1370 -0.2138  0.0714
  121loPI   C3B 1935   7.526   9.632   8.128  0.0597  0.1485 -0.1863
  121loPI   C4B 1936   7.877   9.745   7.890  0.1867 -0.1558  0.0051
  122loPI    C1 1937   7.134   3.819  10.141 -0.0902 -0.0136 -0.1318
  122loPI    C2 1938   7.280   4.035  10.444 -0.1262 -0.1630 -0.0065
  122loPI    C3 1939   7.076   3.699  10.518  0.0567 -0.3204 -0.2038
  122loPI   PO4 1940   7.110   3.841   9.875  0.2597 -0.1525 -0.3854
  122loPI   GL1 1941   6.995   4.037   9.585  0.0573  0.1781  0.1427
  122loPI   GL2 1942   6.936   3.753   9.465  0.1130  0.1298  0.0438
  122loPI   C1A 1943   7.364   3.847   9.227 -0.0735  0.0649 -0.0340
  122loPI   C2A 1944   7.537   3.823   8.774  0.2151 -0.1424  0.0637
  122loPI   C3A 1945   7.686   3.793   8.378 -0.1058  0.0701 -0.2461
  122loPI   C4A 1946   7.649   3.705   7.946  0.1105  0.0904 -0.0971
  122loPI   C5A 1947   7.783   3.707   7.531  0.1746  0.3628  0.0771
  122loPI   C6A 1948   7.746   4.026   7.190 -0.3033 -0.0988  0.0553
  122loPI   C1B 1949   6.877   3.862   9.044  0.0989  0.1704  0.2057
  122loPI   C2B 1950   7.054   3.927   8.649  0.3174 -0.2951  0.1489
  122loPI   C3B 1951   7.085   3.890   8.228 -0.0780 -0.0916  0.0571
  122loPI   C4B 1952   7.178   3.747   7.789 -0.1524 -0.2756 -0.1619
  123loPI    C1 1953  11.339   9.428  10.453  0.1227 -0.3144 -0.0388
  123loPI    C2 1954  11.325   9.181  10.768  0.0589 -0.0328  0.1830
  123loPI    C3 1955  11.100   9.512  10.763  0.1609  0.0351 -0.1008
  123loPI   PO4 1956  11.305   9.333  10.227  0.1365  0.0108  0.1951
  123loPI   GL1 1957  11.265   9.412   9.916 -0.0690 -0.2363 -0.0903
  123loPI   GL2 1958  11.338   9.651   9.660 -0.4133  0.1511 -0.0569
  123loPI   C1A 1959  11.381   9.239   9.425  0.3484  0.1405 -0.0282
  123loPI   C2A 1960  11.399   9.256   8.963  0.1741 -0.1467 -0.1482
  123loPI   C3A 1961  11.449   9.357   8.530  0.0625  0.1342  0.0481
  123loPI   C4A 1962  11.628   9.638   8.148  0.0132 -0.0974 -0.0816
  123loPI   C5A 1963  11.647   9.647   7.731 -0.0507  0.1043 -0.1176
  123loPI   C6A 1964  11.443   9.892   7.591  0.0146  0.0588  0.0666
  123loPI   C1B 1965  11.311   9.701   9.234 -0.2298 -0.0157 -0.3562
  123loPI   C2B 1966  11.250   9.729   8.842  0.1024 -0.1528  0.0177
  123loPI   C3B 1967  11.174   9.812   8.414 -0.0587 -0.0623  0.0687
  123loPI   C4B 1968  11.172   9.654   7.972  0.1917  0.1375 -0.1492
  124loPI    C1 1969   8.798   7.042   9.882  0.0346  0.0776  0.0351
  124loPI    C2 1970   8.810   7.285  10.200 -0.0265  0.0280  0.0755
  124loPI    C3 1971   8.793   6.889  10.251  0.1928  0.0090  0.0094
  124loPI   PO4 1972   8.894   7.147   9.712  0.1397  0.0398 -0.2887
  124loPI   GL1 1973   8.991   7.089   9.344  0.1606 -0.1774 -0.1885
  124loPI   GL2 1974   8.824   7.283   9.178  0.1204 -0.0434 -0.1985
  124loPI   C1A 1975   9.078   6.940   8.961  0.6529 -0.1526 -0.2855
  124loPI   C2A 1976   9.238   6.984   8.478 -0.4189  0.1709 -0.0349
  124loPI   C3A 1977   9.480   6.768   8.167  0.2845 -0.1168 -0.1355
  124loPI   C4A 1978   9.558   6.473   7.885  0.0958  0.0848 -0.0275
  124loPI   C5A 1979   9.363   6.107   7.679  0.4731 -0.1511 -0.1376
  124loPI   C6A 1980   9.082   6.139   7.429  0.2686 -0.0303 -0.0052
  124loPI   C1B 1981   8.716   7.269   8.737  0.2176 -0.2348  0.2056
  124loPI   C2B 1982   8.395   7.180   8.426  0.1608  0.2389  0.2933
  124loPI   C3B 1983   8.268   6.896   8.284  0.0304  0.0629  0.3617
  124loPI   C4B 1984   8.338   6.845   7.905 -0.3612  0.0485  0.1002
  125loPI    C1 1985   6.074   5.887  10.012  0.1359 -0.0982 -0.2342
  125loPI    C2 1986   5.912   6.240  10.109  0.2964 -0.0951  0.0342
  125loPI    C3 1987   6.053   5.999  10.395  0.2306 -0.3586 -0.1508
  125loPI   PO4 1988   6.300   5.990   9.807  0.1889 -0.2260 -0.4114
  125loPI   GL1 1989   6.207   5.751   9.500 -0.1209  0.2413  0.4815
  125loPI   GL2 1990   6.107   5.985   9.321  0.1105 -0.0598  0.3846
  125loPI   C1A 1991   6.109   5.594   9.058 -0.1939  0.3573  0.0509
  125loPI   C2A 1992   6.270   5.327   8.685  0.1052  0.2134  0.3725
  125loPI   C3A 1993   6.400   5.135   8.273 -0.1477  0.1463  0.3524
  125loPI   C4A 1994   6.439   5.050   7.874  0.1360  0.2429  0.4248
  125loPI   C5A 1995   6.333   4.694   7.406  0.2042 -0.1975 -0.1170
  125loPI   C6A 1996   6.534   4.343   7.260 -0.1149 -0.2528  0.2125
  125loPI   C1B 1997   6.145   6.162   8.932 -0.1572  0.1733  0.1279
  125loPI   C2B 1998   6.042   6.127   8.442  0.2375 -0.1106 -0.1870
  125loPI   C3B 1999   5.847   6.089   8.092  0.0571  0.0669 -0.0649
  125loPI   C4B 2000   5.709   5.891   7.717 -0.0555  0.2325  0.0105
  126loPI    C1 2001   5.846  14.724   9.972 -0.1619 -0.2016  0.1862
  126loPI    C2 2002   5.712  14.958  10.268 -0.0808 -0.0694  0.1190
  126loPI    C3 2003   6.097  14.972  10.160 -0.1476  0.0154 -0.1132
  126loPI   PO4 2004   5.741  14.718   9.784 -0.4340  0.1876  0.1184
  126loPI   GL1 2005   6.021  14.808   9.497  0.2872  0.0556  0.1608
  126loPI   GL2 2006   6.389  14.972   9.522  0.1587  0.0817 -0.4328
  126loPI   C1A 2007   6.024  14.686   9.034  0.2812 -0.0323  0.1771
  126loPI   C2A 2008   6.197  14.779   8.600  0.0422  0.3994  0.0025
  126loPI   C3A 2009   6.506  14.957   8.232 -0.1248 -0.0133 -0.1392
  126loPI   C4A 2010   6.575  14.743   7.875  0.0924 -0.2099  0.0915
  126loPI   C5A 2011   6.706  14.442   7.628  0.2072  0.1018  0.1138
  126loPI   C6A 2012   7.053  14.138   7.550 -0.1591 -0.1861  0.1233
  126loPI   C1B 2013   6.436  15.098   9.112  0.0659  0.2884  0.3260
  126loPI   C2B 2014   6.439  15.332   8.640 -0.1328 -0.3877  0.1334
  126loPI   C3B 2015   6.495  15.462   8.197 -0.2027  0.2247  0.1019
  126loPI   C4B 2016   6.480  15.779   7.764 -0.2316  0.1361  0.0493
  127loPI    C1 2017  18.851   6.432  10.495 -0.0085 -0.3998 -0.0208
  127loPI    C2 2018  18.518   6.220  10.563 -0.0956 -0.2151  0.1398
  127loPI    C3 2019  18.795   6.254  10.849 -0.2448  0.1759  0.2443
  127loPI   PO4 2020  18.915   6.353  10.235  0.2283  0.1243  0.1752
  127loPI   GL1 2021  18.902   6.606   9.908  0.1164  0.1029  0.2070
  127loPI   GL2 2022  18.856   6.882   9.812 -0.0634  0.1919 -0.0016
  127loPI   C1A 2023  18.960   6.234   9.636  0.0630 -0.1478 -0.0006
  127loPI   C2A 2024  19.084   6.102   9.180 -0.0174  0.1309  0.1428
  127loPI   C3A 2025  18.955   6.309   8.713  0.0148 -0.0529 -0.0134
  127loPI   C4A 2026  18.890   6.177   8.269 -0.2183 -0.1247  0.2141
  127loPI   C5A 2027  18.641   6.282   7.914 -0.1371  0.2888  0.4887
  127loPI   C6A 2028  18.515   6.425   7.585 -0.1078 -0.1224 -0.0513
  127loPI   C1B 2029  18.636   6.770   9.518 -0.3603  0.2013  0.1454
  127loPI   C2B 2030  18.634   6.726   9.126  0.0902  0.1849  0.0116
  127loPI   C3B 2031  18.604   6.665   8.728 -0.0038 -0.1259 -0.1328
  127loPI   C4B 2032  18.684   6.659   8.333 -0.0718  0.1983  0.0208
  128loPI    C1 2033  12.646  17.946   9.995  0.1224  0.1812  0.2345
  128loPI    C2 2034  12.710  18.310   9.840  0.1314  0.1535  0.1723
  128loPI    C3 2035  12.981  18.147  10.085  0.2243  0.1025  0.0370
  128loPI   PO4 2036  12.524  17.798   9.751 -0.1263 -0.0380 -0.3554
  128loPI   GL1 2037  12.320  17.619   9.539  0.2244 -0.3337 -0.3281
  128loPI   GL2 2038  12.084  17.318   9.465 -0.0269 -0.1451 -0.1420
  128loPI   C1A 2039  12.438  17.720   9.051 -0.1138  0.0494 -0.1578
  128loPI   C2A 2040  12.535  17.910   8.627 -0.1329 -0.0759  0.4923
  128loPI   C3A 2041  12.461  17.770   8.104  0.1592  0.1035 -0.1501
  128loPI   C4A 2042  12.292  17.718   7.721 -0.1851  0.1168 -0.0710
  128loPI   C5A 2043  12.242  17.386   7.330 -0.0130  0.0922  0.1268
  128loPI   C6A 2044  12.304  17.379   6.844 -0.0374 -0.2032  0.4858
  128loPI   C1B 2045  12.098  17.350   9.143  0.1144 -0.0383 -0.1197
  128loPI   C2B 2046  12.194  17.401   8.650  0.1637  0.0122 -0.2356
  128loPI   C3B 2047  12.137  17.384   8.271  0.1121  0.0587  0.0474
  128loPI   C4B 2048  12.166  17.237   7.865 -0.0538 -0.0955 -0.0667
  129loPI    C1 2049   1.001   5.064  10.389 -0.1695  0.0315  0.1324
  129loPI    C2 2050   1.062   4.672  10.440 -0.2816  0.0105  0.1072
  129loPI    C3 2051   1.367   4.910  10.339 -0.2088 -0.0663  0.1446
  129loPI   PO4 2052   0.889   5.096  10.154  0.0611 -0.0645  0.4198
  129loPI   GL1 2053   0.509   5.168   9.939  0.1185  0.2063  0.2708
  129loPI   GL2 2054   0.637   4.900   9.750  0.1972 -0.1713 -0.1216
  129loPI   C1A 2055   0.397   5.428   9.687 -0.0524 -0.0032 -0.0866
  129loPI   C2A 2056   0.344   5.540   9.304 -0.2162 -0.0163  0.1563
  129loPI   C3A 2057   0.361   5.632   8.751  0.0418 -0.0638  0.0658
  129loPI   C4A 2058   0.341   5.778   8.364  0.6729 -0.1214  0.1247
  129loPI   C5A 2059   0.255   6.033   7.907 -0.3478 -0.1975  0.1066
  129loPI   C6A 2060   0.081   6.066   7.576 -0.3074  0.1812 -0.1301
  129loPI   C1B 2061   0.756   5.237   9.372 -0.3861 -0.0439 -0.0385
  129loPI   C2B 2062   0.801   5.292   8.962  0.0862 -0.2464  0.1228
  129loPI   C3B 2063   0.709   5.342   8.470 -0.0143  0.2177 -0.0917
  129loPI   C4B 2064   0.475   5.453   8.032  0.1662  0.0021 -0.1857
  130loPI    C1 2065  11.316   6.933  10.230 -0.1657  0.0354 -0.0585
  130loPI    C2 2066  11.188   7.123  10.558 -0.0622 -0.1561  0.0951
  130loPI    C3 2067  11.378   6.772  10.592  0.0825 -0.1048 -0.1607
  130loPI   PO4 2068  11.093   6.932  10.086 -0.0586 -0.1683 -0.1023
  130loPI   GL1 2069  10.962   7.189   9.779  0.1402  0.0758  0.2979
  130loPI   GL2 2070  10.663   7.226   9.637  0.3839 -0.1823  0.1477
  130loPI   C1A 2071  11.144   7.247   9.445 -0.1200  0.2149 -0.5421
  130loPI   C2A 2072  11.177   7.304   9.016  0.1156 -0.1289 -0.0589
  130loPI   C3A 2073  11.435   7.396   8.738 -0.1890  0.2297  0.0857
  130loPI   C4A 2074  11.524   7.382   8.286  0.0979  0.0698 -0.4042
  130loPI   C5A 2075  11.605   7.355   7.923  0.0897 -0.1268 -0.0267
  130loPI   C6A 2076  11.496   7.733   7.798  0.1461 -0.1083  0.0178
  130loPI   C1B 2077  10.410   7.310   9.180  0.0019 -0.2044 -0.2425
  130loPI   C2B 2078  10.290   7.336   8.832  0.2006 -0.2360  0.0307
  130loPI   C3B 2079  10.467   7.421   8.471  0.0892 -0.1321  0.0454
  130loPI   C4B 2080  10.498   7.322   8.052  0.0158  0.3040 -0.3374
  131loPI    C1 2081   5.279  13.154   9.883 -0.1405 -0.0091 -0.1093
  131loPI    C2 2082   5.072  13.070  10.215 -0.2030 -0.1452 -0.1820
  131loPI    C3 2083   5.132  12.786   9.939  0.0247 -0.0891 -0.1924
  131loPI   PO4 2084   5.164  13.326   9.804  0.1313 -0.0340  0.2053
  131loPI   GL1 2085   5.315  13.714   9.433 -0.2336  0.0730  0.1123
  131loPI   GL2 2086   5.665  13.810   9.479  0.1055 -0.2294  0.3565
  131loPI   C1A 2087   5.224  13.915   9.037 -0.0002  0.0104 -0.0391
  131loPI   C2A 2088   5.504  13.903   8.705  0.1807 -0.0047 -0.1069
  131loPI   C3A 2089   5.605  14.064   8.237 -0.0770 -0.1580  0.1320
  131loPI   C4A 2090   5.768  14.017   7.875  0.2776  0.2558  0.0185
  131loPI   C5A 2091   5.805  14.229   7.492  0.2087 -0.1812  0.0894
  131loPI   C6A 2092   5.872  14.623   7.211  0.0088 -0.1510 -0.0929
  131loPI   C1B 2093   5.612  13.504   9.093 -0.1628  0.1358  0.0401
  131loPI   C2B 2094   5.884  13.498   8.694  0.2653  0.1240  0.1120
  131loPI   C3B 2095   5.820  13.512   8.272  0.0112  0.0092  0.0284
  131loPI   C4B 2096   5.866  13.366   7.971  0.1029  0.1411 -0.1752
  132loPI    C1 2097   2.400  11.802   9.751  0.1444  0.2087 -0.1265
  132loPI    C2 2098   2.498  11.497   9.512 -0.1178 -0.1403  0.2005
  132loPI    C3 2099   2.614  11.497   9.895  0.0619  0.2795  0.1516
  132loPI   PO4 2100   2.311  12.047   9.543  0.1149  0.3731  0.0636
  132loPI   GL1 2101   2.185  12.145   9.191 -0.3098  0.0525  0.1859
  132loPI   GL2 2102   2.419  12.353   9.105 -0.4724  0.3259  0.6157
  132loPI   C1A 2103   1.935  12.078   8.769  0.0752 -0.3292 -0.1730
  132loPI   C2A 2104   1.733  11.906   8.461  0.1473  0.1225  0.0950
  132loPI   C3A 2105   1.831  11.823   8.017 -0.2110  0.0272 -0.0442
  132loPI   C4A 2106   1.818  11.924   7.567  0.0483 -0.2385  0.0329
  132loPI   C5A 2107   1.660  12.312   7.330  0.0540 -0.1353 -0.2171
  132loPI   C6A 2108   1.242  12.364   7.241 -0.1206 -0.0672  0.2340
  132loPI   C1B 2109   2.446  12.127   8.721 -0.0130  0.1765 -0.1070
  132loPI   C2B 2110   2.273  12.044   8.308  0.0740  0.2453 -0.1669
  132loPI   C3B 2111   2.298  11.824   7.956  0.0185 -0.2412 -0.2494
  132loPI   C4B 2112   2.638  11.638   7.765  0.1852  0.0580 -0.0889
  133loPI    C1 2113   6.785   4.219  10.041 -0.1437  0.0736 -0.0719
  133loPI    C2 2114   6.709   4.005  10.370 -0.1141  0.0969 -0.0498
  133loPI    C3 2115   6.922   4.342  10.396  0.1222 -0.0440 -0.1310
  133loPI   PO4 2116   6.562   4.311   9.962 -0.0408  0.0701 -0.0365
  133loPI   GL1 2117   6.472   4.257   9.514 -0.0787  0.1034 -0.1606
  133loPI   GL2 2118   6.281   4.296   9.384 -0.0831 -0.1852  0.1226
  133loPI   C1A 2119   6.791   4.394   9.205  0.0086 -0.0151 -0.0653
  133loPI   C2A 2120   6.742   4.307   8.748  0.1713 -0.0767 -0.0052
  133loPI   C3A 2121   6.782   4.339   8.305 -0.0062 -0.0982  0.0605
  133loPI   C4A 2122   6.584   4.093   8.037  0.0512  0.1882 -0.1941
  133loPI   C5A 2123   6.348   4.157   7.652  0.0913  0.0125 -0.0921
  133loPI   C6A 2124   6.211   3.909   7.269  0.1705  0.2086  0.1385
  133loPI   C1B 2125   6.379   4.159   9.039  0.0367  0.0186  0.2642
  133loPI   C2B 2126   6.280   4.145   8.588  0.3336 -0.0053  0.3164
  133loPI   C3B 2127   6.073   4.157   8.113  0.0444 -0.1511  0.4663
  133loPI   C4B 2128   5.898   3.984   7.725  0.1028 -0.1382  0.1994
  134loPI    C1 2129  16.771  18.597  10.506  0.0807  0.0600  0.0831
  134loPI    C2 2130  16.880  18.810  10.826  0.2302  0.0176  0.0614
  134loPI    C3 2131  16.720  18.446  10.872 -0.3468  0.2664  0.1150
  134loPI   PO4 2132  16.889  18.665  10.246 -0.1386 -0.1390  0.2548
  134loPI   GL1 2133  16.854  18.618   9.799 -0.0435  0.0673  0.0405
  134loPI   GL2 2134  17.117  18.527   9.818  0.1041 -0.0447  0.0497
  134loPI   C1A 2135  16.944  18.705   9.360 -0.0680  0.1214 -0.0643
  134loPI   C2A 2136  17.024  18.851   8.894  0.1903 -0.0196 -0.1128
  134loPI   C3A 2137  17.184  18.821   8.510 -0.0082 -0.2345  0.0600
  134loPI   C4A 2138  17.319  19.043   8.159 -0.1616  0.0648  0.0336
  134loPI   C5A 2139  17.646  18.832   7.946 -0.0718  0.0982  0.0309
  134loPI   C6A 2140  18.050  18.851   7.678  0.0393 -0.0015  0.1847
  134loPI   C1B 2141  17.439  18.502   9.499 -0.2836  0.0504 -0.0124
  134loPI   C2B 2142  17.494  18.702   9.038  0.0145  0.2714 -0.0907
  134loPI   C3B 2143  17.458  19.143   8.872  0.1691  0.2827 -0.3011
  134loPI   C4B 2144  17.467  19.340   8.492 -0.0633 -0.1731 -0.0276
  135loPI    C1 2145   1.083   1.889  10.122  0.3012 -0.0801 -0.0162
  135loPI    C2 2146   1.231   2.037  10.464  0.0806  0.2738 -0.0692
  135loPI    C3 2147   1.394   1.711  10.300  0.0487 -0.0360  0.4901
  135loPI   PO4 2148   1.081   2.046   9.929  0.0510  0.2448 -0.0746
  135loPI   GL1 2149   1.263   2.418   9.654  0.2244  0.5051 -0.3268
  135loPI   GL2 2150   1.565   2.445   9.584 -0.0515 -0.2318 -0.1551
  135loPI   C1A 2151   1.096   2.507   9.259 -0.0015  0.0613  0.0040
  135loPI   C2A 2152   1.110   2.556   8.881 -0.0605  0.0654 -0.0195
  135loPI   C3A 2153   1.218   2.376   8.482 -0.0511  0.0778 -0.1502
  135loPI   C4A 2154   1.197   2.421   8.038 -0.1534 -0.0951  0.3764
  135loPI   C5A 2155   1.163   2.687   7.644 -0.0650 -0.0477  0.1346
  135loPI   C6A 2156   1.172   3.082   7.718 -0.2362  0.1783  0.2137
  135loPI   C1B 2157   1.541   2.410   9.085  0.0620 -0.2639 -0.0601
  135loPI   C2B 2158   1.642   2.509   8.682  0.1568 -0.0895 -0.0145
  135loPI   C3B 2159   1.603   2.600   8.266 -0.0343 -0.1572 -0.0958
  135loPI   C4B 2160   1.631   2.572   7.865  0.0308  0.0059 -0.0944
  136loPI    C1 2161  18.265   0.603  10.047 -0.1120 -0.0185 -0.0797
  136loPI    C2 2162  17.995   0.464  10.308 -0.1897  0.0352 -0.1308
  136loPI    C3 2163  18.312   0.241  10.210 -0.0450  0.1011  0.1730
  136loPI   PO4 2164  18.023   0.832   9.979  0.0096 -0.0687 -0.0150
  136loPI   GL1 2165  18.050   1.088   9.605 -0.0625 -0.2613  0.1006
  136loPI   GL2 2166  17.923   1.341   9.598 -0.3890 -0.1177 -0.3477
  136loPI   C1A 2167  17.839   0.965   9.196 -0.2016 -0.1865 -0.5250
  136loPI   C2A 2168  17.825   0.944   8.761 -0.2679 -0.0518  0.1165
  136loPI   C3A 2169  17.672   0.944   8.363 -0.0087  0.2898  0.2375
  136loPI   C4A 2170  17.530   1.009   7.962  0.0994  0.2405  0.0016
  136loPI   C5A 2171  17.558   1.124   7.618 -0.3185 -0.1579 -0.1145
  136loPI   C6A 2172  17.784   1.028   7.183  0.0582 -0.1026 -0.1941
  136loPI   C1B 2173  17.996   1.492   9.175 -0.1052 -0.1730  0.1589
  136loPI   C2B 2174  18.001   1.420   8.712 -0.1591 -0.2204  0.1817
  136loPI   C3B 2175  17.849   1.426   8.267 -0.1058  0.2519 -0.2023
  136loPI   C4B 2176  17.752   1.448   7.859 -0.2441  0.2388 -0.2091
  137loPI    C1 2177   5.588   8.668   9.936  0.0284 -0.0113  0.1516
  137loPI    C2 2178   5.631   8.277  10.009  0.0679 -0.0344  0.0076
  137loPI    C3 2179   5.642   8.539  10.311  0.1153 -0.1378  0.0963
  137loPI   PO4 2180   5.369   8.586   9.686 -0.2527  0.2009 -0.1875
  137loPI   GL1 2181   5.185   8.435   9.308  0.1243 -0.1554 -0.2715
  137loPI   GL2 2182   5.174   8.685   9.269 -0.2255 -0.0774  0.1322
  137loPI   C1A 2183   5.424   8.461   8.825 -0.2027 -0.1312  0.2034
  137loPI   C2A 2184   5.445   8.447   8.390 -0.0892  0.1242  0.0343
  137loPI   C3A 2185   5.455   8.536   8.032 -0.0056  0.2253  0.1063
  137loPI   C4A 2186   5.401   8.581   7.510 -0.3392 -0.2159 -0.2035
  137loPI   C5A 2187   5.216   8.880   7.247  0.0134 -0.1253 -0.3158
  137loPI   C6A 2188   5.456   9.179   7.282  0.0258 -0.0424  0.2531
  137loPI   C1B 2189   5.558   8.959   9.023  0.0068 -0.1545  0.2177
  137loPI   C2B 2190   5.704   8.882   8.571  0.1269  0.2743  0.0248
  137loPI   C3B 2191   5.897   8.850   8.114  0.0838 -0.1698  0.0693
  137loPI   C4B 2192   6.187   8.971   7.821 -0.4381  0.2557  0.0256
  138loPI    C1 2193   7.972  10.517  10.180  0.0041 -0.2063  0.0261
  138loPI    C2 2194   7.788  10.522  10.535 -0.1926  0.1991 -0.0754
  138loPI    C3 2195   8.187  10.506  10.517 -0.1863  0.0439  0.1596
  138loPI   PO4 2196   7.756  10.321  10.061  0.1648  0.1243 -0.1009
  138loPI   GL1 2197   7.791  10.509   9.661 -0.1550 -0.0186 -0.0286
  138loPI   GL2 2198   7.674  10.863   9.716 -0.0341  0.3928 -0.1257
  138loPI   C1A 2199   7.962  10.382   9.319 -0.3255 -0.0217  0.1728
  138loPI   C2A 2200   7.999  10.492   8.873 -0.1713 -0.2148  0.1897
  138loPI   C3A 2201   7.958  10.461   8.440 -0.1488  0.0432  0.1026
  138loPI   C4A 2202   8.044  10.436   8.018  0.1127  0.0719 -0.1604
  138loPI   C5A 2203   8.114  10.209   7.786 -0.0177  0.1495 -0.1083
  138loPI   C6A 2204   7.892  10.134   7.505  0.1277  0.0563 -0.0283
  138loPI   C1B 2205   7.895  10.861   9.260 -0.1928 -0.0396  0.1186
  138loPI   C2B 2206   8.005  11.034   8.857  0.0009 -0.1257 -0.3334
  138loPI   C3B 2207   7.942  10.963   8.422 -0.1098 -0.0807 -0.2136
  138loPI   C4B 2208   8.136  10.957   8.102  0.2598  0.0608 -0.5370
  139loPI    C1 2209   5.941   7.891   9.908  0.2760 -0.0020  0.1387
  139loPI    C2 2210   5.848   7.684  10.237 -0.1061  0.3857  0.2827
  139loPI    C3 2211   5.993   8.056  10.268 -0.2042  0.4488  0.0137
  139loPI   PO4 2212   5.756   7.875   9.721  0.0005 -0.0423  0.1546
  139loPI   GL1 2213   5.624   7.901   9.218  0.1800  0.3349 -0.2466
  139loPI   GL2 2214   5.463   7.550   9.092 -0.0349 -0.1341 -0.0319
  139loPI   C1A 2215   5.696   7.996   8.827 -0.1738  0.1973  0.0876
  139loPI   C2A 2216   5.692   7.953   8.421  0.2660 -0.2002  0.4037
  139loPI   C3A 2217   5.613   8.074   7.962 -0.0548  0.0267 -0.0859
  139loPI   C4A 2218   5.309   8.092   7.524 -0.1097 -0.1237 -0.0711
  139loPI   C5A 2219   5.258   7.892   7.154 -0.2530  0.1855  0.2729
  139loPI   C6A 2220   5.606   7.706   6.942 -0.1077 -0.1546  0.0818
  139loPI   C1B 2221   5.416   7.591   8.683  0.1622 -0.0238 -0.0509
  139loPI   C2B 2222   5.232   7.500   8.319 -0.1344 -0.1956 -0.0130
  139loPI   C3B 2223   5.416   7.581   7.815  0.1992 -0.0926 -0.4212
  139loPI   C4B 2224   5.697   7.781   7.485 -0.0303 -0.2078 -0.1314
  140loPI    C1 2225   1.799  18.570   9.961  0.1255  0.0654 -0.1519
  140loPI    C2 2226   1.680  18.367  10.285  0.2129  0.0903 -0.1039
  140loPI    C3 2227   1.651  18.766  10.277  0.2683  0.0944 -0.1021
  140loPI   PO4 2228   1.685  18.389   9.754 -0.0787 -0.2668 -0.0442
  140loPI   GL1 2229   1.355  18.397   9.522 -0.3208  0.2019  0.1062
  140loPI   GL2 2230   1.485  18.424   9.232  0.1636 -0.2006 -0.1328
  140loPI   C1A 2231   0.976  18.256   9.211  0.0160 -0.0413 -0.0826
  140loPI   C2A 2232   1.018  18.181   8.743 -0.0903 -0.1643  0.2344
  140loPI   C3A 2233   1.109  18.186   8.236  0.2021  0.1519 -0.0778
  140loPI   C4A 2234   1.116  18.184   7.817 -0.1386 -0.3998  0.1267
  140loPI   C5A 2235   1.065  18.032   7.489  0.1980 -0.4722  0.0797
  140loPI   C6A 2236   0.864  17.632   7.261 -0.2262 -0.1487 -0.0053
  140loPI   C1B 2237   1.398  18.411   8.929  0.1436  0.0726 -0.3333
  140loPI   C2B 2238   1.254  18.611   8.568  0.1136 -0.1216  0.2544
  140loPI   C3B 2239   1.304  18.861   8.168  0.3818  0.0394 -0.3876
  140loPI   C4B 2240   1.312  18.740   7.696  0.2605 -0.0687 -0.2221
  141loPI    C1 2241   6.063  12.354   9.744  0.0605 -0.2418  0.1069
  141loPI    C2 2242   5.956  12.239  10.112  0.0007 -0.0175  0.1616
  141loPI    C3 2243   6.083  12.613  10.049  0.1458 -0.0961 -0.0209
  141loPI   PO4 2244   5.894  12.206   9.480  0.0361  0.2933  0.1412
  141loPI   GL1 2245   6.178  12.285   9.249 -0.4214  0.0021 -0.0571
  141loPI   GL2 2246   6.121  12.121   9.018  0.0537  0.1148  0.1661
  141loPI   C1A 2247   6.320  12.603   8.917  0.0460  0.1499 -0.1934
  141loPI   C2A 2248   6.618  12.517   8.569  0.2135 -0.0886 -0.2006
  141loPI   C3A 2249   6.601  12.289   8.250  0.3272  0.2494 -0.0869
  141loPI   C4A 2250   6.579  12.194   7.906 -0.1344  0.2782 -0.2105
  141loPI   C5A 2251   6.552  12.317   7.456 -0.0723 -0.0452  0.1117
  141loPI   C6A 2252   6.339  12.318   7.086  0.0865  0.1457  0.1555
  141loPI   C1B 2253   6.312  12.127   8.692  0.1951  0.3126  0.1502
  141loPI   C2B 2254   6.103  12.393   8.481 -0.1700  0.1349  0.0063
  141loPI   C3B 2255   5.956  12.383   8.148 -0.1095 -0.2452 -0.2603
  141loPI   C4B 2256   6.127  12.506   7.822  0.1963 -0.0031  0.1009
  142loPI    C1 2257   2.893  18.829   9.751  0.1690 -0.1113 -0.1211
  142loPI    C2 2258   2.523  18.724   9.859 -0.0008  0.3825 -0.2007
  142loPI    C3 2259   2.763  18.909  10.121  0.2796 -0.1403 -0.0751
  142loPI   PO4 2260   2.842  18.951   9.535 -0.2673 -0.0399 -0.0421
  142loPI   GL1 2261   3.048  18.917   9.138 -0.3423 -0.0095 -0.3066
  142loPI   GL2 2262   2.996  18.595   9.240 -0.1537 -0.1809 -0.3731
  142loPI   C1A 2263   3.139  19.159   8.760  0.1757  0.4126 -0.0864
  142loPI   C2A 2264   2.950  19.094   8.316  0.2404 -0.3527  0.1279
  142loPI   C3A 2265   2.873  19.013   7.874  0.0393 -0.2456 -0.1372
  142loPI   C4A 2266   3.003  18.709   7.584  0.0282 -0.2242  0.0809
  142loPI   C5A 2267   3.275  18.361   7.751 -0.3043 -0.1109  0.0442
  142loPI   C6A 2268   3.332  17.975   7.946  0.1001  0.0356  0.0281
  142loPI   C1B 2269   3.394  18.528   8.973  0.2539 -0.0102  0.0787
  142loPI   C2B 2270   3.672  18.478   8.640  0.3830 -0.3379 -0.0835
  142loPI   C3B 2271   3.664  18.447   8.232  0.0040 -0.1890  0.0650
  142loPI   C4B 2272   3.808  18.510   7.742 -0.0114  0.1617 -0.0404
  143loPI    C1 2273  17.589   1.684  10.188 -0.1015 -0.2671 -0.1152
  143loPI    C2 2274  17.207   1.588  10.254 -0.2752  0.2990 -0.2391
  143loPI    C3 2275  17.382   1.871  10.475  0.0215  0.1681 -0.3020
  143loPI   PO4 2276  17.569   1.538   9.912  0.3307 -0.1451  0.0552
  143loPI   GL1 2277  17.347   1.686   9.485 -0.1704  0.0607 -0.1387
  143loPI   GL2 2278  17.564   1.678   9.390 -0.1074 -0.2255 -0.1834
  143loPI   C1A 2279  17.126   1.661   9.136  0.1138 -0.2412 -0.4193
  143loPI   C2A 2280  17.049   1.732   8.670 -0.0236 -0.1257 -0.0371
  143loPI   C3A 2281  17.017   1.752   8.274  0.2625 -0.0777  0.0929
  143loPI   C4A 2282  16.779   1.444   7.885 -0.2090  0.0974  0.2103
  143loPI   C5A 2283  16.518   1.395   7.581  0.2568 -0.1731  0.0125
  143loPI   C6A 2284  16.393   0.994   7.303  0.1508 -0.0489  0.1493
  143loPI   C1B 2285  17.552   1.304   9.033 -0.0098 -0.0872 -0.0047
  143loPI   C2B 2286  17.478   1.349   8.691  0.0214  0.1889 -0.1977
  143loPI   C3B 2287  17.284   1.316   8.268 -0.2162 -0.0832 -0.2350
  143loPI   C4B 2288  16.985   1.012   7.974 -0.3486 -0.1067  0.2911
  144loPI    C1 2289   0.749   2.369   9.961 -0.1105  0.5803 -0.1854
  144loPI    C2 2290   0.613   2.662  10.196 -0.1451  0.0598  0.4732
  144loPI    C3 2291   0.880   2.399  10.338 -0.1124 -0.2314 -0.1013
  144loPI   PO4 2292   0.796   2.494   9.758  0.1032 -0.1877  0.0335
  144loPI   GL1 2293   0.651   2.580   9.420 -0.1218  0.3111 -0.2908
  144loPI   GL2 2294   0.353   2.412   9.431 -0.1315 -0.0342  0.0294
  144loPI   C1A 2295   0.620   2.620   9.024  0.1629  0.0448  0.0059
  144loPI   C2A 2296   0.670   2.701   8.602  0.1374  0.1380  0.0350
  144loPI   C3A 2297   0.340   2.660   8.169 -0.1469  0.2362 -0.0179
  144loPI   C4A 2298   0.359   2.707   7.687  0.0447  0.2433 -0.0053
  144loPI   C5A 2299   0.705   2.820   7.486 -0.1714 -0.0706  0.1550
  144loPI   C6A 2300   0.875   3.198   7.263 -0.1278  0.3024  0.1115
  144loPI   C1B 2301   0.000   2.294   9.315 -0.0196  0.0826 -0.0304
  144loPI   C2B 2302  -0.231   2.389   8.918  0.2304  0.1839  0.0502
  144loPI   C3B 2303  -0.455   2.382   8.536 -0.0159  0.0843 -0.2019
  144loPI   C4B 2304  -0.664   2.315   8.121 -0.0278  0.1160 -0.0111
  145loPI    C1 2305   1.611  11.271  10.034 -0.0690 -0.1538  0.0585
  145loPI    C2 2306   1.385  11.600  10.003  0.2179  0.0515  0.1088
  145loPI    C3 2307   1.598  11.534  10.335  0.1796 -0.1750  0.0898
  145loPI   PO4 2308   1.679  11.273   9.738  0.3098 -0.0695  0.1313
  145loPI   GL1 2309   1.753  11.359   9.390  0.2709 -0.0969  0.0659
  145loPI   GL2 2310   1.969  11.534   9.417 -0.1033 -0.1667  0.2011
  145loPI   C1A 2311   1.397  11.329   9.095  0.0370 -0.1162 -0.0246
  145loPI   C2A 2312   1.390  11.239   8.688  0.0884 -0.0332 -0.0316
  145loPI   C3A 2313   1.197  11.086   8.334  0.0977 -0.3985  0.1126
  145loPI   C4A 2314   1.335  11.148   7.933 -0.0447 -0.0852  0.0400
  145loPI   C5A 2315   1.491  11.506   7.650  0.2781  0.0000 -0.1024
  145loPI   C6A 2316   1.373  11.971   7.656  0.0586 -0.0172  0.1283
  145loPI   C1B 2317   2.112  11.240   9.066 -0.0510  0.0323 -0.3242
  145loPI   C2B 2318   1.941  11.111   8.658  0.2896 -0.0739 -0.0616
  145loPI   C3B 2319   1.727  10.924   8.264 -0.4136 -0.1229 -0.0746
  145loPI   C4B 2320   1.527  10.681   7.875 -0.1986  0.1019 -0.0804
  146loPI    C1 2321  13.715   7.596  10.285 -0.0500 -0.3482 -0.0907
  146loPI    C2 2322  13.948   7.539  10.605 -0.0821 -0.2356 -0.0466
  146loPI    C3 2323  13.606   7.333  10.566 -0.0762 -0.2521 -0.0104
  146loPI   PO4 2324  13.862   7.627  10.105 -0.0715  0.0103  0.1550
  146loPI   GL1 2325  14.074   7.539   9.709 -0.0005 -0.3642  0.4038
  146loPI   GL2 2326  14.237   7.266   9.792 -0.0706 -0.3090  0.1094
  146loPI   C1A 2327  14.127   7.501   9.297  0.1277  0.1900  0.0336
  146loPI   C2A 2328  14.054   7.484   8.789 -0.2258 -0.1855  0.2352
  146loPI   C3A 2329  14.183   7.420   8.407 -0.2079  0.2527  0.2301
  146loPI   C4A 2330  14.023   7.207   8.031 -0.0921 -0.0926  0.1453
  146loPI   C5A 2331  13.936   6.752   7.978 -0.2531  0.1590 -0.2666
  146loPI   C6A 2332  13.723   6.463   7.828  0.2741  0.0161 -0.1383
  146loPI   C1B 2333  14.202   6.981   9.481 -0.2408  0.3075  0.0069
  146loPI   C2B 2334  14.244   7.033   9.055  0.1637 -0.0703  0.3357
  146loPI   C3B 2335  14.198   7.016   8.698 -0.1923  0.0334 -0.0529
  146loPI   C4B 2336  14.526   7.080   8.359  0.1085  0.0590 -0.3111
  147loPI    C1 2337   4.620  12.450  10.139  0.1230  0.0130  0.3258
  147loPI    C2 2338   4.667  12.083  10.289 -0.0319 -0.0623  0.1937
  147loPI    C3 2339   4.579  12.388  10.532  0.0892 -0.1131  0.3028
  147loPI   PO4 2340   4.734  12.508   9.986 -0.1227 -0.0160 -0.4014
  147loPI   GL1 2341   4.580  12.522   9.561 -0.1236 -0.1568  0.1716
  147loPI   GL2 2342   4.305  12.310   9.626 -0.1729  0.1951 -0.0548
  147loPI   C1A 2343   4.659  12.307   9.177 -0.2516 -0.1899  0.0049
  147loPI   C2A 2344   4.295  12.206   8.957 -0.1992 -0.1077  0.2547
  147loPI   C3A 2345   4.176  12.153   8.526 -0.2213 -0.3000 -0.0057
  147loPI   C4A 2346   4.187  12.374   8.120  0.0002  0.0888 -0.0026
  147loPI   C5A 2347   4.293  12.690   7.825 -0.1533  0.1097 -0.1196
  147loPI   C6A 2348   4.084  13.076   7.596 -0.0020 -0.0618 -0.1751
  147loPI   C1B 2349   4.178  12.514   9.322  0.2172 -0.3107 -0.1068
  147loPI   C2B 2350   4.048  12.862   8.982  0.2240  0.2191 -0.1908
  147loPI   C3B 2351   4.105  12.816   8.612  0.1080  0.1515  0.0414
  147loPI   C4B 2352   4.134  12.803   8.313 -0.2351 -0.1322  0.2344
  148loPI    C1 2353  12.558   7.443  10.363 -0.2814 -0.2748 -0.0386
  148loPI    C2 2354  12.193   7.604  10.332 -0.1284  0.1304  0.1757
  148loPI    C3 2355  12.269   7.333  10.617 -0.1904  0.2559  0.3125
  148loPI   PO4 2356  12.680   7.638  10.278  0.0592 -0.4143  0.0022
  148loPI   GL1 2357  12.907   7.720   9.824 -0.1788 -0.0848  0.1019
  148loPI   GL2 2358  12.782   7.902   9.508  0.0430  0.0786 -0.2065
  148loPI   C1A 2359  13.024   7.303   9.593  0.2112  0.0586 -0.0281
  148loPI   C2A 2360  13.052   7.200   9.172 -0.0367 -0.0838  0.4500
  148loPI   C3A 2361  13.082   7.221   8.704  0.0911  0.0941  0.1363
  148loPI   C4A 2362  13.051   7.094   8.280  0.3915 -0.2203  0.0131
  148loPI   C5A 2363  13.005   6.922   7.876  0.1666  0.0518  0.3370
  148loPI   C6A 2364  13.004   6.985   7.392 -0.0365  0.2597 -0.0694
  148loPI   C1B 2365  12.851   7.728   9.202 -0.0012  0.2834  0.0833
  148loPI   C2B 2366  12.825   7.657   8.776 -0.1575 -0.3730  0.2916
  148loPI   C3B 2367  12.938   7.731   8.289  0.0633 -0.2744  0.0225
  148loPI   C4B 2368  12.977   7.549   7.947  0.2551 -0.2726  0.0727
  149loPI    C1 2369  14.252  17.843  10.232  0.0241  0.1406  0.2335
  149loPI    C2 2370  14.542  17.612  10.384  0.0932  0.0238 -0.0697
  149loPI    C3 2371  14.159  17.500  10.416  0.0669  0.2287  0.4223
  149loPI   PO4 2372  14.312  17.937   9.967  0.0351 -0.1923 -0.0711
  149loPI   GL1 2373  14.306  17.851   9.498 -0.1109  0.3144  0.0103
  149loPI   GL2 2374  14.202  17.532   9.401  0.3098  0.0593  0.1330
  149loPI   C1A 2375  14.262  18.152   9.125  0.1222 -0.2059 -0.1421
  149loPI   C2A 2376  14.297  18.096   8.684 -0.1896 -0.3469  0.2895
  149loPI   C3A 2377  14.388  18.034   8.304 -0.0029  0.0739  0.0803
  149loPI   C4A 2378  14.256  17.802   7.953  0.1195 -0.1154 -0.1890
  149loPI   C5A 2379  14.452  17.705   7.623  0.2305 -0.1610  0.0247
  149loPI   C6A 2380  14.551  17.398   7.317 -0.1610  0.1480 -0.1402
  149loPI   C1B 2381  14.193  17.637   9.023  0.0167  0.1699 -0.2650
  149loPI   C2B 2382  14.141  17.633   8.590  0.0668  0.0268 -0.1552
  149loPI   C3B 2383  13.926  17.558   8.276 -0.1635 -0.2536  0.3686
  149loPI   C4B 2384  13.692  17.763   7.891 -0.2557 -0.1139  0.1060
  150loPI    C1 2385  10.236  16.801   9.945 -0.1014  0.2441  0.1104
  150loPI    C2 2386  10.235  16.406  10.008 -0.0877  0.1847 -0.2428
  150loPI    C3 2387  10.575  16.614  10.047 -0.1256  0.1896  0.0909
  150loPI   PO4 2388  10.071  16.763   9.744  0.1066 -0.0308  0.3950
  150loPI   GL1 2389  10.040  16.834   9.355 -0.2139  0.0384 -0.1820
  150loPI   GL2 2390  10.142  16.470   9.372 -0.0906 -0.0455  0.1382
  150loPI   C1A 2391  10.057  17.151   9.054  0.0670 -0.0539  0.2005
  150loPI   C2A 2392   9.998  17.262   8.648 -0.1318 -0.1826  0.0236
  150loPI   C3A 2393   9.983  17.136   8.216  0.1632  0.2333  0.1708
  150loPI   C4A 2394  10.092  17.109   7.832 -0.4071  0.0943  0.3959
  150loPI   C5A 2395  10.424  16.986   7.527  0.1043 -0.2235 -0.0538
  150loPI   C6A 2396  10.630  16.811   7.210  0.2477  0.1927 -0.1163
  150loPI   C1B 2397  10.074  16.362   8.934 -0.2535  0.1883  0.0946
  150loPI   C2B 2398  10.141  16.321   8.527 -0.1250 -0.1996  0.1975
  150loPI   C3B 2399  10.135  16.191   8.135  0.0393  0.0684 -0.2081
  150loPI   C4B 2400  10.159  16.234   7.674  0.0918 -0.2828 -0.0282
  151loPI    C1 2401  10.044   8.398   9.953  0.1951 -0.0391 -0.2609
  151loPI    C2 2402  10.010   8.231   9.591 -0.0468  0.1009 -0.3049
  151loPI    C3 2403   9.720   8.181   9.863  0.1422 -0.0187 -0.1221
  151loPI   PO4 2404  10.052   8.727   9.955 -0.2083  0.0128 -0.2910
  151loPI   GL1 2405  10.168   8.803   9.562  0.0667  0.0480 -0.2296
  151loPI   GL2 2406  10.391   8.519   9.500 -0.2350  0.1402 -0.1060
  151loPI   C1A 2407  10.092   9.008   9.273  0.1972 -0.0524 -0.0530
  151loPI   C2A 2408  10.304   9.175   8.939  0.1863  0.2705 -0.0649
  151loPI   C3A 2409  10.611   8.995   8.665 -0.5217 -0.0238  0.2332
  151loPI   C4A 2410  10.645   8.884   8.282 -0.0257  0.0507  0.1701
  151loPI   C5A 2411  10.615   9.129   7.903  0.0614 -0.2646 -0.1875
  151loPI   C6A 2412  10.623   9.447   7.631  0.0056 -0.3200  0.0766
  151loPI   C1B 2413  10.235   8.490   9.162  0.1847  0.3338  0.1356
  151loPI   C2B 2414  10.189   8.618   8.788  0.0749 -0.0279 -0.2433
  151loPI   C3B 2415  10.353   8.514   8.400 -0.0655  0.0158  0.3898
  151loPI   C4B 2416  10.490   8.314   8.073 -0.0556 -0.1459  0.0085
  152loPI    C1 2417  15.551   9.800  10.496  0.1408  0.0614  0.0770
  152loPI    C2 2418  15.211  10.004  10.545  0.0561 -0.0520 -0.0348
  152loPI    C3 2419  15.341   9.760  10.834  0.2233  0.2529  0.1526
  152loPI   PO4 2420  15.502   9.694  10.234 -0.0857 -0.0295  0.3606
  152loPI   GL1 2421  15.460   9.740   9.871  0.0429 -0.0072 -0.3216
  152loPI   GL2 2422  15.597   9.402   9.818 -0.0358  0.0935  0.1298
  152loPI   C1A 2423  15.261   9.774   9.460  0.4083  0.1916 -0.0043
  152loPI   C2A 2424  15.325   9.733   8.959  0.2255 -0.0217  0.1313
  152loPI   C3A 2425  15.357   9.879   8.484 -0.0546 -0.0642 -0.2279
  152loPI   C4A 2426  15.401  10.190   8.111  0.1008 -0.4503  0.1059
  152loPI   C5A 2427  15.304  10.083   7.688 -0.0297  0.1403  0.0802
  152loPI   C6A 2428  15.058  10.001   7.401  0.0489 -0.2337 -0.1018
  152loPI   C1B 2429  15.587   9.414   9.380  0.1396 -0.2982 -0.1890
  152loPI   C2B 2430  15.544   9.266   9.063  0.0130  0.0233 -0.2423
  152loPI   C3B 2431  15.587   9.032   8.782 -0.0682  0.0149 -0.1215
  152loPI   C4B 2432  15.439   8.902   8.319 -0.3939 -0.1023  0.1046
  153loPI    C1 2433  12.689  17.158  10.063 -0.0568 -0.0163 -0.0058
  153loPI    C2 2434  12.548  17.516  10.173  0.0016 -0.0083  0.0436
  153loPI    C3 2435  12.547  17.212  10.433  0.0436 -0.0173  0.0333
  153loPI   PO4 2436  12.501  17.183   9.833  0.1832  0.1136  0.2782
  153loPI   GL1 2437  12.522  17.040   9.493 -0.0051  0.0964 -0.0420
  153loPI   GL2 2438  12.746  17.298   9.419 -0.0324 -0.0495 -0.1438
  153loPI   C1A 2439  12.338  16.966   9.073 -0.3979  0.2835  0.0675
  153loPI   C2A 2440  12.129  16.950   8.643 -0.0276 -0.1842 -0.0067
  153loPI   C3A 2441  11.921  16.871   8.251  0.0080 -0.3838  0.0917
  153loPI   C4A 2442  11.898  16.800   7.944 -0.4087  0.1550 -0.1064
  153loPI   C5A 2443  11.841  16.961   7.494 -0.0356 -0.4533  0.1451
  153loPI   C6A 2444  11.657  17.228   7.283  0.2165 -0.0943 -0.0371
  153loPI   C1B 2445  12.667  17.285   8.952  0.3319 -0.3038 -0.1269
  153loPI   C2B 2446  12.604  17.082   8.604 -0.1025  0.0066 -0.2261
  153loPI   C3B 2447  12.488  17.095   8.188 -0.2251  0.0769  0.3599
  153loPI   C4B 2448  12.673  17.077   7.776 -0.1839  0.1144  0.1643
  154loPI    C1 2449  18.414  11.532   9.930 -0.0115 -0.0065  0.4251
  154loPI    C2 2450  18.377  11.870   9.719 -0.2189 -0.2271  0.0980
  154loPI    C3 2451  18.441  11.886  10.114 -0.0793  0.1917  0.0632
  154loPI   PO4 2452  18.669  11.365   9.767  0.0947  0.1473 -0.1467
  154loPI   GL1 2453  18.927  11.177   9.580  0.1695 -0.1847 -0.0662
  154loPI   GL2 2454  19.156  11.155   9.517 -0.0378  0.0753  0.3101
  154loPI   C1A 2455  18.888  10.835   9.263 -0.2313 -0.2068  0.1468
  154loPI   C2A 2456  18.991  10.695   8.802 -0.2913  0.0975 -0.2787
  154loPI   C3A 2457  19.044  10.769   8.334 -0.0071 -0.0454 -0.1412
  154loPI   C4A 2458  19.259  10.612   8.090  0.1030 -0.1551  0.0637
  154loPI   C5A 2459  19.212  10.342   7.745  0.3591 -0.1912 -0.1324
  154loPI   C6A 2460  19.054  10.492   7.288 -0.2969 -0.3078  0.2096
  154loPI   C1B 2461  19.374  10.868   9.177 -0.0615 -0.0346 -0.0710
  154loPI   C2B 2462  19.483  10.772   8.731  0.1218 -0.2181  0.0724
  154loPI   C3B 2463  19.554  11.035   8.284 -0.2300  0.0611  0.0155
  154loPI   C4B 2464  19.762  11.083   7.931 -0.3131  0.2966  0.0496
  155loPI    C1 2465  17.133   7.929  10.241  0.0748  0.0465  0.0787
  155loPI    C2 2466  17.059   7.580  10.423 -0.0191  0.0874  0.1196
  155loPI    C3 2467  17.388   7.789  10.516  0.0803 -0.0304  0.0346
  155loPI   PO4 2468  17.078   7.814   9.977 -0.2101 -0.0132  0.1111
  155loPI   GL1 2469  17.017   7.469   9.684 -0.1709 -0.1139 -0.2249
  155loPI   GL2 2470  17.369   7.549   9.556  0.2851  0.0186  0.0514
  155loPI   C1A 2471  17.000   7.571   9.229 -0.1298  0.1024 -0.0178
  155loPI   C2A 2472  16.875   7.587   8.778 -0.0796  0.2402  0.1009
  155loPI   C3A 2473  16.786   7.602   8.311 -0.0106 -0.0322 -0.1033
  155loPI   C4A 2474  16.562   7.729   7.905  0.1142  0.1939  0.2430
  155loPI   C5A 2475  16.426   8.115   7.683 -0.3459 -0.0895  0.0639
  155loPI   C6A 2476  16.466   8.302   7.269 -0.4339 -0.0303  0.2838
  155loPI   C1B 2477  17.458   7.435   9.098  0.1066 -0.5395  0.2070
  155loPI   C2B 2478  17.446   7.517   8.726 -0.0750  0.2826  0.0613
  155loPI   C3B 2479  17.522   7.492   8.342 -0.0325 -0.0637 -0.0972
  155loPI   C4B 2480  17.533   7.734   7.951  0.1718  0.0414 -0.0596
  156loPI    C1 2481  11.276   2.359   9.909  0.0122  0.2135 -0.0318
  156loPI    C2 2482  11.032   2.606  10.107 -0.2245 -0.1310  0.1161
  156loPI    C3 2483  11.034   2.216  10.193  0.3183 -0.1487  0.0538
  156loPI   PO4 2484  11.349   2.537   9.697 -0.3034  0.1325 -0.1844
  156loPI   GL1 2485  11.709   2.445   9.401 -0.1132 -0.2589 -0.1131
  156loPI   GL2 2486  11.412   2.492   9.218  0.1939 -0.2436  0.1714
  156loPI   C1A 2487  11.912   2.521   9.032  0.0008 -0.0716  0.2389
  156loPI   C2A 2488  11.814   2.181   8.736 -0.1243 -0.1525  0.3081
  156loPI   C3A 2489  11.593   2.023   8.362  0.1619 -0.2243 -0.1146
  156loPI   C4A 2490  11.309   2.387   8.080  0.3938  0.1435  0.0833
  156loPI   C5A 2491  11.400   2.631   7.694 -0.2011  0.2030  0.0789
  156loPI   C6A 2492  11.722   2.967   7.583  0.1823  0.0906 -0.3109
  156loPI   C1B 2493  11.424   2.586   8.823 -0.0046  0.1465 -0.0227
  156loPI   C2B 2494  11.678   2.659   8.483 -0.2052  0.0930  0.0205
  156loPI   C3B 2495  12.082   2.768   8.543  0.1754 -0.1053 -0.3225
  156loPI   C4B 2496  12.324   2.872   8.921 -0.1206  0.4952  0.0399
  157loPI    C1 2497   2.387   0.821   9.902 -0.0063  0.4683  0.2519
  157loPI    C2 2498   2.178   0.814  10.243 -0.0860  0.1150  0.1995
  157loPI    C3 2499   2.438   0.521  10.161 -0.1440  0.1413 -0.0901
  157loPI   PO4 2500   2.266   0.802   9.684  0.1342  0.0534  0.0368
  157loPI   GL1 2501   1.904   0.823   9.432  0.1501 -0.0640  0.0852
  157loPI   GL2 2502   2.049   1.172   9.425  0.0783  0.2093  0.0825
  157loPI   C1A 2503   1.930   0.682   8.987  0.1282 -0.2224 -0.0701
  157loPI   C2A 2504   2.181   0.750   8.699 -0.0576  0.0518 -0.3669
  157loPI   C3A 2505   2.255   0.749   8.219 -0.0822  0.1230  0.1875
  157loPI   C4A 2506   2.275   0.786   7.804  0.0726 -0.0454 -0.2820
  157loPI   C5A 2507   2.387   0.550   7.351 -0.1074  0.0141 -0.4376
  157loPI   C6A 2508   2.726   0.210   7.269 -0.1502 -0.0796  0.0463
  157loPI   C1B 2509   2.035   1.167   8.989  0.3302 -0.2054 -0.0615
  157loPI   C2B 2510   2.114   1.213   8.575 -0.0188  0.0096 -0.0112
  157loPI   C3B 2511   2.159   1.220   8.095 -0.1044  0.0368 -0.3121
  157loPI   C4B 2512   2.223   1.284   7.674 -0.2943 -0.0729  0.0606
  158loPI    C1 2513   0.650   0.655  10.444  0.1638  0.1532 -0.2886
  158loPI    C2 2514   0.848   0.477  10.743  0.2627  0.2079 -0.3208
  158loPI    C3 2515   0.491   0.644  10.811  0.2548  0.1619 -0.2483
  158loPI   PO4 2516   0.705   0.442  10.216 -0.2033  0.2052  0.0367
  158loPI   GL1 2517   0.577   0.465   9.857  0.0773  0.2758  0.0988
  158loPI   GL2 2518   0.330   0.617   9.940  0.1610 -0.0856 -0.1479
  158loPI   C1A 2519   0.578   0.429   9.384  0.0633  0.2830  0.2637
  158loPI   C2A 2520   0.436   0.665   8.999  0.2638 -0.0967  0.0280
  158loPI   C3A 2521   0.299   0.660   8.530  0.0427 -0.3041  0.0549
  158loPI   C4A 2522   0.360   0.558   8.083  0.1694 -0.0676 -0.1618
  158loPI   C5A 2523   0.307   0.632   7.749 -0.1555 -0.0599 -0.0323
  158loPI   C6A 2524   0.242   0.395   7.400 -0.1457 -0.1282 -0.1859
  158loPI   C1B 2525   0.156   0.364   9.571 -0.0269 -0.2187  0.3411
  158loPI   C2B 2526   0.073   0.295   9.184  0.0466 -0.0563  0.0252
  158loPI   C3B 2527   0.185   0.227   8.817  0.0409  0.2568  0.2367
  158loPI   C4B 2528   0.033   0.192   8.389 -0.2115  0.3980 -0.2262
  159loPI    C1 2529   4.326  11.750   9.707 -0.2658  0.2410 -0.2589
  159loPI    C2 2530   4.581  11.857   9.418 -0.1234  0.1047 -0.1851
  159loPI    C3 2531   4.659  11.951   9.799  0.0478 -0.3265 -0.1078
  159loPI   PO4 2532   4.045  11.880   9.541 -0.2280 -0.0749 -0.0902
  159loPI   GL1 2533   3.929  11.909   9.042  0.4427 -0.0292 -0.1496
  159loPI   GL2 2534   3.656  12.157   9.240  0.0056  0.0309 -0.0968
  159loPI   C1A 2535   3.790  11.786   8.584  0.1677  0.1000  0.1278
  159loPI   C2A 2536   3.831  11.851   8.216  0.3047  0.2215  0.0289
  159loPI   C3A 2537   3.856  11.659   7.795 -0.2370 -0.0071 -0.1782
  159loPI   C4A 2538   3.681  11.833   7.446 -0.2136  0.2386  0.3836
  159loPI   C5A 2539   3.758  12.250   7.183  0.2628 -0.0059  0.2884
  159loPI   C6A 2540   3.559  12.645   7.180 -0.2401 -0.0822  0.1162
  159loPI   C1B 2541   3.775  12.393   8.926 -0.0414 -0.3125  0.2540
  159loPI   C2B 2542   3.816  12.440   8.423  0.2939  0.0887 -0.1414
  159loPI   C3B 2543   3.709  12.548   8.002  0.3198 -0.1888 -0.0514
  159loPI   C4B 2544   3.804  12.728   7.681 -0.2976 -0.3954  0.1595
  160loPI    C1 2545  17.546  14.462   9.861  0.0624 -0.2527  0.0671
  160loPI    C2 2546  17.646  14.723  10.147 -0.0864  0.1165 -0.2086
  160loPI    C3 2547  17.490  14.368  10.245  0.1297  0.1216  0.1727
  160loPI   PO4 2548  17.764  14.448   9.702 -0.0338 -0.0875 -0.3691
  160loPI   GL1 2549  17.805  14.459   9.260  0.4883 -0.1029 -0.0129
  160loPI   GL2 2550  18.033  14.737   9.332  0.0327  0.1815  0.1978
  160loPI   C1A 2551  17.847  14.518   8.848  0.1855 -0.4108 -0.2045
  160loPI   C2A 2552  18.264  14.487   8.680 -0.1018  0.1849 -0.2000
  160loPI   C3A 2553  18.486  14.604   8.280 -0.0015  0.1187  0.0568
  160loPI   C4A 2554  18.698  14.983   7.877 -0.0563 -0.0162 -0.1111
  160loPI   C5A 2555  18.514  15.007   7.445 -0.3337 -0.2110 -0.0076
  160loPI   C6A 2556  18.336  15.331   7.274 -0.0103 -0.0697  0.3557
  160loPI   C1B 2557  18.196  14.883   8.991 -0.2561 -0.0407  0.0881
  160loPI   C2B 2558  18.161  15.246   8.710  0.0131  0.1417  0.0611
  160loPI   C3B 2559  18.034  15.529   8.330  0.2748 -0.0961  0.1825
  160loPI   C4B 2560  17.883  15.783   7.948  0.2515 -0.3339  0.3017
  161loPI    C1 2561  16.908   9.194  10.456 -0.0573  0.0982  0.3821
  161loPI    C2 2562  16.855   8.803  10.518 -0.2073  0.0900  0.2108
  161loPI    C3 2563  17.082   9.016  10.769  0.1093 -0.1625  0.1461
  161loPI   PO4 2564  16.823   9.159  10.189  0.1792  0.0563 -0.0153
  161loPI   GL1 2565  16.796   9.068   9.735  0.3314 -0.0754  0.1955
  161loPI   GL2 2566  16.658   8.787   9.661 -0.2908 -0.1324 -0.0385
  161loPI   C1A 2567  17.031   8.935   9.342  0.1918 -0.0738  0.1597
  161loPI   C2A 2568  16.979   8.947   8.898  0.3873  0.0924 -0.1186
  161loPI   C3A 2569  17.075   9.158   8.505  0.1598  0.0269  0.2315
  161loPI   C4A 2570  17.011   9.140   8.012 -0.2144 -0.3264 -0.0573
  161loPI   C5A 2571  16.648   9.097   7.917  0.0686 -0.1199 -0.0886
  161loPI   C6A 2572  16.238   9.108   7.794  0.3562 -0.1285  0.1348
  161loPI   C1B 2573  16.609   8.619   9.260  0.1896 -0.0385 -0.0568
  161loPI   C2B 2574  16.544   8.575   8.893  0.1009 -0.0690 -0.2804
  161loPI   C3B 2575  16.496   8.481   8.403  0.1284  0.1564  0.0918
  161loPI   C4B 2576  16.535   8.502   7.987 -0.1364  0.0461 -0.1029
  162loPI    C1 2577  12.204   5.760  10.169  0.1997 -0.0393 -0.1000
  162loPI    C2 2578  12.369   6.025  10.419 -0.0197 -0.0321  0.0398
  162loPI    C3 2579  12.175   5.707  10.564 -0.4436  0.1502 -0.1093
  162loPI   PO4 2580  12.293   5.983   9.830 -0.1200  0.0246  0.3790
  162loPI   GL1 2581  12.476   6.086   9.390  0.0234 -0.0008  0.0529
  162loPI   GL2 2582  12.479   6.360   9.377 -0.0094  0.2534  0.1377
  162loPI   C1A 2583  12.212   5.908   9.210 -0.1022  0.0788 -0.1490
  162loPI   C2A 2584  12.104   5.768   8.814  0.0660  0.2259 -0.0312
  162loPI   C3A 2585  11.991   5.567   8.408 -0.2302 -0.1930  0.0241
  162loPI   C4A 2586  12.189   5.335   8.101 -0.1160  0.1245 -0.3187
  162loPI   C5A 2587  12.357   5.395   7.703 -0.0803  0.1235  0.0911
  162loPI   C6A 2588  12.431   5.906   7.658 -0.1514 -0.3043  0.3569
  162loPI   C1B 2589  12.209   6.519   9.048 -0.2622 -0.4325 -0.0583
  162loPI   C2B 2590  11.992   6.267   8.719  0.2664 -0.0706  0.0530
  162loPI   C3B 2591  12.031   6.091   8.314 -0.4657  0.0416  0.0050
  162loPI   C4B 2592  11.999   5.886   7.930 -0.3050 -0.1810  0.1759
  163loPI    C1 2593  14.419  12.019  10.174  0.1876 -0.1624  0.0175
  163loPI    C2 2594  14.065  12.160  10.294  0.1257 -0.2411 -0.0709
  163loPI    C3 2595  14.256  11.887  10.514  0.1306 -0.1998 -0.0240
  163loPI   PO4 2596  14.329  12.026   9.894 -0.1284  0.1827  0.0519
  163loPI   GL1 2597  14.263  12.185   9.475 -0.1168  0.0900  0.0752
  163loPI   GL2 2598  14.021  12.357   9.452 -0.2018 -0.1816  0.0980
  163loPI   C1A 2599  14.563  12.157   9.162  0.0422  0.0097  0.3588
  163loPI   C2A 2600  14.600  12.113   8.789  0.0428  0.0201 -0.0066
  163loPI   C3A 2601  14.709  11.974   8.434  0.0921 -0.1008 -0.0896
  163loPI   C4A 2602  14.729  11.821   7.897  0.0768  0.1547  0.3745
  163loPI   C5A 2603  14.893  11.418   7.763  0.3573 -0.1243  0.1948
  163loPI   C6A 2604  15.142  11.076   7.853 -0.2399 -0.0564 -0.0576
  163loPI   C1B 2605  14.012  12.356   8.905 -0.0241 -0.0462  0.0138
  163loPI   C2B 2606  13.972  12.389   8.556 -0.0685  0.1272 -0.0454
  163loPI   C3B 2607  14.048  12.404   8.026  0.2729  0.1238  0.0541
  163loPI   C4B 2608  13.881  12.477   7.548  0.1557  0.0291  0.0613
  164loPI    C1 2609  14.820  16.323  10.153  0.1339  0.0837 -0.0906
  164loPI    C2 2610  14.591  16.207  10.460 -0.1201  0.1281 -0.2604
  164loPI    C3 2611  14.825  15.941  10.274  0.0378  0.1016 -0.0288
  164loPI   PO4 2612  14.984  16.486  10.204  0.4741  0.0453  0.0113
  164loPI   GL1 2613  15.064  16.578   9.772 -0.0545 -0.2140  0.1476
  164loPI   GL2 2614  14.944  16.906   9.533  0.4036  0.0869  0.0623
  164loPI   C1A 2615  15.321  16.591   9.416 -0.0533 -0.0248  0.3050
  164loPI   C2A 2616  15.390  16.725   9.054 -0.2902  0.0630  0.0568
  164loPI   C3A 2617  15.454  16.581   8.666 -0.2090  0.0770 -0.0748
  164loPI   C4A 2618  15.646  16.803   8.373  0.1554 -0.0110  0.1507
  164loPI   C5A 2619  15.772  16.956   7.905 -0.0031 -0.1978 -0.0916
  164loPI   C6A 2620  15.673  17.192   7.650  0.2058  0.2773 -0.0670
  164loPI   C1B 2621  14.883  17.022   9.104  0.1643  0.1013 -0.0818
  164loPI   C2B 2622  14.687  16.933   8.604  0.0031 -0.0402  0.1762
  164loPI   C3B 2623  14.762  16.976   8.111  0.1100 -0.1938  0.0416
  164loPI   C4B 2624  15.005  16.600   7.935  0.1113  0.1453  0.0314
  165loPI    C1 2625  15.801   1.713  10.032  0.0231  0.1838  0.0118
  165loPI    C2 2626  15.812   2.109  10.092  0.1022  0.1627  0.1401
  165loPI    C3 2627  15.554   1.883  10.297 -0.1075  0.1763 -0.1040
  165loPI   PO4 2628  15.857   1.774   9.737 -0.2188 -0.0948 -0.1963
  165loPI   GL1 2629  15.612   1.526   9.471  0.0703 -0.0129  0.1200
  165loPI   GL2 2630  15.288   1.220   9.489 -0.2337 -0.0758 -0.1751
  165loPI   C1A 2631  15.626   1.706   8.995 -0.1403 -0.0512 -0.2331
  165loPI   C2A 2632  15.570   1.765   8.563  0.1529  0.1088 -0.0110
  165loPI   C3A 2633  15.570   1.827   8.180  0.1625 -0.3035 -0.1764
  165loPI   C4A 2634  15.650   1.816   7.762 -0.2825  0.1321  0.1691
  165loPI   C5A 2635  15.615   1.822   7.336  0.2864  0.2070 -0.0301
  165loPI   C6A 2636  15.804   1.714   7.034  0.2021  0.0452 -0.0220
  165loPI   C1B 2637  15.222   1.465   9.144 -0.1528  0.2047  0.3504
  165loPI   C2B 2638  15.209   1.480   8.752  0.3049 -0.0766  0.1152
  165loPI   C3B 2639  15.322   1.377   8.346  0.0957 -0.0223 -0.2301
  165loPI   C4B 2640  15.551   1.371   7.993 -0.1238 -0.0048 -0.1751
  166loPI    C1 2641  17.884   9.002  10.229  0.0449 -0.1278  0.0061
  166loPI    C2 2642  18.138   8.816  10.475  0.1216 -0.0425 -0.0078
  166loPI    C3 2643  18.276   9.082  10.211 -0.0229  0.2894  0.2441
  166loPI   PO4 2644  17.712   8.799  10.070  0.2815 -0.0769  0.1179
  166loPI   GL1 2645  17.503   8.889   9.714  0.0632  0.3620 -0.1582
  166loPI   GL2 2646  17.640   8.527   9.553  0.0306  0.2994  0.0332
  166loPI   C1A 2647  17.464   9.133   9.352 -0.0378 -0.1642  0.1946
  166loPI   C2A 2648  17.460   9.028   8.919 -0.0664  0.0786 -0.1212
  166loPI   C3A 2649  17.545   8.962   8.536 -0.0560  0.0236  0.2077
  166loPI   C4A 2650  17.406   8.799   8.118  0.4035 -0.1441 -0.0118
  166loPI   C5A 2651  16.955   8.677   7.828 -0.1021  0.0067 -0.1120
  166loPI   C6A 2652  16.575   8.757   7.535 -0.0810 -0.5214  0.3242
  166loPI   C1B 2653  17.480   8.651   9.293 -0.0229 -0.1989 -0.3469
  166loPI   C2B 2654  17.568   8.569   8.863 -0.2652  0.2139  0.0832
  166loPI   C3B 2655  17.777   8.537   8.480  0.2159  0.3065 -0.3213
  166loPI   C4B 2656  17.884   8.706   8.181  0.0813 -0.1815 -0.2621
  167loPI    C1 2657   6.324   5.164  10.095  0.0905 -0.1457  0.0778
  167loPI    C2 2658   6.704   5.253  10.182  0.0412  0.0393  0.1073
  167loPI    C3 2659   6.450   5.153  10.475  0.0483 -0.0123  0.0960
  167loPI   PO4 2660   6.370   5.071   9.831 -0.2211  0.0133 -0.1731
  167loPI   GL1 2661   6.353   5.262   9.455  0.2626 -0.1735 -0.4176
  167loPI   GL2 2662   6.557   5.293   9.307  0.0667  0.4047 -0.2352
  167loPI   C1A 2663   6.098   5.139   9.107 -0.0219  0.0618  0.0482
  167loPI   C2A 2664   5.847   4.976   8.763 -0.0847 -0.1227  0.0818
  167loPI   C3A 2665   5.946   4.956   8.407  0.1931  0.1317 -0.3090
  167loPI   C4A 2666   5.946   5.033   7.980  0.0985  0.3319  0.1228
  167loPI   C5A 2667   5.927   5.009   7.593 -0.0195 -0.3824  0.3286
  167loPI   C6A 2668   5.706   5.024   7.186  0.3260 -0.0414  0.2502
  167loPI   C1B 2669   6.641   5.566   8.939  0.0613  0.1132 -0.2466
  167loPI   C2B 2670   6.378   5.803   8.576 -0.0772 -0.1403 -0.1159
  167loPI   C3B 2671   6.444   5.743   8.226 -0.0892 -0.0885  0.4851
  167loPI   C4B 2672   6.552   5.882   7.875 -0.0104  0.2842 -0.0615
  168loPI    C1 2673  13.424  18.839  10.064 -0.1810 -0.1044 -0.1156
  168loPI    C2 2674  13.624  18.526   9.915 -0.0097 -0.0128 -0.0803
  168loPI    C3 2675  13.224  18.523   9.922 -0.0074 -0.2830  0.0318
  168loPI   PO4 2676  13.463  19.065   9.983 -0.3795  0.0788  0.0931
  168loPI   GL1 2677  13.783  19.211   9.523 -0.1078  0.1602  0.0339
  168loPI   GL2 2678  13.802  18.874   9.543  0.0817 -0.0092  0.0528
  168loPI   C1A 2679  13.892  19.051   9.089  0.4771  0.0610  0.2229
  168loPI   C2A 2680  14.174  18.931   8.824  0.2051 -0.0206 -0.1742
  168loPI   C3A 2681  14.136  18.822   8.356  0.1422  0.0779 -0.2698
  168loPI   C4A 2682  14.091  18.946   7.932 -0.0285 -0.0203 -0.0992
  168loPI   C5A 2683  14.187  18.745   7.598 -0.0904 -0.0878 -0.2166
  168loPI   C6A 2684  13.928  18.721   7.123  0.0993 -0.0973 -0.0519
  168loPI   C1B 2685  13.607  18.577   9.401 -0.0575  0.2971  0.0389
  168loPI   C2B 2686  13.422  18.416   9.022 -0.3242 -0.2369  0.1010
  168loPI   C3B 2687  13.477  18.417   8.521 -0.1008 -0.1798  0.0756
  168loPI   C4B 2688  13.631  18.582   8.126  0.0777 -0.0713  0.1739
  169loPI    C1 2689   2.881  10.223  10.175 -0.1141  0.2044 -0.1177
  169loPI    C2 2690   2.508  10.338  10.264 -0.1852 -0.1214  0.0213
  169loPI    C3 2691   2.750  10.203  10.552  0.0631  0.1425 -0.0587
  169loPI   PO4 2692   2.818  10.207   9.830 -0.1214 -0.1699 -0.2298
  169loPI   GL1 2693   3.055  10.019   9.489  0.0569  0.3321 -0.1883
  169loPI   GL2 2694   3.188  10.301   9.367  0.0186  0.0454  0.0183
  169loPI   C1A 2695   2.966   9.901   9.077  0.1238 -0.2589 -0.0083
  169loPI   C2A 2696   3.061   9.790   8.638  0.1007  0.1089 -0.1120
  169loPI   C3A 2697   3.065   9.574   8.292  0.0934 -0.1386  0.1008
  169loPI   C4A 2698   3.010   9.349   7.925  0.0839 -0.2611  0.2392
  169loPI   C5A 2699   3.037   9.469   7.481 -0.3462  0.3645  0.2661
  169loPI   C6A 2700   3.056   9.790   7.186  0.0301  0.1307 -0.2492
  169loPI   C1B 2701   2.762  10.379   9.158  0.2339  0.2146 -0.0474
  169loPI   C2B 2702   2.560  10.457   8.722 -0.0416 -0.0293 -0.0420
  169loPI   C3B 2703   2.446  10.406   8.305  0.0365  0.1745 -0.0985
  169loPI   C4B 2704   2.361  10.195   8.007 -0.2572 -0.2970  0.0178
  170loPI    C1 2705   4.593  14.113   9.947  0.2067  0.1482  0.1538
  170loPI    C2 2706   4.347  13.821  10.067  0.4176 -0.2363 -0.3150
  170loPI    C3 2707   4.535  14.047  10.338 -0.1265 -0.2033  0.0519
  170loPI   PO4 2708   4.493  14.316   9.737 -0.0240  0.2216  0.0368
  170loPI   GL1 2709   4.575  14.253   9.294  0.1642 -0.1273  0.0114
  170loPI   GL2 2710   4.663  13.938   9.213 -0.0484  0.1693  0.0638
  170loPI   C1A 2711   4.582  14.209   8.759  0.2629 -0.0437  0.0669
  170loPI   C2A 2712   4.656  14.286   8.341 -0.0323 -0.3606 -0.0240
  170loPI   C3A 2713   4.834  14.390   7.906 -0.0929 -0.0648 -0.0497
  170loPI   C4A 2714   4.864  14.346   7.477 -0.3243  0.0944 -0.0117
  170loPI   C5A 2715   4.800  14.718   7.331  0.0603 -0.0691  0.0157
  170loPI   C6A 2716   4.963  15.128   7.341 -0.2363  0.2005  0.0034
  170loPI   C1B 2717   4.757  13.761   8.905 -0.2162 -0.0215 -0.1694
  170loPI   C2B 2718   4.881  13.839   8.476 -0.1600 -0.1802  0.0581
  170loPI   C3B 2719   5.101  13.975   8.085 -0.1708  0.4019  0.1116
  170loPI   C4B 2720   5.370  14.332   7.810 -0.0248 -0.3341  0.0804
  171loPI    C1 2721  13.681  13.610   9.834  0.0669  0.1613  0.0130
  171loPI    C2 2722  13.674  13.222   9.933  0.2523  0.1832  0.1156
  171loPI    C3 2723  13.331  13.425   9.898  0.1390 -0.0553 -0.2045
  171loPI   PO4 2724  13.808  13.602   9.598  0.0650 -0.1023  0.1217
  171loPI   GL1 2725  13.727  13.954   9.385 -0.1910 -0.0516  0.1999
  171loPI   GL2 2726  13.430  13.967   9.343  0.0328  0.1748 -0.0163
  171loPI   C1A 2727  13.876  13.799   8.981 -0.2064  0.0081 -0.0094
  171loPI   C2A 2728  13.909  13.829   8.557 -0.1057 -0.2074 -0.0106
  171loPI   C3A 2729  14.102  13.759   8.150  0.1072  0.0735 -0.3188
  171loPI   C4A 2730  14.101  13.721   7.793  0.1550  0.0898  0.2514
  171loPI   C5A 2731  13.828  13.481   7.659 -0.0389 -0.3436 -0.1348
  171loPI   C6A 2732  13.518  13.302   7.711  0.1320 -0.1312  0.1265
  171loPI   C1B 2733  13.427  14.198   8.939  0.2170 -0.2490  0.2990
  171loPI   C2B 2734  13.714  14.254   8.716 -0.0221 -0.3418  0.0025
  171loPI   C3B 2735  13.817  14.154   8.218  0.1617 -0.0153 -0.0237
  171loPI   C4B 2736  13.703  13.996   7.797 -0.0785  0.2187  0.2639
  172loPI    C1 2737  14.253  11.129  10.210  0.1640 -0.0733 -0.2212
  172loPI    C2 2738  14.170  10.881  10.512 -0.1429  0.1634 -0.1052
  172loPI    C3 2739  14.550  10.978  10.432 -0.0448 -0.0663  0.0679
  172loPI   PO4 2740  14.132  11.132   9.958  0.2689  0.2587 -0.1258
  172loPI   GL1 2741  14.097  11.052   9.601 -0.0151 -0.1292  0.0041
  172loPI   GL2 2742  14.372  10.781   9.539 -0.0111 -0.1415 -0.1509
  172loPI   C1A 2743  14.186  11.192   9.102 -0.2399 -0.1206 -0.2863
  172loPI   C2A 2744  14.245  11.109   8.786 -0.1596 -0.0866 -0.0090
  172loPI   C3A 2745  14.240  11.088   8.407  0.1715 -0.1815  0.1052
  172loPI   C4A 2746  14.217  10.945   7.900 -0.0507  0.0512 -0.0662
  172loPI   C5A 2747  14.631  10.847   7.668 -0.1958  0.0099  0.0178
  172loPI   C6A 2748  14.865  10.996   7.332 -0.1999 -0.0413  0.1258
  172loPI   C1B 2749  14.488  10.769   9.051  0.2824 -0.2913  0.0897
  172loPI   C2B 2750  14.456  10.641   8.660 -0.1100 -0.0025  0.0637
  172loPI   C3B 2751  14.466  10.582   8.238 -0.2833 -0.0697  0.2126
  172loPI   C4B 2752  14.631  10.294   7.841 -0.1396  0.0136 -0.1418
  173loPI    C1 2753   7.247   6.307   9.707  0.0524 -0.2528  0.2062
  173loPI    C2 2754   7.555   6.336   9.960  0.0754 -0.0394  0.1564
  173loPI    C3 2755   7.606   6.419   9.572 -0.0392 -0.0270  0.1434
  173loPI   PO4 2756   7.086   6.102   9.682 -0.1254 -0.0199  0.2194
  173loPI   GL1 2757   7.092   5.996   9.295  0.2857  0.0237 -0.2449
  173loPI   GL2 2758   7.440   6.136   9.235 -0.0965  0.1934  0.0530
  173loPI   C1A 2759   7.275   5.742   8.949  0.1477 -0.1886  0.0130
  173loPI   C2A 2760   7.391   5.723   8.524  0.0021 -0.2693  0.2915
  173loPI   C3A 2761   7.577   5.608   8.188  0.0420 -0.1279  0.0798
  173loPI   C4A 2762   7.603   5.350   7.817  0.1250 -0.0278 -0.0431
  173loPI   C5A 2763   7.353   5.546   7.414 -0.1800  0.2962  0.1160
  173loPI   C6A 2764   6.981   5.351   7.164 -0.1291 -0.2170  0.1844
  173loPI   C1B 2765   7.717   6.088   8.970  0.2172 -0.0684 -0.0352
  173loPI   C2B 2766   7.885   5.786   8.612  0.2439 -0.2338 -0.2706
  173loPI   C3B 2767   8.191   6.058   8.429 -0.0183 -0.2280 -0.3201
  173loPI   C4B 2768   8.394   6.454   8.323  0.2639 -0.1305  0.0000
  174loPI    C1 2769   7.152   4.996  10.074  0.0525 -0.0632 -0.0620
  174loPI    C2 2770   7.339   5.255  10.314 -0.3121  0.1558 -0.0064
  174loPI    C3 2771   7.218   5.371   9.951 -0.2786 -0.0036 -0.0691
  174loPI   PO4 2772   7.314   4.786  10.036  0.2285 -0.0017  0.2373
  174loPI   GL1 2773   7.475   4.536   9.635  0.0094 -0.0936 -0.1797
  174loPI   GL2 2774   7.474   4.880   9.533  0.2368 -0.2552 -0.2473
  174loPI   C1A 2775   7.305   4.342   9.291  0.0832  0.0261  0.1631
  174loPI   C2A 2776   7.275   4.290   8.901  0.0161  0.1204 -0.0186
  174loPI   C3A 2777   7.340   4.276   8.466 -0.1574 -0.0051 -0.0009
  174loPI   C4A 2778   7.511   4.159   8.019  0.1706  0.2427  0.0158
  174loPI   C5A 2779   7.403   4.075   7.558  0.4286  0.0692  0.0498
  174loPI   C6A 2780   7.291   3.761   7.319 -0.1921  0.3997 -0.1201
  174loPI   C1B 2781   7.543   4.738   9.094  0.0295  0.0199  0.1041
  174loPI   C2B 2782   7.592   4.641   8.697 -0.3977  0.2838  0.2910
  174loPI   C3B 2783   7.549   4.737   8.278 -0.1188 -0.3099 -0.1147
  174loPI   C4B 2784   7.192   4.663   7.956  0.1078 -0.1107 -0.0012
  175loPI    C1 2785  10.523  14.689  10.381 -0.2647  0.1341  0.1431
  175loPI    C2 2786  10.856  14.657  10.599 -0.2001 -0.0390  0.0214
  175loPI    C3 2787  10.499  14.594  10.769 -0.1717  0.1358  0.1495
  175loPI   PO4 2788  10.633  14.628  10.096 -0.1443  0.0098 -0.1016
  175loPI   GL1 2789  10.446  14.765   9.742  0.1473  0.5483 -0.0666
  175loPI   GL2 2790  10.470  15.022   9.672 -0.0669  0.0181  0.0798
  175loPI   C1A 2791  10.386  14.642   9.257 -0.3605 -0.0197  0.2394
  175loPI   C2A 2792  10.396  14.802   8.903 -0.0625  0.2412  0.2432
  175loPI   C3A 2793  10.152  14.790   8.503 -0.0109 -0.0687 -0.1863
  175loPI   C4A 2794   9.961  14.888   8.117  0.0385 -0.0121  0.2043
  175loPI   C5A 2795   9.628  14.765   7.832  0.1266 -0.2259  0.1685
  175loPI   C6A 2796   9.433  15.105   7.670 -0.0530  0.4321 -0.2128
  175loPI   C1B 2797  10.616  15.110   9.364  0.2500 -0.1787  0.1897
  175loPI   C2B 2798  10.329  15.345   9.042  0.0730  0.1323  0.1323
  175loPI   C3B 2799  10.208  15.389   8.528  0.2496  0.2189 -0.4420
  175loPI   C4B 2800  10.259  15.385   8.077  0.3613 -0.0912  0.0609
  176loPI    C1 2801  10.164  17.787  10.178 -0.0093 -0.1687  0.0351
  176loPI    C2 2802   9.913  17.891  10.471 -0.2129 -0.0201 -0.1884
  176loPI    C3 2803  10.232  18.119  10.391 -0.2276  0.0084 -0.1652
  176loPI   PO4 2804   9.997  17.664   9.924 -0.0564  0.3011 -0.0612
  176loPI   GL1 2805  10.103  17.607   9.460  0.0545 -0.2356 -0.4290
  176loPI   GL2 2806   9.949  17.972   9.439 -0.0335  0.0142  0.4304
  176loPI   C1A 2807  10.010  17.601   9.017 -0.1609  0.1067  0.1287
  176loPI   C2A 2808  10.091  17.737   8.631 -0.1519  0.0530 -0.0104
  176loPI   C3A 2809  10.169  17.659   8.183  0.2609  0.2965  0.0717
  176loPI   C4A 2810  10.121  17.571   7.660 -0.0438 -0.0547 -0.0788
  176loPI   C5A 2811   9.953  17.237   7.359 -0.0150  0.2736  0.2566
  176loPI   C6A 2812   9.989  16.688   7.325  0.1265 -0.1529 -0.0376
  176loPI   C1B 2813   9.923  18.109   9.082 -0.2124  0.0771 -0.1982
  176loPI   C2B 2814  10.029  18.178   8.761 -0.1191  0.1020  0.0399
  176loPI   C3B 2815   9.952  18.128   8.342  0.5142 -0.0809 -0.1500
  176loPI   C4B 2816   9.860  17.905   7.937  0.3603 -0.3819  0.1055
  177loPI    C1 2817   0.327  11.628  10.138  0.1828 -0.1633  0.1137
  177loPI    C2 2818  -0.065  11.559  10.173  0.1116  0.0121 -0.2853
  177loPI    C3 2819   0.080  11.927  10.235  0.1833 -0.0052 -0.3491
  177loPI   PO4 2820   0.348  11.514   9.872 -0.0864  0.2269  0.0137
  177loPI   GL1 2821   0.362  11.689   9.466  0.1979 -0.0664  0.0535
  177loPI   GL2 2822   0.637  11.804   9.432  0.1585 -0.0176  0.1866
  177loPI   C1A 2823   0.302  11.415   9.074  0.1532  0.0081 -0.1627
  177loPI   C2A 2824   0.244  11.167   8.721 -0.0513  0.0824 -0.0779
  177loPI   C3A 2825   0.200  11.286   8.327  0.1245 -0.3949  0.1436
  177loPI   C4A 2826   0.033  11.245   7.960 -0.2243 -0.1750  0.1355
  177loPI   C5A 2827   0.062  11.367   7.631 -0.2600 -0.2455  0.1498
  177loPI   C6A 2828   0.035  11.335   7.204 -0.0042 -0.0034 -0.0177
  177loPI   C1B 2829   0.535  11.850   9.008  0.2217 -0.1396 -0.1624
  177loPI   C2B 2830   0.395  11.923   8.552  0.3419 -0.3542  0.1321
  177loPI   C3B 2831   0.366  12.025   8.144  0.0296  0.3999  0.0695
  177loPI   C4B 2832   0.479  11.863   7.770  0.2746 -0.1450 -0.1473
  178loPI    C1 2833   2.550  16.944   9.944 -0.0510 -0.1550  0.0069
  178loPI    C2 2834   2.513  17.120  10.301 -0.0988 -0.2018  0.0249
  178loPI    C3 2835   2.867  17.117  10.116 -0.0827 -0.1441  0.0544
  178loPI   PO4 2836   2.364  17.000   9.762  0.1253  0.0406  0.0963
  178loPI   GL1 2837   2.304  17.205   9.294 -0.2075  0.0493  0.1049
  178loPI   GL2 2838   2.045  17.259   9.118 -0.2531 -0.3298  0.1578
  178loPI   C1A 2839   2.423  16.906   8.969  0.0716 -0.1504  0.0185
  178loPI   C2A 2840   2.368  16.804   8.482  0.1408  0.1163 -0.3182
  178loPI   C3A 2841   2.455  16.727   8.024  0.1728 -0.0443  0.0788
  178loPI   C4A 2842   2.285  16.995   7.620 -0.1527 -0.3473 -0.0449
  178loPI   C5A 2843   2.350  17.073   7.213  0.2771  0.1490 -0.1213
  178loPI   C6A 2844   2.790  17.008   6.969 -0.0736 -0.0011  0.3144
  178loPI   C1B 2845   1.961  17.006   8.760  0.0937  0.1193 -0.1186
  178loPI   C2B 2846   1.942  17.215   8.340 -0.1454 -0.0006  0.5496
  178loPI   C3B 2847   2.075  17.357   7.967 -0.2436 -0.1974  0.1103
  178loPI   C4B 2848   1.816  17.321   7.652 -0.2038 -0.2373  0.1379
  179loPI    C1 2849   0.170   8.809  10.179  0.3262 -0.0336  0.2738
  179loPI    C2 2850  -0.094   9.088  10.067  0.1620 -0.2954 -0.0070
  179loPI    C3 2851   0.078   9.109  10.427  0.1879  0.1904 -0.0409
  179loPI   PO4 2852   0.274   8.667   9.894 -0.2486  0.0804  0.1217
  179loPI   GL1 2853   0.451   8.916   9.632  0.0008  0.0224 -0.0095
  179loPI   GL2 2854   0.545   9.253   9.658  0.0286  0.1855  0.0623
  179loPI   C1A 2855   0.354   8.931   9.225 -0.0389  0.2436 -0.0649
  179loPI   C2A 2856   0.304   8.981   8.862 -0.0329  0.1326 -0.1656
  179loPI   C3A 2857   0.361   8.953   8.448  0.0105  0.3406  0.1255
  179loPI   C4A 2858   0.291   9.007   8.038  0.0879 -0.0708 -0.0740
  179loPI   C5A 2859   0.162   8.846   7.618  0.1307  0.1833  0.0505
  179loPI   C6A 2860   0.164   8.693   7.231  0.1205 -0.0701 -0.2398
  179loPI   C1B 2861   0.754   9.212   9.231  0.3938  0.1652  0.0284
  179loPI   C2B 2862   0.827   9.123   8.777 -0.0546  0.0458  0.4460
  179loPI   C3B 2863   0.870   9.107   8.309  0.1153  0.1986  0.2370
  179loPI   C4B 2864   0.818   9.101   7.883  0.0030  0.1521  0.0685
  180loPI    C1 2865   6.862   0.006  10.069  0.0382  0.0394 -0.0830
  180loPI    C2 2866   6.856   0.132  10.448  0.2518 -0.3453  0.0532
  180loPI    C3 2867   7.056   0.340  10.171  0.0642 -0.0427  0.1410
  180loPI   PO4 2868   6.631  -0.136   9.914  0.2770  0.0449  0.3793
  180loPI   GL1 2869   6.371  -0.260   9.527 -0.1405  0.3241 -0.1794
  180loPI   GL2 2870   6.613  -0.026   9.408 -0.2265  0.0706  0.0818
  180loPI   C1A 2871   6.060  -0.148   9.249  0.1236 -0.0599 -0.0951
  180loPI   C2A 2872   5.938  -0.286   8.870  0.1796 -0.1145 -0.4197
  180loPI   C3A 2873   5.748  -0.079   8.508  0.2782 -0.1471  0.2479
  180loPI   C4A 2874   5.615  -0.160   8.078 -0.0396 -0.0340  0.0175
  180loPI   C5A 2875   5.674   0.108   7.728  0.1045 -0.1009 -0.1932
  180loPI   C6A 2876   5.489  -0.005   7.332  0.1455 -0.3510  0.2131
  180loPI   C1B 2877   6.410   0.221   9.176 -0.4310  0.0358  0.0750
  180loPI   C2B 2878   6.158   0.138   8.712  0.1301  0.1905 -0.0030
  180loPI   C3B 2879   6.117   0.082   8.241  0.0192 -0.1019  0.2885
  180loPI   C4B 2880   6.070  -0.240   7.937  0.4101 -0.1380  0.0571
  181loPI    C1 2881   7.828   4.126  10.208 -0.0768  0.1089 -0.1424
  181loPI    C2 2882   8.053   4.385  10.413 -0.1797 -0.1660  0.3323
  181loPI    C3 2883   7.660   4.360  10.486 -0.3481  0.1879 -0.3674
  181loPI   PO4 2884   7.914   4.158   9.938  0.2073  0.1382 -0.1414
  181loPI   GL1 2885   7.989   4.043   9.492 -0.0033 -0.2117  0.2262
  181loPI   GL2 2886   8.244   4.185   9.618 -0.1780  0.1584 -0.2597
  181loPI   C1A 2887   8.043   3.786   9.122 -0.0422  0.0230  0.1051
  181loPI   C2A 2888   8.062   3.618   8.655  0.0808 -0.1123  0.0405
  181loPI   C3A 2889   8.168   3.652   8.275 -0.2121 -0.0610 -0.2805
  181loPI   C4A 2890   8.098   3.395   7.845 -0.0444  0.1077 -0.2359
  181loPI   C5A 2891   8.138   3.031   7.757 -0.4423 -0.2839 -0.0227
  181loPI   C6A 2892   8.146   2.837   7.385  0.1305 -0.1949  0.0644
  181loPI   C1B 2893   8.576   3.999   9.408 -0.1522 -0.0771 -0.1835
  181loPI   C2B 2894   8.856   4.031   8.961 -0.0108  0.0414 -0.2521
  181loPI   C3B 2895   8.910   3.977   8.623 -0.0787  0.3241 -0.2855
  181loPI   C4B 2896   8.948   4.160   8.251 -0.1000 -0.0571  0.0229
  182loPI    C1 2897  10.323   4.047  10.051 -0.2664  0.2481 -0.0226
  182loPI    C2 2898   9.994   4.052  10.279 -0.0400  0.0148  0.3204
  182loPI    C3 2899  10.233   4.373  10.265 -0.1743  0.1122  0.2275
  182loPI   PO4 2900  10.286   3.980   9.741 -0.1807 -0.0570 -0.0328
  182loPI   GL1 2901  10.219   3.662   9.526  0.2794  0.1024  0.2050
  182loPI   GL2 2902  10.217   3.467   9.554  0.0541 -0.0786 -0.0379
  182loPI   C1A 2903  10.303   3.771   9.082  0.2247  0.0781 -0.0358
  182loPI   C2A 2904  10.302   3.742   8.689 -0.0935  0.4938 -0.0900
  182loPI   C3A 2905  10.324   3.860   8.315 -0.0362  0.0036  0.1131
  182loPI   C4A 2906  10.534   3.938   7.955  0.3960 -0.0511  0.0100
  182loPI   C5A 2907  10.672   4.263   7.696  0.2216 -0.0709 -0.2209
  182loPI   C6A 2908  10.430   4.468   7.325  0.1548  0.0071  0.0990
  182loPI   C1B 2909   9.872   3.566   9.165 -0.1510  0.0225 -0.3112
  182loPI   C2B 2910   9.721   3.614   8.755 -0.3324  0.6833  0.0219
  182loPI   C3B 2911   9.745   3.636   8.257  0.0537  0.0763 -0.1268
  182loPI   C4B 2912   9.697   3.931   7.857  0.1261 -0.2869  0.2139
  183loPI    C1 2913   8.737  17.503  10.266 -0.0892  0.2445  0.1652
  183loPI    C2 2914   9.092  17.411  10.427 -0.1166 -0.0859  0.0443
  183loPI    C3 2915   8.757  17.369  10.642 -0.1332 -0.3205 -0.0244
  183loPI   PO4 2916   8.852  17.361   9.923  0.2904  0.0737 -0.2761
  183loPI   GL1 2917   8.573  17.300   9.420 -0.1122  0.0811 -0.1343
  183loPI   GL2 2918   8.543  17.519   9.212 -0.0537  0.0938 -0.1753
  183loPI   C1A 2919   8.870  17.075   8.967 -0.0053 -0.0893  0.0833
  183loPI   C2A 2920   8.964  16.938   8.579  0.1469 -0.1736  0.2753
  183loPI   C3A 2921   8.976  16.984   8.067  0.0095  0.1325  0.0629
  183loPI   C4A 2922   9.188  16.813   7.597  0.1847  0.0448  0.0540
  183loPI   C5A 2923   9.066  16.590   7.263 -0.0671 -0.1347  0.0872
  183loPI   C6A 2924   9.322  16.160   7.102  0.0263 -0.1252 -0.1505
  183loPI   C1B 2925   8.677  17.494   8.773  0.1532 -0.1035 -0.0528
  183loPI   C2B 2926   8.720  17.476   8.378 -0.0851  0.1284 -0.0797
  183loPI   C3B 2927   8.661  17.388   7.995 -0.3803  0.1452 -0.1756
  183loPI   C4B 2928   8.527  17.305   7.620  0.0909  0.2284 -0.0188
  184loPI    C1 2929   6.832   3.088  10.201  0.1918 -0.1178 -0.2077
  184loPI    C2 2930   7.088   3.342  10.029  0.1201  0.1039  0.0080
  184loPI    C3 2931   6.725   3.468  10.139  0.1446 -0.0472  0.2707
  184loPI   PO4 2932   6.795   2.839  10.128 -0.3812 -0.1751  0.2053
  184loPI   GL1 2933   6.804   2.636   9.744 -0.0006  0.2931  0.1278
  184loPI   GL2 2934   6.994   2.584   9.501 -0.1074  0.1867  0.1070
  184loPI   C1A 2935   6.535   2.838   9.449 -0.0251 -0.1382 -0.0401
  184loPI   C2A 2936   6.567   2.982   9.037 -0.1079  0.2224 -0.0250
  184loPI   C3A 2937   6.688   2.984   8.696 -0.1155  0.0608  0.2202
  184loPI   C4A 2938   6.861   2.948   8.309 -0.2035  0.3200 -0.1034
  184loPI   C5A 2939   6.825   2.939   7.955 -0.0489 -0.1634  0.0519
  184loPI   C6A 2940   6.598   2.642   7.733  0.5117 -0.1753 -0.1473
  184loPI   C1B 2941   7.040   2.720   9.061 -0.1584  0.2316 -0.0449
  184loPI   C2B 2942   7.277   2.833   8.641  0.2365 -0.4085  0.1306
  184loPI   C3B 2943   7.380   2.910   8.190 -0.1569 -0.0209 -0.1622
  184loPI   C4B 2944   7.236   2.652   7.842 -0.0305 -0.1792 -0.0963
  185loPI    C1 2945  15.898  18.714  10.286 -0.0794  0.0510  0.0688
  185loPI    C2 2946  15.902  18.343  10.436  0.3245 -0.0001 -0.0576
  185loPI    C3 2947  15.745  18.643  10.649  0.2076 -0.2020  0.1444
  185loPI   PO4 2948  15.983  18.710  10.010  0.0875  0.1653  0.4219
  185loPI   GL1 2949  15.840  18.707   9.593  0.3170 -0.0848  0.3384
  185loPI   GL2 2950  15.549  18.575   9.354 -0.3557 -0.2304  0.1625
  185loPI   C1A 2951  15.925  18.971   9.355 -0.0368  0.1974  0.1216
  185loPI   C2A 2952  15.962  19.028   8.957 -0.1259  0.1610 -0.0490
  185loPI   C3A 2953  15.794  19.189   8.703 -0.1747 -0.0171 -0.1613
  185loPI   C4A 2954  15.876  19.207   8.266  0.0711  0.0817 -0.0108
  185loPI   C5A 2955  15.838  19.323   7.875  0.2888 -0.1606  0.0828
  185loPI   C6A 2956  16.072  19.534   7.506 -0.0840 -0.1014 -0.0093
  185loPI   C1B 2957  15.517  18.607   8.903 -0.1284 -0.0226 -0.1892
  185loPI   C2B 2958  15.843  18.717   8.505 -0.0315  0.0569  0.1351
  185loPI   C3B 2959  16.008  18.764   8.061  0.1276 -0.2835  0.1648
  185loPI   C4B 2960  16.185  18.699   7.657 -0.0607 -0.4754  0.2321
  186loPI    C1 2961  10.783   0.687   9.770  0.0726 -0.1649 -0.0297
  186loPI    C2 2962  10.720   0.641  10.162  0.1129  0.2817  0.0340
  186loPI    C3 2963  11.088   0.596  10.012  0.0311 -0.2762 -0.0187
  186loPI   PO4 2964  10.714   0.475   9.657  0.3250  0.1365 -0.0572
  186loPI   GL1 2965  10.942   0.390   9.320 -0.1365  0.1506  0.0381
  186loPI   GL2 2966  11.139   0.543   9.442  0.1961 -0.1664  0.0796
  186loPI   C1A 2967  10.890   0.558   8.942  0.1878  0.0078 -0.1056
  186loPI   C2A 2968  11.039   0.603   8.524 -0.2023 -0.1679  0.0821
  186loPI   C3A 2969  11.418   0.709   8.246 -0.1782  0.0187 -0.1816
  186loPI   C4A 2970  11.466   0.899   7.772  0.0371 -0.4282  0.1006
  186loPI   C5A 2971  11.493   0.892   7.270  0.0606 -0.1779  0.1253
  186loPI   C6A 2972  11.679   1.142   6.943  0.1335 -0.1591 -0.0633
  186loPI   C1B 2973  11.355   0.534   9.063  0.2258  0.1928  0.0516
  186loPI   C2B 2974  11.569   0.481   8.686  0.1676  0.0430  0.2704
  186loPI   C3B 2975  11.897   0.456   8.416 -0.0042 -0.1335 -0.2874
  186loPI   C4B 2976  11.868   0.420   8.038 -0.3182 -0.0460  0.2503
  187loPI    C1 2977   0.792  16.594  10.126  0.0762 -0.4541  0.2306
  187loPI    C2 2978   0.992  16.899   9.961 -0.4150 -0.2181  0.0541
  187loPI    C3 2979   1.141  16.714  10.283 -0.0845  0.1739  0.1354
  187loPI   PO4 2980   0.690  16.511   9.848  0.0723  0.1390 -0.2453
  187loPI   GL1 2981   0.734  16.765   9.353  0.0885  0.2095 -0.2703
  187loPI   GL2 2982   0.955  17.058   9.402  0.1808  0.0662 -0.3386
  187loPI   C1A 2983   0.644  16.591   8.967 -0.0887  0.1579  0.1847
  187loPI   C2A 2984   0.520  16.601   8.516  0.1104  0.2567  0.1314
  187loPI   C3A 2985   0.573  16.539   8.008 -0.2058 -0.0401  0.1466
  187loPI   C4A 2986   0.746  16.574   7.627  0.0961  0.0717  0.2011
  187loPI   C5A 2987   0.772  16.735   7.259  0.3075 -0.1346  0.3385
  187loPI   C6A 2988   0.705  16.695   6.731  0.2998 -0.1729 -0.0750
  187loPI   C1B 2989   0.712  17.161   9.040  0.2690 -0.2082  0.1630
  187loPI   C2B 2990   0.649  17.195   8.559 -0.0724  0.0244  0.0991
  187loPI   C3B 2991   0.604  17.253   8.020 -0.3521  0.0954 -0.2910
  187loPI   C4B 2992   0.759  17.093   7.582  0.1003  0.0684  0.0735
  188loPI    C1 2993   3.991   9.523   9.782 -0.1488 -0.2472 -0.2043
  188loPI    C2 2994   3.814   9.282   9.516  0.1542 -0.3450 -0.3210
  188loPI    C3 2995   3.830   9.177   9.901 -0.0717 -0.3180 -0.3034
  188loPI   PO4 2996   3.955   9.687   9.740  0.2880  0.0278  0.0069
  188loPI   GL1 2997   3.969   9.937   9.262 -0.2930  0.2104  0.1310
  188loPI   GL2 2998   3.878  10.302   9.266 -0.2796  0.1311 -0.0045
  188loPI   C1A 2999   3.957   9.762   8.810  0.1035 -0.2408 -0.1020
  188loPI   C2A 3000   3.979   9.714   8.285  0.0400 -0.0988 -0.4077
  188loPI   C3A 3001   3.963   9.542   8.014  0.0184 -0.1781 -0.2078
  188loPI   C4A 3002   4.177   9.345   7.694  0.1576  0.2296  0.1196
  188loPI   C5A 3003   4.255   9.044   7.457 -0.1055 -0.3260  0.1340
  188loPI   C6A 3004   4.608   8.743   7.381 -0.0751  0.0179  0.0818
  188loPI   C1B 3005   3.772  10.271   8.926  0.4245  0.2609 -0.1196
  188loPI   C2B 3006   3.671  10.136   8.555 -0.0851 -0.2866 -0.1950
  188loPI   C3B 3007   3.596  10.020   8.169 -0.0662 -0.3186  0.1349
  188loPI   C4B 3008   3.864  10.093   7.888 -0.1248  0.4160  0.0386
  189loPI    C1 3009   2.497  11.013  10.003 -0.0464 -0.0483  0.1627
  189loPI    C2 3010   2.737  10.694  10.036  0.1446  0.0671 -0.0757
  189loPI    C3 3011   2.817  11.026  10.244  0.0447  0.0204  0.0388
  189loPI   PO4 3012   2.434  11.008   9.746  0.0877 -0.1547  0.0566
  189loPI   GL1 3013   2.298  10.963   9.436  0.3362 -0.0285 -0.0690
  189loPI   GL2 3014   2.466  10.938   9.140 -0.0504 -0.0218  0.3089
  189loPI   C1A 3015   1.832  10.769   9.395 -0.0274 -0.3910  0.0984
  189loPI   C2A 3016   1.636  10.846   8.989 -0.2763 -0.1660 -0.0999
  189loPI   C3A 3017   1.518  10.712   8.694  0.2465 -0.1839  0.0275
  189loPI   C4A 3018   1.399  10.546   8.346 -0.0171 -0.2524  0.0530
  189loPI   C5A 3019   1.087  10.639   8.010  0.0249 -0.1032 -0.0177
  189loPI   C6A 3020   0.769  10.568   7.787  0.0649  0.1398 -0.2180
  189loPI   C1B 3021   2.528  10.976   8.835 -0.0109  0.0025 -0.2533
  189loPI   C2B 3022   2.495  10.889   8.488  0.2799  0.0707 -0.1514
  189loPI   C3B 3023   2.202  10.830   8.138 -0.1641  0.1917  0.2117
  189loPI   C4B 3024   1.985  10.974   7.684 -0.0641  0.0484  0.0479
  190loPI    C1 3025   6.623   9.564   9.913  0.0797  0.1189 -0.0927
  190loPI    C2 3026   7.018   9.501   9.939  0.0564  0.0912  0.2280
  190loPI    C3 3027   6.767   9.298  10.175 -0.1414  0.2001  0.1141
  190loPI   PO4 3028   6.647   9.749   9.722  0.3996  0.0699 -0.0316
  190loPI   GL1 3029   6.520   9.691   9.349 -0.0399 -0.0256  0.3705
  190loPI   GL2 3030   6.235   9.802   9.168  0.1068 -0.0855 -0.1505
  190loPI   C1A 3031   6.708   9.503   8.966 -0.1944  0.0852  0.0810
  190loPI   C2A 3032   6.814   9.574   8.596 -0.1088  0.0738  0.2156
  190loPI   C3A 3033   6.882   9.779   8.227  0.0423  0.4655 -0.0531
  190loPI   C4A 3034   7.038   9.887   7.754  0.0236 -0.2732 -0.0468
  190loPI   C5A 3035   7.446   9.776   7.534 -0.0539  0.1428 -0.1599
  190loPI   C6A 3036   7.488   9.480   7.155  0.0029 -0.0054  0.2025
  190loPI   C1B 3037   6.270   9.739   8.763  0.1989  0.1168  0.0472
  190loPI   C2B 3038   6.357   9.778   8.318 -0.1599  0.1109 -0.3152
  190loPI   C3B 3039   6.469   9.938   7.910 -0.1975 -0.1917  0.2133
  190loPI   C4B 3040   6.543   9.894   7.445  0.2480  0.2685 -0.0903
  191loPI    C1 3041  18.721   7.871   9.961  0.0371 -0.1437 -0.0499
  191loPI    C2 3042  18.422   8.136   9.964  0.0207 -0.1628  0.0217
  191loPI    C3 3043  18.545   7.969  10.306  0.2619  0.0129  0.0232
  191loPI   PO4 3044  18.839   7.892   9.867 -0.4673 -0.0075  0.3282
  191loPI   GL1 3045  18.900   8.207   9.538 -0.0862  0.0975 -0.0899
  191loPI   GL2 3046  19.080   8.444   9.376  0.0335  0.0031 -0.0011
  191loPI   C1A 3047  18.789   7.942   9.202 -0.3030 -0.0353  0.2757
  191loPI   C2A 3048  18.807   7.922   8.734  0.0239  0.0074 -0.0943
  191loPI   C3A 3049  18.745   8.009   8.366  0.0608 -0.2513  0.1576
  191loPI   C4A 3050  18.435   8.093   7.994  0.1201  0.0810  0.0261
  191loPI   C5A 3051  18.403   8.212   7.586  0.1276 -0.1897  0.2318
  191loPI   C6A 3052  18.420   8.186   7.169 -0.1383  0.0726  0.0936
  191loPI   C1B 3053  19.022   8.352   8.954  0.1908  0.0374  0.0974
  191loPI   C2B 3054  19.009   8.509   8.512  0.1177 -0.3546  0.2311
  191loPI   C3B 3055  19.024   8.504   8.131  0.0110  0.0799  0.2914
  191loPI   C4B 3056  18.911   8.351   7.681  0.1647 -0.0387  0.1674
  192loPI    C1 3057   7.998   0.143   9.829 -0.0289  0.0818 -0.3023
  192loPI    C2 3058   7.628   0.224   9.956 -0.0174 -0.1367 -0.1236
  192loPI    C3 3059   7.897   0.071  10.209  0.1286 -0.1923 -0.3098
  192loPI   PO4 3060   7.962  -0.031   9.651 -0.2140  0.2345 -0.2050
  192loPI   GL1 3061   8.046  -0.167   9.233  0.0810  0.0427  0.1216
  192loPI   GL2 3062   8.103   0.179   9.106 -0.0067  0.1906  0.2469
  192loPI   C1A 3063   7.998  -0.185   8.828 -0.1979  0.4196  0.0192
  192loPI   C2A 3064   8.093  -0.046   8.413 -0.0845  0.2250 -0.3461
  192loPI   C3A 3065   7.976   0.126   8.114 -0.2316 -0.3612  0.4753
  192loPI   C4A 3066   7.937   0.057   7.822  0.0472 -0.1155  0.0467
  192loPI   C5A 3067   7.829  -0.295   7.498 -0.1950  0.1649 -0.1777
  192loPI   C6A 3068   7.609  -0.485   7.274  0.0896 -0.0061  0.1612
  192loPI   C1B 3069   7.876   0.405   8.813  0.5532  0.1005  0.2547
  192loPI   C2B 3070   7.836   0.497   8.437  0.2799  0.3525  0.0414
  192loPI   C3B 3071   7.584   0.500   8.093 -0.1106  0.1390 -0.2326
  192loPI   C4B 3072   7.516   0.347   7.710  0.0540  0.0025 -0.1230
  193loPI    C1 3073   0.308  13.079   9.751  0.1515  0.1765 -0.1728
  193loPI    C2 3074   0.595  13.321   9.887  0.0084  0.2011  0.0933
  193loPI    C3 3075   0.490  12.999  10.098  0.1746 -0.0797 -0.2421
  193loPI   PO4 3076   0.324  13.065   9.559 -0.4149  0.2415 -0.1165
  193loPI   GL1 3077   0.426  13.307   9.275  0.0663  0.1300  0.1894
  193loPI   GL2 3078   0.543  13.507   9.404 -0.2231 -0.0726 -0.3703
  193loPI   C1A 3079   0.311  13.454   8.920  0.0907  0.1696  0.1544
  193loPI   C2A 3080   0.223  13.420   8.543 -0.0056 -0.0578  0.0005
  193loPI   C3A 3081   0.123  13.293   8.077  0.3820 -0.0727  0.1400
  193loPI   C4A 3082  -0.140  13.400   7.717  0.0244  0.0912  0.4128
  193loPI   C5A 3083  -0.427  13.452   7.404  0.0571  0.1089 -0.2029
  193loPI   C6A 3084  -0.399  13.736   7.039 -0.0427  0.1251 -0.2854
  193loPI   C1B 3085   0.227  13.832   9.311 -0.2616  0.1968 -0.2180
  193loPI   C2B 3086  -0.073  13.837   9.106  0.1854  0.1298  0.0311
  193loPI   C3B 3087  -0.154  13.649   8.773 -0.0402 -0.1888 -0.1871
  193loPI   C4B 3088  -0.235  13.563   8.324 -0.3698 -0.0131 -0.3617
  194loPI    C1 3089  18.477   2.682  10.350  0.0195  0.2760  0.0540
  194loPI    C2 3090  18.643   3.007  10.513  0.1655  0.1481  0.1625
  194loPI    C3 3091  18.569   2.685  10.739  0.1132  0.0697  0.0348
  194loPI   PO4 3092  18.730   2.591  10.055  0.0853  0.1419 -0.1552
  194loPI   GL1 3093  18.820   2.707   9.600 -0.1136 -0.2609  0.2762
  194loPI   GL2 3094  18.715   3.023   9.565 -0.1315 -0.1798 -0.2262
  194loPI   C1A 3095  19.099   2.808   9.140  0.2457 -0.2981  0.0603
  194loPI   C2A 3096  19.084   2.694   8.738 -0.0290  0.1676  0.0773
  194loPI   C3A 3097  18.853   2.548   8.336  0.3721  0.2627 -0.2541
  194loPI   C4A 3098  18.596   2.661   7.872  0.2858  0.2324 -0.0652
  194loPI   C5A 3099  18.508   2.328   7.457  0.0986 -0.2566 -0.0407
  194loPI   C6A 3100  18.326   2.002   7.356 -0.0861 -0.0471 -0.2438
  194loPI   C1B 3101  18.390   3.412   9.503  0.2039 -0.0671  0.2911
  194loPI   C2B 3102  18.359   3.718   9.198  0.1863  0.1160  0.3419
  194loPI   C3B 3103  18.674   3.842   8.897 -0.0936 -0.1476  0.3078
  194loPI   C4B 3104  18.935   4.152   8.778  0.2326 -0.2496  0.3293
  195loPI    C1 3105   7.632  16.690   9.947 -0.1033 -0.2974 -0.1365
  195loPI    C2 3106   7.477  16.851  10.279  0.2608  0.0350 -0.1208
  195loPI    C3 3107   7.334  16.505  10.139  0.0274 -0.0528  0.3173
  195loPI   PO4 3108   7.690  16.873   9.731 -0.2004  0.5195  0.0765
  195loPI   GL1 3109   7.632  16.988   9.283 -0.1579 -0.4114 -0.1064
  195loPI   GL2 3110   7.460  16.735   9.339 -0.0903 -0.0439 -0.0036
  195loPI   C1A 3111   7.820  16.939   8.948 -0.0275  0.0374  0.0612
  195loPI   C2A 3112   7.839  16.818   8.574 -0.2415 -0.0201 -0.3821
  195loPI   C3A 3113   7.949  16.817   8.231 -0.2282  0.2099  0.2865
  195loPI   C4A 3114   7.764  16.793   7.873  0.1596 -0.3764  0.0227
  195loPI   C5A 3115   7.672  16.636   7.507  0.2345  0.0572 -0.3141
  195loPI   C6A 3116   7.668  16.854   7.170  0.0958 -0.1888 -0.4393
  195loPI   C1B 3117   7.518  16.550   8.936  0.0398  0.1676 -0.3002
  195loPI   C2B 3118   7.534  16.433   8.568  0.1654 -0.1800 -0.1390
  195loPI   C3B 3119   7.671  16.428   8.187  0.0453  0.2514  0.3055
  195loPI   C4B 3120   7.889  16.285   7.783  0.0484 -0.1242 -0.3253
  196loPI    C1 3121  10.547   7.720  10.122 -0.0418 -0.0137 -0.0946
  196loPI    C2 3122  10.528   8.095   9.985 -0.1175 -0.0098 -0.0737
  196loPI    C3 3123  10.551   8.027  10.378 -0.1552 -0.0283 -0.0747
  196loPI   PO4 3124  10.740   7.609   9.990  0.1823 -0.3217 -0.0765
  196loPI   GL1 3125  10.993   7.957   9.745 -0.0349  0.1747  0.1843
  196loPI   GL2 3126  10.839   8.026   9.564  0.1246 -0.3894 -0.0017
  196loPI   C1A 3127  11.224   7.781   9.404  0.2528  0.4828 -0.0244
  196loPI   C2A 3128  11.570   7.675   9.214 -0.1747 -0.1243  0.2225
  196loPI   C3A 3129  11.825   7.861   8.867  0.1369 -0.0713  0.3355
  196loPI   C4A 3130  11.866   7.769   8.524  0.2842  0.0899  0.0081
  196loPI   C5A 3131  11.880   7.669   8.175  0.0783 -0.1380 -0.3151
  196loPI   C6A 3132  12.074   7.584   7.716  0.0979 -0.2577  0.1074
  196loPI   C1B 3133  10.823   7.615   9.247  0.0989  0.3126 -0.2021
  196loPI   C2B 3134  10.784   7.604   8.811 -0.0112  0.1430  0.2542
  196loPI   C3B 3135  10.954   7.375   8.530 -0.2861 -0.0263  0.0040
  196loPI   C4B 3136  10.945   7.562   8.224 -0.3013 -0.2766  0.2894
  197loPI    C1 3137  10.960  18.206  10.188  0.1858 -0.0699 -0.2316
  197loPI    C2 3138  11.229  17.934  10.305  0.0879 -0.1472 -0.1843
  197loPI    C3 3139  11.181  18.271  10.515 -0.0133 -0.2373 -0.0607
  197loPI   PO4 3140  10.946  18.262   9.802 -0.0686  0.1303 -0.0052
  197loPI   GL1 3141  10.724  18.157   9.328  0.3381  0.2523  0.1221
  197loPI   GL2 3142  10.389  17.936   9.173 -0.2263  0.1131 -0.0192
  197loPI   C1A 3143  11.016  18.054   8.932  0.0910 -0.1638 -0.0356
  197loPI   C2A 3144  11.037  18.047   8.513  0.1839  0.1065 -0.2460
  197loPI   C3A 3145  11.001  18.193   8.093 -0.1127 -0.1877 -0.2407
  197loPI   C4A 3146  11.315  18.364   7.813  0.1428  0.2797 -0.0866
  197loPI   C5A 3147  11.274  18.395   7.292  0.3082  0.0174  0.0203
  197loPI   C6A 3148  11.355  18.247   6.927 -0.0878 -0.2484  0.6080
  197loPI   C1B 3149  10.532  18.037   8.778 -0.1206 -0.2158 -0.2479
  197loPI   C2B 3150  10.495  18.076   8.370 -0.2846 -0.1945 -0.3105
  197loPI   C3B 3151  10.599  18.478   8.258 -0.1503  0.1576  0.3577
  197loPI   C4B 3152  10.744  18.496   7.789  0.4075  0.2928  0.3073
  198loPI    C1 3153  16.769  17.203  10.207  0.0963  0.1911  0.1946
  198loPI    C2 3154  17.001  17.054  10.497 -0.0326 -0.2959  0.0573
  198loPI    C3 3155  16.618  16.943  10.471 -0.1631  0.1467  0.0056
  198loPI   PO4 3156  17.009  17.220   9.976 -0.2585  0.0615 -0.3386
  198loPI   GL1 3157  16.963  17.584   9.722  0.7410  0.4355 -0.0413
  198loPI   GL2 3158  17.178  17.788   9.884 -0.1128 -0.3984 -0.1739
  198loPI   C1A 3159  17.202  17.704   9.284 -0.0299  0.0599  0.0585
  198loPI   C2A 3160  17.296  17.570   8.827 -0.2788  0.2985  0.0316
  198loPI   C3A 3161  17.101  17.517   8.427 -0.2907  0.5310  0.1809
  198loPI   C4A 3162  16.892  17.264   8.123 -0.0441  0.2467 -0.1397
  198loPI   C5A 3163  16.533  17.013   7.900 -0.2082  0.0314  0.1085
  198loPI   C6A 3164  16.230  16.778   7.753 -0.2079 -0.0271 -0.0696
  198loPI   C1B 3165  17.044  18.110   9.572  0.0684  0.0406  0.2595
  198loPI   C2B 3166  17.108  18.216   9.157 -0.4060  0.1455 -0.0690
  198loPI   C3B 3167  17.224  18.357   8.769  0.2544  0.2126 -0.0261
  198loPI   C4B 3168  17.515  18.522   8.377  0.0901 -0.3947 -0.2139
  199loPI    C1 3169   0.928   5.516  10.416 -0.1859 -0.1233 -0.2747
  199loPI    C2 3170   0.559   5.363  10.432 -0.2957  0.1528 -0.1023
  199loPI    C3 3171   0.767   5.420  10.769 -0.0340 -0.1403 -0.2092
  199loPI   PO4 3172   0.866   5.619  10.207 -0.0478  0.1254  0.0034
  199loPI   GL1 3173   0.955   5.430   9.787  0.3115 -0.0391 -0.1563
  199loPI   GL2 3174   1.194   5.441   9.540 -0.2716 -0.1549  0.0773
  199loPI   C1A 3175   0.869   5.766   9.466 -0.3109 -0.0820 -0.5328
  199loPI   C2A 3176   0.776   5.820   9.063 -0.2163 -0.2782  0.2463
  199loPI   C3A 3177   0.739   6.025   8.708 -0.0799 -0.2452  0.0663
  199loPI   C4A 3178   0.899   6.355   8.535 -0.0264 -0.0604 -0.1933
  199loPI   C5A 3179   1.213   6.706   8.286  0.1482  0.1544  0.2647
  199loPI   C6A 3180   1.647   6.524   8.203  0.1167 -0.0230  0.1472
  199loPI   C1B 3181   1.195   5.534   9.152  0.2625 -0.2242  0.2190
  199loPI   C2B 3182   1.167   5.788   8.760  0.2637  0.1883  0.2514
  199loPI   C3B 3183   1.061   5.894   8.342  0.0143 -0.0051 -0.0373
  199loPI   C4B 3184   1.201   6.195   8.197 -0.0315 -0.3380  0.2748
  200loPI    C1 3185   2.860  16.562   9.902  0.2708  0.0340  0.0399
  200loPI    C2 3186   2.780  16.220  10.094 -0.1348 -0.0762 -0.3101
  200loPI    C3 3187   2.687  16.571  10.263  0.0078 -0.1474 -0.0787
  200loPI   PO4 3188   2.783  16.569   9.685  0.1740  0.0348 -0.1811
  200loPI   GL1 3189   2.788  16.745   9.312 -0.0435  0.0308  0.0089
  200loPI   GL2 3190   2.911  16.943   9.079 -0.0630  0.1592 -0.0259
  200loPI   C1A 3191   2.600  16.465   9.019  0.0658  0.4226  0.0873
  200loPI   C2A 3192   2.615  16.423   8.687 -0.2688  0.0600  0.0176
  200loPI   C3A 3193   2.508  16.195   8.342  0.0606 -0.0766  0.2456
  200loPI   C4A 3194   2.371  16.146   7.995  0.1086 -0.0042  0.3792
  200loPI   C5A 3195   2.201  16.442   7.666 -0.2708 -0.1305  0.4728
  200loPI   C6A 3196   2.185  16.541   7.252 -0.1794  0.1929  0.0821
  200loPI   C1B 3197   2.851  16.947   8.578  0.1908 -0.1099 -0.1426
  200loPI   C2B 3198   2.895  16.704   8.208  0.0476 -0.0321  0.1442
  200loPI   C3B 3199   2.790  16.861   7.721  0.2301  0.1766 -0.0789
  200loPI   C4B 3200   2.694  16.600   7.371 -0.3361  0.1090  0.2829
  201loPI    C1 3201  15.186   3.798  10.022  0.0044  0.0005  0.0926
  201loPI    C2 3202  14.810   3.825  10.157 -0.0050  0.2911  0.0141
  201loPI    C3 3203  15.048   3.531  10.286 -0.2265  0.1657  0.1424
  201loPI   PO4 3204  15.095   3.935   9.770  0.4151 -0.1568  0.3239
  201loPI   GL1 3205  14.940   3.783   9.339 -0.1531  0.2544  0.3912
  201loPI   GL2 3206  15.169   3.624   9.243  0.0444  0.1122  0.2169
  201loPI   C1A 3207  14.847   4.011   8.989 -0.1565 -0.1902 -0.0556
  201loPI   C2A 3208  14.832   3.970   8.573  0.1322 -0.1534  0.1529
  201loPI   C3A 3209  14.859   3.866   8.098 -0.1489 -0.0801  0.1058
  201loPI   C4A 3210  14.980   4.052   7.689  0.1514 -0.2684 -0.5024
  201loPI   C5A 3211  15.458   4.322   7.557 -0.2677  0.1596  0.0675
  201loPI   C6A 3212  15.746   4.158   7.708 -0.0731  0.1484 -0.2818
  201loPI   C1B 3213  15.131   3.609   8.750  0.0737  0.1126  0.2425
  201loPI   C2B 3214  15.274   3.691   8.363  0.0659  0.1253  0.2568
  201loPI   C3B 3215  15.273   3.677   7.868 -0.0044 -0.0779 -0.0938
  201loPI   C4B 3216  15.097   3.576   7.457 -0.1422 -0.0015  0.3039
  202loPI    C1 3217   3.132   7.389   9.881 -0.1942 -0.1613  0.0228
  202loPI    C2 3218   2.831   7.642   9.953 -0.2431 -0.1533 -0.2017
  202loPI    C3 3219   3.165   7.662  10.171 -0.4007 -0.1577  0.0444
  202loPI   PO4 3220   3.045   7.336   9.602  0.0846 -0.2649 -0.2545
  202loPI   GL1 3221   3.276   7.156   9.244 -0.1039 -0.0261 -0.1416
  202loPI   GL2 3222   3.092   7.024   9.078  0.4285  0.2789  0.1604
  202loPI   C1A 3223   3.382   7.483   8.871  0.1380  0.1487 -0.0336
  202loPI   C2A 3224   3.266   7.588   8.468  0.1857  0.0487  0.2658
  202loPI   C3A 3225   3.283   7.611   8.026 -0.1680 -0.1679 -0.1279
  202loPI   C4A 3226   3.365   7.865   7.704  0.2157 -0.2702  0.1305
  202loPI   C5A 3227   3.045   8.106   7.487 -0.1415 -0.4562  0.1015
  202loPI   C6A 3228   2.684   8.199   7.457 -0.1750 -0.0557 -0.0152
  202loPI   C1B 3229   3.228   7.031   8.677 -0.0472 -0.2019 -0.0048
  202loPI   C2B 3230   3.269   6.739   8.246 -0.1183  0.0265  0.3691
  202loPI   C3B 3231   3.154   6.864   7.819 -0.3287  0.0730 -0.1324
  202loPI   C4B 3232   2.737   6.856   7.593 -0.0900 -0.2193 -0.2317
  203loPI    C1 3233  15.907   2.997  10.262  0.1265  0.1515 -0.1159
  203loPI    C2 3234  16.234   3.054  10.485  0.0249 -0.0276  0.0828
  203loPI    C3 3235  15.879   3.189  10.612 -0.0669 -0.3057  0.1293
  203loPI   PO4 3236  16.016   3.085  10.029  0.0816  0.1830  0.0098
  203loPI   GL1 3237  16.082   3.088   9.531  0.0714 -0.0238 -0.0614
  203loPI   GL2 3238  16.018   2.798   9.499 -0.1514  0.0419 -0.0621
  203loPI   C1A 3239  16.010   3.293   9.076  0.0091  0.0654 -0.0607
  203loPI   C2A 3240  15.962   3.179   8.720  0.1036  0.0201  0.0957
  203loPI   C3A 3241  15.873   2.884   8.430  0.2229  0.0158  0.2103
  203loPI   C4A 3242  15.758   2.764   8.089  0.6118 -0.0069 -0.2579
  203loPI   C5A 3243  16.030   2.579   7.863  0.2596 -0.0786 -0.2111
  203loPI   C6A 3244  16.276   2.648   7.476 -0.1095  0.0765  0.2731
  203loPI   C1B 3245  16.101   2.740   9.089  0.1792  0.1082 -0.0756
  203loPI   C2B 3246  16.263   2.754   8.693  0.6130 -0.0987  0.2674
  203loPI   C3B 3247  16.502   2.753   8.389  0.0209  0.2142 -0.5132
  203loPI   C4B 3248  16.514   2.641   8.037 -0.0540 -0.0674  0.0801
  204loPI    C1 3249  12.986  16.549  10.341 -0.0712  0.2124 -0.1881
  204loPI    C2 3250  12.629  16.726  10.301 -0.1168  0.1971  0.1305
  204loPI    C3 3251  12.762  16.622  10.664  0.1688  0.1108  0.0042
  204loPI   PO4 3252  13.109  16.727  10.005  0.0643  0.1016  0.1294
  204loPI   GL1 3253  12.958  16.772   9.564  0.1499 -0.0074  0.0418
  204loPI   GL2 3254  13.351  16.538   9.607  0.0643  0.0362 -0.0576
  204loPI   C1A 3255  12.847  16.829   9.090  0.0326 -0.2358  0.0646
  204loPI   C2A 3256  12.931  16.740   8.569  0.0064 -0.0560 -0.3091
  204loPI   C3A 3257  13.078  16.827   8.214 -0.1338  0.3253  0.1270
  204loPI   C4A 3258  13.033  16.707   7.815  0.0190  0.1494 -0.4389
  204loPI   C5A 3259  12.817  16.652   7.423 -0.2143 -0.3751  0.2684
  204loPI   C6A 3260  12.664  16.279   7.242 -0.0739 -0.0030  0.1402
  204loPI   C1B 3261  13.405  16.670   9.240 -0.2255 -0.1832 -0.2030
  204loPI   C2B 3262  13.321  16.512   8.839 -0.1293 -0.0684  0.2617
  204loPI   C3B 3263  13.439  16.519   8.416  0.1758 -0.0346  0.0526
  204loPI   C4B 3264  13.532  16.676   7.980  0.1241 -0.0270 -0.3388
  205loPI    C1 3265  11.689  15.742  10.257 -0.1837 -0.1621 -0.1299
  205loPI    C2 3266  11.708  16.089  10.058  0.0530 -0.0996 -0.0017
  205loPI    C3 3267  11.723  16.086  10.458  0.0973 -0.2608 -0.0034
  205loPI   PO4 3268  11.911  15.531   9.966 -0.1036 -0.3405 -0.2609
  205loPI   GL1 3269  11.923  15.588   9.596  0.1142  0.0315 -0.0074
  205loPI   GL2 3270  12.007  15.221   9.421  0.2536  0.3165 -0.3218
  205loPI   C1A 3271  11.686  15.506   9.252  0.0393 -0.1512  0.1955
  205loPI   C2A 3272  11.708  15.556   8.782  0.1885  0.3395  0.1026
  205loPI   C3A 3273  11.625  15.643   8.341 -0.0962 -0.0742 -0.1042
  205loPI   C4A 3274  11.886  15.875   8.057  0.1140  0.4428 -0.1984
  205loPI   C5A 3275  12.337  15.756   7.924 -0.0773  0.0482  0.0572
  205loPI   C6A 3276  12.570  15.664   7.606 -0.1119  0.1237 -0.0132
  205loPI   C1B 3277  11.886  15.156   9.009  0.1606 -0.0527  0.1626
  205loPI   C2B 3278  11.801  15.119   8.539  0.3325  0.1695 -0.2076
  205loPI   C3B 3279  11.594  15.021   8.092  0.1904 -0.2038 -0.0282
  205loPI   C4B 3280  11.395  15.066   7.619  0.2183  0.0858  0.0456
  206loPI    C1 3281   3.766  16.891   9.916 -0.0022 -0.2451 -0.0129
  206loPI    C2 3282   4.080  17.132   9.858 -0.3064  0.2128  0.1793
  206loPI    C3 3283   4.107  16.828  10.117  0.0207  0.1551  0.0828
  206loPI   PO4 3284   3.656  16.814   9.638 -0.4021 -0.0592 -0.2752
  206loPI   GL1 3285   3.433  16.912   9.309 -0.0532  0.2533  0.1377
  206loPI   GL2 3286   3.754  16.749   9.148  0.1790 -0.0002 -0.1746
  206loPI   C1A 3287   3.379  17.127   8.903  0.2420  0.3099  0.2067
  206loPI   C2A 3288   3.398  17.122   8.387 -0.2780  0.1752 -0.3967
  206loPI   C3A 3289   3.459  16.870   7.948  0.0105  0.0502 -0.0403
  206loPI   C4A 3290   3.209  16.574   7.720  0.1507  0.0564  0.4663
  206loPI   C5A 3291   2.985  16.121   7.478  0.1455  0.1473  0.0062
  206loPI   C6A 3292   2.583  16.014   7.528 -0.1452  0.0057 -0.1019
  206loPI   C1B 3293   3.828  16.466   8.778  0.0655 -0.1315  0.0916
  206loPI   C2B 3294   4.126  16.342   8.461 -0.1855 -0.1219  0.0797
  206loPI   C3B 3295   4.321  16.016   8.301 -0.2168 -0.0575 -0.1838
  206loPI   C4B 3296   4.264  15.612   8.593  0.2942 -0.1428  0.0875
  207loPI    C1 3297   2.946   9.175  10.075 -0.0071 -0.0782  0.0521
  207loPI    C2 3298   3.340   9.145  10.140  0.0463  0.3043 -0.0677
  207loPI    C3 3299   3.127   9.428  10.326 -0.1590  0.1518 -0.0664
  207loPI   PO4 3300   2.934   8.985   9.861  0.3712 -0.2706 -0.1797
  207loPI   GL1 3301   3.164   8.905   9.490  0.1171  0.0440  0.3685
  207loPI   GL2 3302   3.467   8.930   9.675 -0.1556 -0.0224  0.0990
  207loPI   C1A 3303   3.121   8.937   8.959 -0.0356 -0.0216 -0.2669
  207loPI   C2A 3304   3.143   9.045   8.559  0.3979 -0.1212 -0.2226
  207loPI   C3A 3305   2.992   8.853   8.123  0.1519 -0.0164  0.1394
  207loPI   C4A 3306   2.961   8.954   7.660  0.2087 -0.3602  0.1342
  207loPI   C5A 3307   3.100   8.743   7.355 -0.0946  0.2258 -0.1985
  207loPI   C6A 3308   2.989   8.681   6.882 -0.3040  0.1501  0.1478
  207loPI   C1B 3309   3.555   9.063   9.195 -0.1042  0.0320  0.0177
  207loPI   C2B 3310   3.815   9.162   8.959 -0.0180  0.0529 -0.1197
  207loPI   C3B 3311   4.098   9.132   8.525  0.2686  0.0110 -0.1917
  207loPI   C4B 3312   4.287   9.083   8.129  0.2325  0.0767  0.0476
  208loPI    C1 3313   8.401   7.375   9.908  0.1184 -0.0186  0.0612
  208loPI    C2 3314   8.028   7.255   9.993  0.0357  0.1462 -0.0630
  208loPI    C3 3315   8.320   7.206  10.262 -0.1269  0.2414  0.1337
  208loPI   PO4 3316   8.411   7.268   9.650 -0.3640 -0.0340  0.0184
  208loPI   GL1 3317   8.348   7.226   9.209 -0.1634 -0.0125 -0.0629
  208loPI   GL2 3318   8.210   7.389   9.029 -0.0888  0.1378 -0.2030
  208loPI   C1A 3319   8.352   6.916   8.835  0.3764  0.1081  0.3429
  208loPI   C2A 3320   8.695   6.762   8.634  0.0137 -0.1409 -0.0213
  208loPI   C3A 3321   8.805   6.913   8.217  0.0610  0.0570  0.0762
  208loPI   C4A 3322   9.027   6.926   7.773 -0.0253 -0.2640 -0.0885
  208loPI   C5A 3323   8.999   7.044   7.338 -0.2364  0.2555 -0.4569
  208loPI   C6A 3324   8.850   7.432   7.264 -0.0515 -0.2925 -0.0622
  208loPI   C1B 3325   8.259   7.567   8.661 -0.2420 -0.4010  0.1687
  208loPI   C2B 3326   8.604   7.600   8.388 -0.1482 -0.2618  0.0890
  208loPI   C3B 3327   8.654   7.488   8.038 -0.2088  0.3176  0.2074
  208loPI   C4B 3328   8.648   7.189   7.750  0.1982  0.1633  0.0055
  209loPI    C1 3329  18.508  12.447  10.230 -0.4443 -0.1532 -0.0196
  209loPI    C2 3330  18.772  12.344  10.512 -0.2821  0.2263 -0.0266
  209loPI    C3 3331  18.386  12.248  10.554 -0.1788 -0.1604  0.0785
  209loPI   PO4 3332  18.732  12.312   9.950  0.4171  0.3521  0.1277
  209loPI   GL1 3333  18.734  12.436   9.549 -0.2011 -0.2522  0.1391
  209loPI   GL2 3334  18.643  12.175   9.448 -0.0871 -0.3299  0.2368
  209loPI   C1A 3335  18.889  12.556   9.198 -0.1955 -0.3292  0.0670
  209loPI   C2A 3336  18.802  12.518   8.760 -0.3612  0.1334  0.1150
  209loPI   C3A 3337  18.862  12.166   8.594  0.0517  0.1726  0.2068
  209loPI   C4A 3338  18.794  12.011   8.162  0.1022  0.0536  0.0579
  209loPI   C5A 3339  18.839  11.814   7.714 -0.1163  0.1291 -0.1018
  209loPI   C6A 3340  18.852  12.063   7.329 -0.3236 -0.1670 -0.1549
  209loPI   C1B 3341  18.546  12.108   9.128 -0.3184 -0.4633  0.0017
  209loPI   C2B 3342  18.396  12.249   8.803 -0.1110 -0.0125 -0.2614
  209loPI   C3B 3343  18.415  12.448   8.473  0.2683 -0.1609  0.3136
  209loPI   C4B 3344  18.316  12.758   8.108  0.0968 -0.0836 -0.4278
  210loPI    C1 3345  16.214  13.821  10.187 -0.0861  0.1815  0.0254
  210loPI    C2 3346  15.853  13.920  10.326 -0.0532  0.0780  0.1867
  210loPI    C3 3347  16.096  13.690  10.545  0.0393 -0.0035  0.0007
  210loPI   PO4 3348  16.211  13.614   9.910  0.4502  0.1941 -0.0053
  210loPI   GL1 3349  16.041  13.462   9.559 -0.0588  0.0803  0.3675
  210loPI   GL2 3350  15.893  13.714   9.362  0.0928  0.0068 -0.3243
  210loPI   C1A 3351  16.078  13.319   9.189  0.3320 -0.1450 -0.2234
  210loPI   C2A 3352  15.858  13.360   8.916 -0.0783 -0.1186  0.1516
  210loPI   C3A 3353  15.826  13.081   8.490  0.3079 -0.1214 -0.2628
  210loPI   C4A 3354  15.969  12.804   8.126 -0.1171 -0.2393 -0.1161
  210loPI   C5A 3355  16.221  12.751   7.816  0.0836  0.1304 -0.1101
  210loPI   C6A 3356  16.340  12.577   7.404 -0.0225 -0.0139  0.0374
  210loPI   C1B 3357  15.754  13.888   8.982  0.0090  0.0731 -0.3647
  210loPI   C2B 3358  15.677  13.736   8.513  0.2141  0.0774 -0.2232
  210loPI   C3B 3359  15.599  13.490   8.165  0.1312  0.0937 -0.0771
  210loPI   C4B 3360  15.783  13.201   7.878 -0.2742  0.2605  0.0291
  211loPI    C1 3361  17.727   8.068  10.388  0.0089 -0.0578 -0.0525
  211loPI    C2 3362  17.716   8.462  10.453 -0.3356 -0.0925  0.1237
  211loPI    C3 3363  17.720   8.208  10.762 -0.1335 -0.2298  0.0108
  211loPI   PO4 3364  17.964   8.005  10.192 -0.0120 -0.4110 -0.1912
  211loPI   GL1 3365  17.867   7.963   9.705 -0.1493  0.0114  0.2593
  211loPI   GL2 3366  18.019   8.222   9.592  0.1533  0.1504 -0.0901
  211loPI   C1A 3367  17.771   7.750   9.303 -0.1041  0.1908 -0.2346
  211loPI   C2A 3368  17.787   7.799   8.913 -0.0085 -0.1146 -0.3747
  211loPI   C3A 3369  17.748   7.896   8.538 -0.1030  0.1968 -0.1132
  211loPI   C4A 3370  17.988   7.796   8.232  0.2533  0.2598 -0.0324
  211loPI   C5A 3371  18.068   7.805   7.876 -0.3738  0.1254  0.3599
  211loPI   C6A 3372  18.386   7.488   7.751  0.1361 -0.0693  0.1443
  211loPI   C1B 3373  17.965   8.233   9.168 -0.1240  0.0825 -0.1520
  211loPI   C2B 3374  18.042   8.210   8.715  0.2962 -0.0831 -0.1154
  211loPI   C3B 3375  18.173   8.210   8.366 -0.1545 -0.1750 -0.3821
  211loPI   C4B 3376  17.849   8.252   8.060 -0.4164 -0.2065  0.2006
  212loPI    C1 3377   9.693  16.645  10.005 -0.2651  0.2289  0.0647
  212loPI    C2 3378   9.890  16.636  10.353 -0.1496  0.0098 -0.0042
  212loPI    C3 3379   9.718  16.304  10.213 -0.1263  0.0770 -0.1957
  212loPI   PO4 3380   9.593  16.782   9.949  0.2224 -0.2304 -0.2178
  212loPI   GL1 3381   9.402  16.946   9.472 -0.0053 -0.1189  0.0481
  212loPI   GL2 3382   9.471  16.573   9.525  0.0400  0.0761 -0.0597
  212loPI   C1A 3383   9.391  17.029   8.942  0.0755 -0.1812 -0.2516
  212loPI   C2A 3384   9.435  17.009   8.529 -0.0085 -0.0792  0.5614
  212loPI   C3A 3385   9.485  17.014   8.094  0.2482 -0.0657 -0.4250
  212loPI   C4A 3386   9.612  16.980   7.636 -0.3017 -0.1339 -0.0455
  212loPI   C5A 3387   9.408  17.170   7.300 -0.1141  0.0623 -0.2186
  212loPI   C6A 3388   9.671  17.334   6.849  0.2262 -0.1526  0.1257
  212loPI   C1B 3389   9.664  16.647   9.053  0.2563 -0.0615  0.1831
  212loPI   C2B 3390   9.840  16.716   8.645  0.2097 -0.2076  0.3118
  212loPI   C3B 3391   9.869  16.669   8.263 -0.0108 -0.2963 -0.2785
  212loPI   C4B 3392   9.940  16.623   7.881 -0.2767  0.2152  0.0257
  213loPI    C1 3393  14.398  16.577   9.846 -0.1505 -0.0472  0.0648
  213loPI    C2 3394  14.695  16.831   9.932 -0.0509 -0.0672 -0.2095
  213loPI    C3 3395  14.468  16.682  10.225 -0.0653  0.2817 -0.0386
  213loPI   PO4 3396  14.563  16.425   9.681  0.1250  0.1428  0.2100
  213loPI   GL1 3397  14.778  16.462   9.299  0.1749 -0.0107  0.0160
  213loPI   GL2 3398  14.369  16.553   9.232 -0.2747  0.4601 -0.5221
  213loPI   C1A 3399  14.841  16.505   8.874  0.4292 -0.0672 -0.0384
  213loPI   C2A 3400  15.034  16.581   8.433  0.0862  0.0330  0.0479
  213loPI   C3A 3401  15.397  16.335   8.198  0.0598 -0.0841 -0.2376
  213loPI   C4A 3402  15.511  16.551   7.859  0.2757  0.2982  0.0449
  213loPI   C5A 3403  15.416  16.777   7.548  0.1194  0.0501  0.3312
  213loPI   C6A 3404  15.548  16.954   7.187  0.0876  0.0302 -0.1506
  213loPI   C1B 3405  14.299  16.596   8.731 -0.2132  0.4174 -0.2053
  213loPI   C2B 3406  14.481  16.559   8.258 -0.1476 -0.0862 -0.0511
  213loPI   C3B 3407  14.537  16.542   7.837  0.2021 -0.2133  0.1399
  213loPI   C4B 3408  14.506  16.062   7.520  0.1473 -0.1432 -0.2208
  214loPI    C1 3409   5.905   4.011  10.003 -0.2639  0.1222 -0.0800
  214loPI    C2 3410   6.153   4.232  10.226 -0.0555 -0.2062  0.0204
  214loPI    C3 3411   5.809   4.101  10.381 -0.0808 -0.1296  0.0294
  214loPI   PO4 3412   6.117   4.001   9.801 -0.0886 -0.1749 -0.2435
  214loPI   GL1 3413   6.358   3.779   9.390 -0.1981 -0.1263 -0.2076
  214loPI   GL2 3414   6.547   3.507   9.348  0.0831  0.0333  0.1871
  214loPI   C1A 3415   6.125   3.648   9.054 -0.0015  0.0841 -0.0986
  214loPI   C2A 3416   6.272   3.648   8.623  0.1328 -0.0989  0.3067
  214loPI   C3A 3417   6.259   3.704   8.225  0.1863  0.3529  0.0785
  214loPI   C4A 3418   6.343   3.685   7.767  0.2158  0.3399  0.2684
  214loPI   C5A 3419   6.300   3.452   7.463  0.2299  0.1065 -0.1252
  214loPI   C6A 3420   6.587   3.036   7.350  0.1044 -0.1301 -0.0372
  214loPI   C1B 3421   6.605   3.473   8.937  0.3492  0.2768  0.2024
  214loPI   C2B 3422   6.758   3.639   8.461  0.1688 -0.0708  0.0362
  214loPI   C3B 3423   6.745   3.481   8.102  0.2095  0.0845 -0.0720
  214loPI   C4B 3424   6.737   3.428   7.725 -0.2330  0.2857 -0.0104
  215loPI    C1 3425   4.426  10.626   9.923  0.1167  0.1061  0.0060
  215loPI    C2 3426   4.036  10.693   9.979  0.0620 -0.0703 -0.1551
  215loPI    C3 3427   4.217  10.394  10.174  0.0955 -0.0474 -0.1512
  215loPI   PO4 3428   4.414  10.637   9.620 -0.1104 -0.0975  0.3603
  215loPI   GL1 3429   4.346  10.442   9.283  0.0442 -0.1969  0.0007
  215loPI   GL2 3430   4.505  10.623   9.105 -0.0962 -0.1952 -0.0462
  215loPI   C1A 3431   4.216  10.313   8.873  0.0501 -0.1236 -0.1923
  215loPI   C2A 3432   4.152  10.162   8.508 -0.0810 -0.2241  0.1822
  215loPI   C3A 3433   4.339  10.043   8.078 -0.1104  0.2945  0.1428
  215loPI   C4A 3434   4.273   9.969   7.600 -0.1285  0.2717 -0.2942
  215loPI   C5A 3435   3.924   9.772   7.525  0.2375 -0.1475 -0.0031
  215loPI   C6A 3436   3.739   9.739   7.132  0.1180 -0.2154  0.1164
  215loPI   C1B 3437   4.648  10.601   8.657 -0.2824 -0.1347 -0.3306
  215loPI   C2B 3438   4.452  10.519   8.308  0.0821 -0.0390 -0.0691
  215loPI   C3B 3439   4.402  10.473   7.871  0.1264  0.0443  0.0250
  215loPI   C4B 3440   4.307  10.447   7.366 -0.0407  0.2066 -0.3046
  216loPI    C1 3441   7.257   8.345   9.744 -0.1410 -0.0010  0.2363
  216loPI    C2 3442   7.627   8.483   9.682 -0.1477 -0.0503  0.0820
  216loPI    C3 3443   7.387   8.665   9.945 -0.1981  0.3092 -0.2029
  216loPI   PO4 3444   7.179   8.229   9.540  0.0915 -0.2205 -0.0317
  216loPI   GL1 3445   7.390   8.398   9.176  0.0450 -0.0479  0.0716
  216loPI   GL2 3446   7.510   8.771   9.051 -0.2046  0.3797 -0.1104
  216loPI   C1A 3447   7.160   8.451   8.815 -0.1050 -0.2408  0.2075
  216loPI   C2A 3448   7.143   8.623   8.395 -0.0749  0.2364  0.0242
  216loPI   C3A 3449   7.307   8.928   8.085  0.1521  0.0805  0.3297
  216loPI   C4A 3450   7.181   8.970   7.746  0.0300  0.2241 -0.0735
  216loPI   C5A 3451   6.948   8.865   7.358 -0.0242  0.1275  0.2383
  216loPI   C6A 3452   7.014   9.157   6.918 -0.3379  0.0330 -0.2613
  216loPI   C1B 3453   7.616   8.753   8.652  0.1373 -0.0402 -0.3304
  216loPI   C2B 3454   7.820   8.727   8.230  0.2155 -0.3424 -0.2066
  216loPI   C3B 3455   8.085   8.752   7.833  0.1138  0.2390 -0.2237
  216loPI   C4B 3456   8.157   8.660   7.560 -0.0946 -0.1543 -0.2524
  217loPI    C1 3457   6.894  13.129  10.089 -0.0945 -0.0979  0.0908
  217loPI    C2 3458   7.261  12.975  10.131 -0.0450 -0.0283 -0.0764
  217loPI    C3 3459   6.944  12.781  10.281  0.0218 -0.2659 -0.2355
  217loPI   PO4 3460   6.821  13.105   9.847 -0.0275 -0.3715  0.0269
  217loPI   GL1 3461   6.734  13.007   9.441 -0.1690 -0.1865 -0.2905
  217loPI   GL2 3462   6.876  13.224   9.395 -0.0367 -0.1366  0.0689
  217loPI   C1A 3463   6.793  12.780   8.998  0.0608  0.1724  0.0716
  217loPI   C2A 3464   6.966  12.915   8.642  0.0778 -0.0558  0.0113
  217loPI   C3A 3465   7.084  12.850   8.173 -0.2196 -0.2880  0.1362
  217loPI   C4A 3466   7.218  13.016   7.808 -0.0361 -0.0812  0.3172
  217loPI   C5A 3467   7.454  13.293   7.435 -0.0258 -0.3894 -0.2238
  217loPI   C6A 3468   7.558  13.408   7.080  0.2172 -0.0452  0.1003
  217loPI   C1B 3469   7.078  13.232   8.985  0.0679  0.2254 -0.0595
  217loPI   C2B 3470   7.301  13.278   8.620 -0.1609 -0.2507 -0.3660
  217loPI   C3B 3471   7.360  13.299   8.256 -0.0510  0.0280 -0.0772
  217loPI   C4B 3472   7.614  13.284   7.881 -0.2497 -0.0385 -0.0137
  218loPI    C1 3473   6.935   1.930  10.117  0.0907  0.0889  0.0731
  218loPI    C2 3474   6.666   2.196   9.987 -0.1508 -0.1819  0.0104
  218loPI    C3 3475   6.641   2.050  10.359  0.0021 -0.0916  0.0569
  218loPI   PO4 3476   6.924   1.759   9.971  0.1977  0.0798  0.1234
  218loPI   GL1 3477   6.722   1.825   9.582 -0.1572 -0.0876 -0.1766
  218loPI   GL2 3478   6.967   2.109   9.599  0.2270 -0.3161  0.4879
  218loPI   C1A 3479   6.639   1.832   9.266  0.0233 -0.2809 -0.0085
  218loPI   C2A 3480   6.654   1.858   8.846 -0.0801 -0.2344  0.3140
  218loPI   C3A 3481   6.652   2.009   8.464 -0.1812  0.1439 -0.3468
  218loPI   C4A 3482   6.715   1.995   7.969  0.0374  0.0614 -0.0865
  218loPI   C5A 3483   6.550   2.075   7.564  0.0416  0.2271  0.1593
  218loPI   C6A 3484   6.460   1.876   7.188  0.0370 -0.0472 -0.1553
  218loPI   C1B 3485   7.038   2.073   9.151 -0.1635 -0.1946  0.2628
  218loPI   C2B 3486   7.088   2.163   8.740 -0.0760  0.1030 -0.1161
  218loPI   C3B 3487   7.409   2.411   8.437  0.1719  0.0340 -0.1779
  218loPI   C4B 3488   7.569   2.357   8.134 -0.0168  0.2218 -0.1330
  219loPI    C1 3489  13.472   4.128  10.235 -0.0487  0.1343  0.1693
  219loPI    C2 3490  13.445   3.757  10.384 -0.2598  0.0524 -0.0662
  219loPI    C3 3491  13.601   4.051  10.607 -0.2146 -0.1479  0.1714
  219loPI   PO4 3492  13.467   4.012   9.967  0.0267 -0.0358  0.1221
  219loPI   GL1 3493  13.579   4.153   9.550  0.2243  0.0800  0.0200
  219loPI   GL2 3494  13.805   4.179   9.407  0.3588  0.0628 -0.1768
  219loPI   C1A 3495  13.525   3.871   9.140  0.1055 -0.0149  0.0513
  219loPI   C2A 3496  13.661   3.848   8.697 -0.0712  0.0116 -0.1456
  219loPI   C3A 3497  13.629   3.834   8.321 -0.0558 -0.3774 -0.0394
  219loPI   C4A 3498  13.520   3.740   7.995 -0.2482  0.4001 -0.0809
  219loPI   C5A 3499  13.132   3.619   7.903 -0.0221 -0.0047 -0.2434
  219loPI   C6A 3500  13.041   3.281   7.687 -0.0764 -0.2025  0.3361
  219loPI   C1B 3501  13.868   4.275   8.935  0.0705 -0.0997  0.0487
  219loPI   C2B 3502  13.868   4.282   8.490 -0.1432 -0.0842 -0.1193
  219loPI   C3B 3503  13.824   4.203   8.070  0.1730  0.1183  0.0112
  219loPI   C4B 3504  13.998   4.363   7.762 -0.1714  0.1051  0.1121
  220loPI    C1 3505   1.230   1.460   9.821 -0.1288  0.2599  0.1700
  220loPI    C2 3506   0.972   1.375  10.114 -0.3750  0.0514 -0.1021
  220loPI    C3 3507   1.340   1.220  10.122 -0.3970  0.0055  0.0697
  220loPI   PO4 3508   1.213   1.598   9.702  0.0389  0.1812  0.0711
  220loPI   GL1 3509   0.977   1.799   9.417  0.1233  0.1668  0.0599
  220loPI   GL2 3510   0.844   2.085   9.470  0.0228  0.0314 -0.1407
  220loPI   C1A 3511   0.760   1.562   9.165  0.1125  0.1008  0.0367
  220loPI   C2A 3512   0.549   1.610   8.782  0.1995  0.1251  0.1231
  220loPI   C3A 3513   0.615   1.795   8.408 -0.2791  0.3272  0.0044
  220loPI   C4A 3514   0.580   1.792   7.978  0.3474 -0.4045 -0.1357
  220loPI   C5A 3515   0.460   1.970   7.527  0.0384 -0.3164  0.3262
  220loPI   C6A 3516   0.262   1.659   7.275 -0.0875  0.1610  0.2965
  220loPI   C1B 3517   0.813   2.147   9.090  0.0157  0.0186  0.1084
  220loPI   C2B 3518   0.829   2.176   8.673 -0.3659 -0.1853 -0.0991
  220loPI   C3B 3519   0.765   2.297   8.279 -0.1437  0.2017  0.1225
  220loPI   C4B 3520   0.715   2.311   7.846 -0.2493 -0.0818 -0.0375
  221loPI    C1 3521   8.777  10.347   9.996 -0.1406  0.1349 -0.0862
  221loPI    C2 3522   8.430  10.541  10.040 -0.0161  0.2701  0.3476
  221loPI    C3 3523   8.513  10.226  10.271 -0.0060 -0.0006 -0.0156
  221loPI   PO4 3524   8.806  10.300   9.744  0.1237 -0.1593 -0.0952
  221loPI   GL1 3525   8.807  10.455   9.386  0.0553 -0.2106 -0.4432
  221loPI   GL2 3526   9.119  10.663   9.324 -0.1817  0.1592 -0.2461
  221loPI   C1A 3527   8.804  10.439   8.988 -0.1008 -0.0903 -0.0833
  221loPI   C2A 3528   8.893  10.427   8.588  0.0482 -0.2545 -0.2588
  221loPI   C3A 3529   9.025  10.388   8.116 -0.0780  0.2310 -0.4054
  221loPI   C4A 3530   9.040  10.371   7.674 -0.2786  0.1502 -0.3619
  221loPI   C5A 3531   9.281  10.140   7.403 -0.0490  0.0123  0.1492
  221loPI   C6A 3532   9.555  10.090   7.136  0.0423 -0.0859  0.1325
  221loPI   C1B 3533   9.294  10.525   8.930  0.0141  0.2173 -0.2148
  221loPI   C2B 3534   9.334  10.657   8.485  0.0175  0.2453 -0.4296
  221loPI   C3B 3535   9.419  10.775   8.126 -0.3712  0.2898 -0.0229
  221loPI   C4B 3536   9.365  11.029   7.737  0.0161 -0.0894  0.2218
  222loPI    C1 3537   3.956  13.501   9.810  0.0176  0.2868 -0.2668
  222loPI    C2 3538   3.757  13.387  10.138  0.1628 -0.0502 -0.2921
  222loPI    C3 3539   3.816  13.776  10.065  0.2310  0.0266  0.1428
  222loPI   PO4 3540   4.163  13.366   9.828 -0.0417  0.1011  0.3281
  222loPI   GL1 3541   4.350  13.075   9.450  0.1111  0.0287 -0.0150
  222loPI   GL2 3542   4.310  13.327   9.321  0.1109 -0.0484  0.0922
  222loPI   C1A 3543   4.509  12.799   9.084 -0.1684  0.0523 -0.0967
  222loPI   C2A 3544   4.704  12.586   8.782  0.1273 -0.0161 -0.1231
  222loPI   C3A 3545   4.622  12.483   8.385  0.1027 -0.0449  0.1043
  222loPI   C4A 3546   4.641  12.241   7.965 -0.2489 -0.0764  0.1039
  222loPI   C5A 3547   4.816  12.348   7.544  0.1430 -0.3338  0.0468
  222loPI   C6A 3548   4.645  12.131   7.211 -0.4912  0.1722 -0.3195
  222loPI   C1B 3549   4.413  13.310   8.879  0.0627  0.0237  0.2119
  222loPI   C2B 3550   4.492  13.134   8.523  0.2552 -0.0381 -0.1138
  222loPI   C3B 3551   4.790  12.942   8.266  0.1187  0.0576 -0.1987
  222loPI   C4B 3552   5.061  12.759   8.431  0.1490  0.0907  0.0562
  223loPI    C1 3553  15.357  15.872   9.627  0.1190  0.0131 -0.0586
  223loPI    C2 3554  15.092  15.727   9.889  0.0455 -0.2410 -0.2695
  223loPI    C3 3555  15.026  16.079   9.711 -0.0276 -0.1871 -0.1369
  223loPI   PO4 3556  15.621  15.833   9.816  0.4747 -0.0504  0.0051
  223loPI   GL1 3557  15.841  15.568   9.590 -0.1488  0.2321 -0.1232
  223loPI   GL2 3558  15.824  15.856   9.372  0.0870 -0.1380  0.0400
  223loPI   C1A 3559  15.864  15.358   9.089 -0.1236  0.0919 -0.2204
  223loPI   C2A 3560  15.747  15.250   8.670  0.1513 -0.0360  0.1008
  223loPI   C3A 3561  15.946  15.125   8.396 -0.0173 -0.1298 -0.0755
  223loPI   C4A 3562  16.062  14.991   7.946 -0.1602  0.0198 -0.3081
  223loPI   C5A 3563  15.902  14.948   7.593  0.1656  0.0354 -0.1115
  223loPI   C6A 3564  15.949  14.896   7.226  0.0153 -0.0424 -0.0839
  223loPI   C1B 3565  15.968  15.794   8.864  0.0002  0.0143 -0.0686
  223loPI   C2B 3566  16.030  15.668   8.517 -0.1182  0.0156  0.3888
  223loPI   C3B 3567  16.066  15.671   8.078  0.2165  0.1234  0.0440
  223loPI   C4B 3568  16.388  15.763   7.772  0.2764  0.3756  0.2870
  224loPI    C1 3569   6.868   6.611  10.001 -0.0309  0.0761  0.1578
  224loPI    C2 3570   7.097   6.362  10.214  0.1077  0.3135  0.2907
  224loPI    C3 3571   6.790   6.550  10.389 -0.1994 -0.0106  0.1111
  224loPI   PO4 3572   6.842   6.707   9.750 -0.4717 -0.0330 -0.0314
  224loPI   GL1 3573   7.062   6.725   9.410  0.0532 -0.0408  0.0084
  224loPI   GL2 3574   6.826   6.872   9.307  0.0902 -0.0140 -0.1299
  224loPI   C1A 3575   7.075   6.543   8.965  0.0250  0.2796  0.1388
  224loPI   C2A 3576   7.114   6.564   8.459  0.3237 -0.0065 -0.2527
  224loPI   C3A 3577   7.388   6.561   8.127  0.2681  0.1489  0.0486
  224loPI   C4A 3578   7.239   6.335   7.723 -0.1906 -0.1065  0.0331
  224loPI   C5A 3579   7.290   6.026   7.474  0.0627  0.3439 -0.0850
  224loPI   C6A 3580   7.711   5.980   7.221  0.1007 -0.1745 -0.4269
  224loPI   C1B 3581   6.761   6.837   8.768 -0.0582 -0.1169 -0.0777
  224loPI   C2B 3582   6.783   7.057   8.428 -0.0574  0.0106 -0.0809
  224loPI   C3B 3583   6.902   6.856   8.112 -0.0465  0.2264 -0.1182
  224loPI   C4B 3584   6.878   6.335   8.093 -0.2330  0.3150 -0.0852
  225loPI    C1 3585  15.087   1.039   9.958  0.2472 -0.0076 -0.0032
  225loPI    C2 3586  14.857   1.367   9.970  0.1764 -0.0467 -0.2341
  225loPI    C3 3587  14.859   1.112  10.278 -0.0472 -0.0162 -0.2062
  225loPI   PO4 3588  15.075   0.852   9.727  0.1291 -0.0850  0.2436
  225loPI   GL1 3589  15.188   0.643   9.468 -0.0714 -0.2258  0.0213
  225loPI   GL2 3590  15.016   0.420   9.203  0.0801 -0.0283 -0.1823
  225loPI   C1A 3591  15.161   0.933   9.053 -0.0332  0.2144  0.2204
  225loPI   C2A 3592  15.067   1.047   8.604  0.3279  0.2258 -0.0757
  225loPI   C3A 3593  15.060   1.055   8.091  0.0330 -0.3286 -0.0490
  225loPI   C4A 3594  15.093   1.449   7.834 -0.1175 -0.0430  0.1860
  225loPI   C5A 3595  15.226   1.615   7.535  0.4395 -0.2211  0.3115
  225loPI   C6A 3596  15.272   1.466   7.185  0.1032 -0.2038  0.1386
  225loPI   C1B 3597  15.059   0.527   8.763 -0.0984  0.3144 -0.1034
  225loPI   C2B 3598  15.085   0.580   8.322 -0.3832  0.0882 -0.0226
  225loPI   C3B 3599  15.144   0.199   7.992 -0.2743  0.1162  0.1285
  225loPI   C4B 3600  15.165  -0.087   7.656 -0.1618 -0.0758  0.0253
  226loPI    C1 3601   2.067  15.081   9.763  0.0994 -0.0944 -0.0015
  226loPI    C2 3602   2.260  15.205  10.091 -0.1970 -0.0305  0.1516
  226loPI    C3 3603   1.946  14.959  10.124 -0.2795  0.0408 -0.0783
  226loPI   PO4 3604   2.073  15.272   9.597 -0.1027 -0.5432  0.0597
  226loPI   GL1 3605   2.060  15.137   9.136 -0.1585  0.1407 -0.0028
  226loPI   GL2 3606   2.256  15.472   9.115 -0.1381  0.0530 -0.0554
  226loPI   C1A 3607   1.805  15.080   8.765  0.1016  0.1492 -0.2326
  226loPI   C2A 3608   1.994  14.667   8.528  0.2749  0.0258 -0.1748
  226loPI   C3A 3609   2.004  14.622   7.969 -0.0940  0.1407  0.4697
  226loPI   C4A 3610   2.228  14.497   7.663  0.0531 -0.1998  0.0355
  226loPI   C5A 3611   2.217  14.904   7.329  0.1219  0.2156 -0.3434
  226loPI   C6A 3612   2.368  14.891   6.839 -0.2355  0.1823  0.1275
  226loPI   C1B 3613   2.480  15.521   8.769  0.0626  0.0528 -0.1105
  226loPI   C2B 3614   2.396  15.686   8.319 -0.3257  0.1153  0.2946
  226loPI   C3B 3615   2.274  15.679   7.818  0.2257 -0.0081 -0.1662
  226loPI   C4B 3616   2.252  15.515   7.478  0.0788  0.2074 -0.0987
  227loPI    C1 3617  13.623  15.122  10.004 -0.3660  0.1448  0.1501
  227loPI    C2 3618  13.714  14.733   9.999 -0.4898  0.1165  0.0481
  227loPI    C3 3619  13.727  14.936  10.343  0.1031  0.1511  0.0166
  227loPI   PO4 3620  13.710  15.263   9.860  0.3322  0.4593 -0.2496
  227loPI   GL1 3621  13.960  15.313   9.544 -0.0571  0.0879  0.2088
  227loPI   GL2 3622  14.233  15.394   9.461 -0.3017 -0.0998 -0.0133
  227loPI   C1A 3623  13.786  15.296   9.203 -0.0395 -0.3953  0.0069
  227loPI   C2A 3624  13.733  15.227   8.818  0.1377  0.4026 -0.1729
  227loPI   C3A 3625  13.698  15.141   8.455 -0.0063  0.2708 -0.2505
  227loPI   C4A 3626  13.981  15.233   8.049 -0.1657 -0.1357  0.1950
  227loPI   C5A 3627  14.096  15.310   7.705  0.0741  0.2450 -0.1077
  227loPI   C6A 3628  14.260  15.590   7.759 -0.1823 -0.1308 -0.0476
  227loPI   C1B 3629  14.470  15.570   9.153 -0.1262  0.4332  0.0291
  227loPI   C2B 3630  14.553  15.631   8.726 -0.0439  0.0305 -0.2376
  227loPI   C3B 3631  14.551  15.732   8.368  0.2677  0.0128 -0.0445
  227loPI   C4B 3632  14.232  15.986   8.106  0.0370 -0.1390 -0.3392
  228loPI    C1 3633  13.407  12.742  10.256  0.0607 -0.1296  0.0701
  228loPI    C2 3634  13.807  12.758  10.240  0.0574  0.2691  0.2572
  228loPI    C3 3635  13.624  12.415  10.334  0.3549  0.0925  0.2037
  228loPI   PO4 3636  13.321  12.892  10.035 -0.1590  0.2024 -0.1130
  228loPI   GL1 3637  13.245  12.966   9.715  0.1235 -0.0484 -0.2179
  228loPI   GL2 3638  13.005  13.180   9.604 -0.3674  0.0324  0.3649
  228loPI   C1A 3639  13.515  13.002   9.353 -0.2351 -0.2117 -0.0088
  228loPI   C2A 3640  13.540  12.957   8.951 -0.0079 -0.2977 -0.0629
  228loPI   C3A 3641  13.444  13.086   8.538 -0.0502  0.0158  0.1235
  228loPI   C4A 3642  13.300  13.018   7.981  0.1138  0.1932 -0.0835
  228loPI   C5A 3643  13.124  13.027   7.486 -0.1690  0.1347 -0.2871
  228loPI   C6A 3644  13.118  12.750   7.172 -0.2374 -0.1473  0.2840
  228loPI   C1B 3645  12.943  13.232   9.184  0.2558  0.2453 -0.1375
  228loPI   C2B 3646  12.944  13.233   8.698 -0.2117 -0.0639  0.0373
  228loPI   C3B 3647  12.917  13.136   8.328 -0.2292  0.1592  0.0408
  228loPI   C4B 3648  12.794  12.924   7.960 -0.1367 -0.2127 -0.1047
  229loPI    C1 3649  10.779   9.629  10.354  0.0554 -0.0572 -0.1439
  229loPI    C2 3650  10.572   9.927  10.521 -0.0280 -0.2070  0.0242
  229loPI    C3 3651  10.971   9.923  10.545 -0.0315 -0.1520  0.0934
  229loPI   PO4 3652  10.695   9.605  10.153  0.3785  0.1239 -0.3314
  229loPI   GL1 3653  10.787   9.755   9.782  0.1065 -0.2721 -0.2424
  229loPI   GL2 3654  10.403   9.897   9.752  0.0283  0.3449  0.0129
  229loPI   C1A 3655  10.919   9.476   9.528 -0.1019 -0.1290 -0.3011
  229loPI   C2A 3656  10.790   9.412   9.091  0.2526  0.2046 -0.2750
  229loPI   C3A 3657  10.887   9.446   8.704 -0.1668  0.0330 -0.0621
  229loPI   C4A 3658  10.722   9.425   8.316 -0.0437  0.2034 -0.3488
  229loPI   C5A 3659  10.630   9.744   8.006 -0.1676 -0.1946  0.4373
  229loPI   C6A 3660  10.544  10.209   7.954  0.0321 -0.1245 -0.1476
  229loPI   C1B 3661  10.251  10.195   9.368  0.2842 -0.2326  0.3832
  229loPI   C2B 3662  10.097  10.120   8.928  0.1737 -0.1450 -0.2461
  229loPI   C3B 3663  10.169   9.935   8.574  0.0887  0.1815  0.1593
  229loPI   C4B 3664  10.211   9.867   8.217 -0.0981 -0.0713 -0.3114
  230loPI    C1 3665   4.886   1.425  10.303 -0.0275 -0.1663  0.0215
  230loPI    C2 3666   5.162   1.137  10.334 -0.0617 -0.2118 -0.0923
  230loPI    C3 3667   4.941   1.238  10.652  0.0987 -0.1620  0.0042
  230loPI   PO4 3668   4.898   1.538  10.014 -0.2423  0.0001 -0.0377
  230loPI   GL1 3669   4.636   1.819   9.842  0.1892  0.0428 -0.1044
  230loPI   GL2 3670   4.864   2.010   9.943 -0.0781  0.3151  0.1462
  230loPI   C1A 3671   4.659   1.838   9.451  0.3515  0.0038  0.0207
  230loPI   C2A 3672   4.579   2.009   8.935  0.1122  0.2093  0.0125
  230loPI   C3A 3673   4.743   2.075   8.534  0.0704  0.1138 -0.0880
  230loPI   C4A 3674   4.727   2.162   8.114 -0.1194 -0.1831 -0.0149
  230loPI   C5A 3675   4.688   2.318   7.673 -0.0547  0.2747 -0.1094
  230loPI   C6A 3676   4.909   2.179   7.407 -0.1197 -0.4192  0.1038
  230loPI   C1B 3677   5.024   2.161   9.619 -0.0204  0.0726 -0.0852
  230loPI   C2B 3678   5.221   2.002   9.214 -0.0022 -0.0363  0.1578
  230loPI   C3B 3679   5.065   1.867   8.840 -0.1219  0.0816  0.2728
  230loPI   C4B 3680   4.788   1.558   8.530 -0.1555 -0.1379  0.1317
  231loPI    C1 3681   1.743  13.812   9.207  0.1867  0.0004  0.1355
  231loPI    C2 3682   1.689  13.706   9.589  0.1054 -0.0174  0.1192
  231loPI    C3 3683   2.055  13.797   9.457  0.1515 -0.1250  0.1724
  231loPI   PO4 3684   1.690  13.722   9.039 -0.0448  0.0458 -0.2139
  231loPI   GL1 3685   1.637  13.706   8.642  0.1424 -0.1427 -0.3285
  231loPI   GL2 3686   1.344  13.610   8.701  0.1393 -0.0668 -0.0217
  231loPI   C1A 3687   1.681  13.829   8.217  0.1747  0.1117 -0.0794
  231loPI   C2A 3688   1.511  13.891   7.844  0.0838  0.1504 -0.1376
  231loPI   C3A 3689   1.360  14.139   7.662  0.0993  0.1211 -0.1123
  231loPI   C4A 3690   1.299  14.324   7.267  0.0357  0.0064 -0.2428
  231loPI   C5A 3691   1.087  14.342   6.896  0.1395 -0.3665  0.0273
  231loPI   C6A 3692   0.989  14.325   6.500  0.1067  0.2952 -0.0182
  231loPI   C1B 3693   1.243  13.593   8.261  0.3358 -0.0832 -0.0549
  231loPI   C2B 3694   1.344  13.451   7.917  0.0313 -0.3450 -0.0468
  231loPI   C3B 3695   1.258  13.380   7.534 -0.2410 -0.0348  0.1014
  231loPI   C4B 3696   1.028  13.456   7.139  0.0027 -0.2328 -0.0258
  232loPI    C1 3697   9.025  14.207  10.047  0.1064 -0.1750 -0.2217
  232loPI    C2 3698   8.855  14.425  10.336  0.0900  0.0591 -0.4045
  232loPI    C3 3699   8.863  14.026  10.365  0.0193  0.0756 -0.1207
  232loPI   PO4 3700   9.096  14.443   9.865 -0.0382  0.2714  0.0454
  232loPI   GL1 3701   9.356  14.675   9.482  0.0327 -0.1285  0.1548
  232loPI   GL2 3702   9.378  14.453   9.427 -0.0375  0.2229  0.2852
  232loPI   C1A 3703   9.067  14.731   9.195 -0.0051  0.1408  0.0936
  232loPI   C2A 3704   8.798  14.673   8.809 -0.2934  0.3645 -0.1549
  232loPI   C3A 3705   8.772  14.743   8.365  0.0928  0.3140 -0.0857
  232loPI   C4A 3706   8.621  14.809   7.868 -0.3803  0.0147 -0.2215
  232loPI   C5A 3707   8.762  14.789   7.441 -0.0559  0.5067 -0.2134
  232loPI   C6A 3708   8.866  14.504   7.050 -0.0563  0.2230  0.0085
  232loPI   C1B 3709   9.395  14.372   9.001  0.0554 -0.1142  0.1271
  232loPI   C2B 3710   9.246  14.485   8.492 -0.4406 -0.2681 -0.0677
  232loPI   C3B 3711   9.306  14.333   8.100 -0.1983 -0.0381  0.0886
  232loPI   C4B 3712   9.458  14.328   7.692 -0.1848 -0.0494  0.2661
  233loPI    C1 3713   9.502   6.126  10.325  0.1062  0.0326  0.0403
  233loPI    C2 3714   9.498   5.802  10.560  0.1830  0.1802  0.2473
  233loPI    C3 3715   9.226   6.091  10.612  0.2707  0.2663  0.2318
  233loPI   PO4 3716   9.547   6.079  10.117  0.2801 -0.1055  0.0442
  233loPI   GL1 3717   9.838   6.054   9.878  0.0109 -0.0026  0.1740
  233loPI   GL2 3718   9.765   5.756   9.759 -0.1486 -0.0376  0.0983
  233loPI   C1A 3719   9.994   6.104   9.443  0.2375  0.0818 -0.1435
  233loPI   C2A 3720  10.077   6.073   9.042 -0.2307 -0.2861 -0.0270
  233loPI   C3A 3721  10.046   6.120   8.541 -0.0057  0.0239 -0.0110
  233loPI   C4A 3722  10.098   6.230   8.109  0.0786 -0.0606  0.0996
  233loPI   C5A 3723   9.875   6.167   7.694 -0.0151  0.3941  0.0429
  233loPI   C6A 3724   9.725   6.355   7.427  0.2540 -0.2831 -0.0846
  233loPI   C1B 3725   9.761   5.658   9.430 -0.3864 -0.0656  0.3132
  233loPI   C2B 3726   9.780   5.692   8.921  0.0638 -0.2973 -0.3302
  233loPI   C3B 3727   9.640   5.617   8.481 -0.0486  0.2101 -0.0538
  233loPI   C4B 3728   9.634   5.448   8.092 -0.2178  0.0309  0.1521
  234loPI    C1 3729  12.954   5.514  10.185  0.0054  0.3188  0.1911
  234loPI    C2 3730  12.891   5.276  10.500 -0.1789  0.1127  0.0020
  234loPI    C3 3731  12.611   5.539  10.389 -0.0974  0.2136  0.0334
  234loPI   PO4 3732  13.048   5.330   9.911 -0.2797  0.1467  0.2498
  234loPI   GL1 3733  13.321   5.258   9.549  0.1221  0.0531  0.2857
  234loPI   GL2 3734  13.035   5.160   9.431  0.1866  0.1476 -0.0883
  234loPI   C1A 3735  13.496   5.284   9.112  0.1079  0.1649  0.0350
  234loPI   C2A 3736  13.485   5.373   8.700 -0.3385 -0.0876 -0.2857
  234loPI   C3A 3737  13.479   5.379   8.178 -0.3484 -0.2761 -0.1611
  234loPI   C4A 3738  13.544   5.313   7.736  0.2422  0.0143 -0.0839
  234loPI   C5A 3739  13.497   4.999   7.416  0.0592 -0.1426 -0.2176
  234loPI   C6A 3740  13.722   4.578   7.428 -0.1117  0.3318  0.0681
  234loPI   C1B 3741  12.685   5.056   9.217 -0.0923 -0.2388 -0.0923
  234loPI   C2B 3742  12.536   4.898   8.824  0.1989  0.1960  0.0552
  234loPI   C3B 3743  12.463   4.577   8.484 -0.2856 -0.3319  0.2158
  234loPI   C4B 3744  12.802   4.546   8.125  0.1046 -0.1330 -0.2046
  235loPI    C1 3745  15.742  13.186   9.890  0.2544 -0.0382 -0.1850
  235loPI    C2 3746  15.840  13.453  10.171 -0.1439 -0.0879  0.0079
  235loPI    C3 3747  15.635  13.124  10.271 -0.0030 -0.2706 -0.2915
  235loPI   PO4 3748  15.636  13.328   9.740  0.0149 -0.5166  0.1147
  235loPI   GL1 3749  15.382  13.062   9.475  0.2280 -0.1223  0.5254
  235loPI   GL2 3750  15.496  13.257   9.245 -0.0915 -0.0810 -0.1092
  235loPI   C1A 3751  15.005  12.992   9.176 -0.0274 -0.0739  0.1501
  235loPI   C2A 3752  14.949  13.046   8.760  0.1164  0.0843 -0.1666
  235loPI   C3A 3753  14.803  12.849   8.403  0.0683  0.3343  0.1007
  235loPI   C4A 3754  14.902  12.771   7.903 -0.4175  0.3475 -0.1003
  235loPI   C5A 3755  15.056  12.477   7.557 -0.0638  0.2854 -0.1413
  235loPI   C6A 3756  15.125  12.307   7.119 -0.1950 -0.1893 -0.1085
  235loPI   C1B 3757  15.495  12.874   8.972  0.0214  0.3200 -0.2929
  235loPI   C2B 3758  15.417  12.733   8.632  0.1928  0.1765  0.2067
  235loPI   C3B 3759  15.530  12.372   8.368  0.2053  0.1626  0.1276
  235loPI   C4B 3760  15.610  12.159   8.012 -0.0672  0.2732  0.4430
  236loPI    C1 3761  14.394  10.562  10.163 -0.0733 -0.1414 -0.0250
  236loPI    C2 3762  14.391  10.176  10.058 -0.1680 -0.1350 -0.0470
  236loPI    C3 3763  14.723  10.393  10.013 -0.0607 -0.2591  0.1322
  236loPI   PO4 3764  14.187  10.642  10.006 -0.0713  0.1734 -0.0317
  236loPI   GL1 3765  13.854  10.654   9.726 -0.2066  0.2907 -0.1332
  236loPI   GL2 3766  13.616  10.789   9.650 -0.1826 -0.1205  0.1298
  236loPI   C1A 3767  13.975  10.713   9.265 -0.3467  0.0462 -0.3075
  236loPI   C2A 3768  13.977  10.675   8.918 -0.0257 -0.1166 -0.1497
  236loPI   C3A 3769  13.978  10.618   8.381 -0.1079  0.1496 -0.2846
  236loPI   C4A 3770  13.930  10.447   7.988 -0.0157  0.0526  0.2222
  236loPI   C5A 3771  13.737  10.211   7.658 -0.1624 -0.0739  0.1214
  236loPI   C6A 3772  13.815  10.103   7.279 -0.0849 -0.1213  0.1818
  236loPI   C1B 3773  13.636  11.070   9.340  0.1221 -0.3886  0.1796
  236loPI   C2B 3774  13.649  11.032   8.932  0.1443  0.1860  0.1996
  236loPI   C3B 3775  13.715  11.139   8.479 -0.0580  0.3555  0.1428
  236loPI   C4B 3776  13.768  10.936   8.046 -0.2676  0.1322  0.1759
  237loPI    C1 3777   0.253   5.137  10.741  0.0479 -0.0832 -0.3142
  237loPI    C2 3778  -0.031   4.891  10.879  0.0272  0.0958 -0.0280
  237loPI    C3 3779   0.094   5.197  11.104  0.4185  0.0440 -0.1682
  237loPI   PO4 3780   0.183   5.112  10.509  0.1220  0.4860 -0.1803
  237loPI   GL1 3781   0.136   5.500  10.212 -0.1248 -0.1986 -0.0136
  237loPI   GL2 3782   0.403   5.776  10.169  0.0262  0.3378  0.0527
  237loPI   C1A 3783  -0.008   5.720   9.869 -0.1388  0.0491 -0.0871
  237loPI   C2A 3784  -0.197   5.702   9.516 -0.0316  0.1014 -0.1186
  237loPI   C3A 3785  -0.079   5.594   9.051  0.0218 -0.3138 -0.2408
  237loPI   C4A 3786  -0.110   5.768   8.695 -0.3974  0.2001 -0.0963
  237loPI   C5A 3787  -0.119   5.641   8.270  0.0523 -0.2039  0.1725
  237loPI   C6A 3788   0.037   5.637   7.879 -0.0497 -0.1755  0.2991
  237loPI   C1B 3789   0.508   5.930   9.779  0.2304 -0.0472  0.1703
  237loPI   C2B 3790   0.562   6.153   9.396 -0.0759  0.0500 -0.1498
  237loPI   C3B 3791   0.933   6.320   9.103  0.1437  0.0056 -0.0589
  237loPI   C4B 3792   1.147   6.688   8.772 -0.0680 -0.2285 -0.1781
  238loPI    C1 3793   7.476  15.283   9.592 -0.1199  0.1763 -0.3232
  238loPI    C2 3794   7.431  15.457   9.949 -0.0089 -0.0487 -0.1969
  238loPI    C3 3795   7.136  15.475   9.679 -0.2607 -0.2293  0.0605
  238loPI   PO4 3796   7.524  15.027   9.656  0.3007 -0.1082 -0.2495
  238loPI   GL1 3797   7.432  14.709   9.451 -0.3952  0.2568  0.5195
  238loPI   GL2 3798   7.105  14.697   9.344 -0.3941 -0.2189 -0.0039
  238loPI   C1A 3799   7.506  14.245   9.168  0.1823  0.1851  0.3218
  238loPI   C2A 3800   7.578  14.036   8.679  0.0041 -0.0699 -0.0837
  238loPI   C3A 3801   7.663  14.036   8.252 -0.0733 -0.1580  0.0149
  238loPI   C4A 3802   7.548  14.149   7.931  0.2409  0.1534 -0.3116
  238loPI   C5A 3803   7.362  14.475   7.757  0.3946 -0.2746  0.0650
  238loPI   C6A 3804   7.680  14.779   7.486  0.2416  0.2315 -0.2301
  238loPI   C1B 3805   7.137  14.604   8.999 -0.0650  0.0329 -0.0419
  238loPI   C2B 3806   7.369  14.523   8.636 -0.2016  0.0012  0.5375
  238loPI   C3B 3807   7.254  14.364   8.313  0.1364 -0.0812 -0.0578
  238loPI   C4B 3808   6.982  14.188   8.042 -0.1271  0.0652 -0.0433
  239loPI    C1 3809   0.334  15.132   9.827  0.1379  0.1141 -0.0870
  239loPI    C2 3810   0.650  14.998   9.623  0.0705 -0.0303 -0.0976
  239loPI    C3 3811   0.678  15.059  10.017  0.0985 -0.0858 -0.0910
  239loPI   PO4 3812   0.269  15.340   9.639  0.0347  0.2089  0.2078
  239loPI   GL1 3813   0.142  15.232   9.267 -0.1545  0.0060  0.0105
  239loPI   GL2 3814   0.325  15.012   9.178  0.3745 -0.2073  0.1060
  239loPI   C1A 3815  -0.175  15.066   9.051 -0.2559 -0.1053 -0.2162
  239loPI   C2A 3816  -0.301  15.032   8.646 -0.3501 -0.4275  0.0980
  239loPI   C3A 3817  -0.567  15.183   8.270 -0.1882 -0.1248  0.1442
  239loPI   C4A 3818  -0.711  15.309   7.900 -0.0523  0.1023 -0.1595
  239loPI   C5A 3819  -1.089  15.334   7.718 -0.0547 -0.2896  0.1008
  239loPI   C6A 3820  -1.370  15.003   7.793 -0.0674  0.0314  0.1585
  239loPI   C1B 3821   0.244  15.137   8.780 -0.2910 -0.1064 -0.1679
  239loPI   C2B 3822   0.111  15.162   8.381 -0.1999  0.3413 -0.0655
  239loPI   C3B 3823  -0.075  15.359   8.147  0.1143 -0.1588 -0.0864
  239loPI   C4B 3824  -0.258  15.486   7.778 -0.2282  0.0305  0.3874
  240loPI    C1 3825   1.539   5.897   9.938 -0.0642 -0.2450  0.0767
  240loPI    C2 3826   1.146   5.852   9.882 -0.0926 -0.0096  0.0760
  240loPI    C3 3827   1.290   5.907  10.251 -0.0684 -0.0193  0.0681
  240loPI   PO4 3828   1.627   5.639   9.697  0.3227  0.1747 -0.0375
  240loPI   GL1 3829   1.773   5.501   9.309  0.1314 -0.2133  0.0480
  240loPI   GL2 3830   1.732   5.173   9.355  0.3969  0.1792 -0.1241
  240loPI   C1A 3831   1.666   5.751   9.062 -0.0720  0.1200  0.1590
  240loPI   C2A 3832   2.011   6.095   8.904  0.0427 -0.2132 -0.0587
  240loPI   C3A 3833   2.368   5.996   8.805  0.0115 -0.0550  0.0603
  240loPI   C4A 3834   2.508   5.909   8.431  0.3160 -0.2289  0.0271
  240loPI   C5A 3835   2.772   5.942   8.045 -0.2742  0.4680 -0.0341
  240loPI   C6A 3836   3.113   5.792   7.887  0.2578 -0.0988  0.1995
  240loPI   C1B 3837   1.684   5.242   8.920 -0.2464 -0.4010 -0.2638
  240loPI   C2B 3838   1.597   5.583   8.604 -0.0954  0.0774 -0.0623
  240loPI   C3B 3839   1.664   5.840   8.205 -0.0680 -0.0949 -0.0056
  240loPI   C4B 3840   1.652   5.697   7.778 -0.1287 -0.1395  0.0625
  241loPI    C1 3841   4.135   3.335  10.014 -0.1318  0.0586  0.2889
  241loPI    C2 3842   3.751   3.356   9.907 -0.0483  0.1815  0.0041
  241loPI    C3 3843   3.863   3.478  10.270 -0.2935  0.0358  0.1318
  241loPI   PO4 3844   4.247   3.338   9.692 -0.2001  0.3354 -0.0735
  241loPI   GL1 3845   4.002   3.344   9.357 -0.0786 -0.0348 -0.0304
  241loPI   GL2 3846   3.870   3.536   9.341 -0.2659  0.1593 -0.1406
  241loPI   C1A 3847   4.049   3.268   8.889 -0.3965 -0.0819 -0.1215
  241loPI   C2A 3848   4.309   3.482   8.544  0.0619 -0.0963  0.0446
  241loPI   C3A 3849   4.278   3.623   8.163  0.0017  0.0962  0.0702
  241loPI   C4A 3850   4.017   3.405   7.834  0.2624 -0.2273  0.0927
  241loPI   C5A 3851   3.788   3.176   7.720 -0.1790  0.0086 -0.3168
  241loPI   C6A 3852   3.404   3.123   7.508 -0.0298  0.2914 -0.2537
  241loPI   C1B 3853   4.292   3.640   9.103 -0.3814  0.0680  0.3978
  241loPI   C2B 3854   4.404   3.964   8.862 -0.0439 -0.0028 -0.2174
  241loPI   C3B 3855   4.325   4.051   8.445 -0.0712  0.1214 -0.0760
  241loPI   C4B 3856   4.076   4.051   8.076 -0.1703 -0.1924  0.2156
  242loPI    C1 3857  15.106  11.628   9.894  0.1336 -0.0822 -0.1425
  242loPI    C2 3858  14.883  11.875  10.117  0.0926 -0.0001 -0.2731
  242loPI    C3 3859  15.185  11.671  10.283 -0.0777 -0.1104 -0.0952
  242loPI   PO4 3860  14.919  11.382   9.746  0.1867  0.0708 -0.0657
  242loPI   GL1 3861  14.599  11.245   9.366  0.0076  0.0877 -0.0180
  242loPI   GL2 3862  14.852  11.495   9.305  0.1779 -0.3704  0.2628
  242loPI   C1A 3863  14.735  11.131   8.920 -0.0006 -0.1115  0.1346
  242loPI   C2A 3864  14.816  10.934   8.542  0.1178  0.0853  0.0745
  242loPI   C3A 3865  14.967  10.678   8.184 -0.0302  0.1109  0.0477
  242loPI   C4A 3866  15.082  10.553   7.801  0.0851  0.1993  0.4057
  242loPI   C5A 3867  14.898  10.476   7.379 -0.3979  0.2712  0.0298
  242loPI   C6A 3868  14.996  10.747   6.883  0.0075  0.3729 -0.1388
  242loPI   C1B 3869  14.642  11.589   8.981 -0.1742 -0.2893  0.1167
  242loPI   C2B 3870  14.488  11.556   8.664 -0.1725 -0.1084  0.1342
  242loPI   C3B 3871  14.520  11.517   8.219 -0.0630 -0.0601 -0.1350
  242loPI   C4B 3872  14.640  11.136   8.065  0.3123 -0.1769 -0.0011
  243loPI    C1 3873  16.279   1.547  10.356 -0.0367 -0.1006  0.2339
  243loPI    C2 3874  15.905   1.553  10.498 -0.0538  0.2274  0.1824
  243loPI    C3 3875  16.092   1.204  10.442 -0.3614  0.0595  0.1817
  243loPI   PO4 3876  16.302   1.699  10.059 -0.4067 -0.0302 -0.4912
  243loPI   GL1 3877  16.328   1.731   9.608 -0.0341  0.0559 -0.0471
  243loPI   GL2 3878  16.201   1.478   9.546 -0.1621  0.1689 -0.2942
  243loPI   C1A 3879  16.374   1.997   9.263 -0.1964  0.0388  0.5510
  243loPI   C2A 3880  16.348   2.117   8.740 -0.0641 -0.2600 -0.0844
  243loPI   C3A 3881  16.553   2.145   8.312 -0.0008  0.4824 -0.1552
  243loPI   C4A 3882  16.841   2.224   7.982  0.1757 -0.1583  0.1393
  243loPI   C5A 3883  16.975   2.605   7.698  0.0356  0.2197 -0.0522
  243loPI   C6A 3884  16.845   2.965   7.709  0.1382  0.1057  0.1328
  243loPI   C1B 3885  16.083   1.557   9.175 -0.1558  0.0307  0.2551
  243loPI   C2B 3886  16.050   1.650   8.741  0.3368 -0.3548 -0.1143
  243loPI   C3B 3887  16.024   1.963   8.355 -0.0894 -0.0836  0.1898
  243loPI   C4B 3888  16.164   2.428   8.299 -0.0415 -0.1636  0.1428
  244loPI    C1 3889   3.697   0.384  10.057 -0.1797  0.0311  0.0684
  244loPI    C2 3890   4.086   0.456  10.115 -0.2183  0.2476  0.0667
  244loPI    C3 3891   3.933   0.098  10.206  0.0500  0.0440 -0.2589
  244loPI   PO4 3892   3.666   0.555   9.814  0.1234 -0.0571  0.2707
  244loPI   GL1 3893   3.829   0.713   9.385  0.0270  0.2882  0.0243
  244loPI   GL2 3894   3.642   0.438   9.189  0.0034  0.3424  0.0164
  244loPI   C1A 3895   3.862   0.884   8.995 -0.4010 -0.1167 -0.3385
  244loPI   C2A 3896   3.902   0.875   8.581 -0.2824 -0.0832 -0.2043
  244loPI   C3A 3897   3.663   0.720   8.218 -0.0067 -0.3276  0.1645
  244loPI   C4A 3898   3.651   0.854   7.790  0.1850  0.0921  0.0256
  244loPI   C5A 3899   3.370   0.934   7.380 -0.3189 -0.1953 -0.0622
  244loPI   C6A 3900   3.417   1.391   7.294  0.1713 -0.4321 -0.0308
  244loPI   C1B 3901   3.521   0.570   8.805 -0.2270  0.1019  0.1982
  244loPI   C2B 3902   3.428   0.361   8.452 -0.1863  0.1665 -0.1235
  244loPI   C3B 3903   3.354   0.419   7.978 -0.1025  0.0895 -0.3664
  244loPI   C4B 3904   3.461   0.445   7.510 -0.1550  0.3367 -0.0552
  245loPI    C1 3905   4.196  14.821  10.098  0.0817 -0.1122  0.0469
  245loPI    C2 3906   3.943  14.724  10.391  0.0811 -0.0875  0.0546
  245loPI    C3 3907   4.319  14.826  10.479  0.0781 -0.0706  0.0476
  245loPI   PO4 3908   3.991  14.717   9.756  0.0405  0.0325  0.1584
  245loPI   GL1 3909   4.107  14.554   9.392  0.1354  0.2533 -0.1167
  245loPI   GL2 3910   3.810  14.433   9.173  0.0998  0.0840  0.0606
  245loPI   C1A 3911   4.244  14.693   9.085 -0.1969  0.0467  0.0598
  245loPI   C2A 3912   4.256  14.641   8.574 -0.0839  0.2241  0.2059
  245loPI   C3A 3913   4.370  14.640   8.159 -0.0813  0.1607 -0.2974
  245loPI   C4A 3914   4.441  14.589   7.717  0.0978 -0.0491 -0.2034
  245loPI   C5A 3915   4.342  14.464   7.288 -0.2109 -0.0686 -0.2291
  245loPI   C6A 3916   4.551  14.394   6.928 -0.4403 -0.1395 -0.1849
  245loPI   C1B 3917   3.949  14.323   8.741  0.2034  0.2305  0.0427
  245loPI   C2B 3918   4.158  14.186   8.300  0.1951  0.2550 -0.0602
  245loPI   C3B 3919   4.323  14.125   7.895  0.0809  0.1569  0.0655
  245loPI   C4B 3920   4.396  13.925   7.500 -0.1265  0.1395 -0.4168
  246loPI    C1 3921   2.070  16.205   9.811 -0.0777 -0.1647  0.0832
  246loPI    C2 3922   2.307  16.512   9.911 -0.0693 -0.0472 -0.2848
  246loPI    C3 3923   2.303  16.181  10.136  0.0062  0.1760  0.0521
  246loPI   PO4 3924   1.905  16.300   9.505 -0.4765 -0.1454  0.1340
  246loPI   GL1 3925   1.882  16.433   9.073  0.0768  0.0874 -0.1866
  246loPI   GL2 3926   1.596  16.582   9.205 -0.0384  0.1832 -0.1676
  246loPI   C1A 3927   2.013  16.464   8.748 -0.1578 -0.0506  0.0811
  246loPI   C2A 3928   2.024  16.517   8.299  0.1775  0.0796  0.1821
  246loPI   C3A 3929   1.956  16.777   7.911  0.3109  0.1269  0.1622
  246loPI   C4A 3930   1.705  16.831   7.525 -0.1046 -0.0230  0.1135
  246loPI   C5A 3931   1.480  17.023   7.194  0.0917 -0.0365 -0.2787
  246loPI   C6A 3932   1.059  17.182   7.190  0.2742  0.1140 -0.0722
  246loPI   C1B 3933   1.503  16.607   8.722 -0.3165 -0.1019 -0.0598
  246loPI   C2B 3934   1.619  16.858   8.331 -0.2770 -0.0515  0.2169
  246loPI   C3B 3935   1.539  17.041   7.956  0.1383 -0.2230 -0.1631
  246loPI   C4B 3936   1.254  17.326   7.825  0.0173  0.2396  0.3689
  247loPI    C1 3937  14.108  13.436  10.018  0.0199  0.0759  0.0623
  247loPI    C2 3938  14.175  13.045  10.071  0.0549  0.0691 -0.0305
  247loPI    C3 3939  13.985  13.256  10.353 -0.1456 -0.0575 -0.0684
  247loPI   PO4 3940  14.337  13.506  10.005 -0.0513 -0.0618  0.1413
  247loPI   GL1 3941  14.518  13.537   9.628  0.3784 -0.0672 -0.0326
  247loPI   GL2 3942  14.282  13.577   9.344 -0.1434  0.0024 -0.1144
  247loPI   C1A 3943  14.614  13.139   9.466 -0.2933  0.2203 -0.1114
  247loPI   C2A 3944  14.468  13.139   9.000 -0.2986  0.1865  0.0292
  247loPI   C3A 3945  14.454  13.185   8.565  0.1574  0.1745  0.1920
  247loPI   C4A 3946  14.456  13.239   8.219  0.4346 -0.1787 -0.0265
  247loPI   C5A 3947  14.174  13.213   7.924 -0.0201  0.2162 -0.1219
  247loPI   C6A 3948  13.802  12.994   7.968  0.3026  0.1885 -0.0736
  247loPI   C1B 3949  14.327  13.625   8.906  0.0458  0.1455 -0.0275
  247loPI   C2B 3950  14.438  13.730   8.578  0.1798 -0.1569 -0.0451
  247loPI   C3B 3951  14.607  13.936   8.183 -0.1589 -0.0105  0.0388
  247loPI   C4B 3952  14.761  14.224   7.951 -0.1333 -0.2127 -0.0847
  248loPI    C1 3953  18.595  12.778   9.875  0.2109 -0.1457  0.2138
  248loPI    C2 3954  18.635  13.172   9.817  0.1209 -0.1530  0.1009
  248loPI    C3 3955  18.737  12.915   9.527 -0.3813 -0.1871 -0.0560
  248loPI   PO4 3956  18.359  12.721   9.863  0.2398 -0.1412  0.1435
  248loPI   GL1 3957  18.051  12.604   9.490  0.1786  0.2555 -0.2172
  248loPI   GL2 3958  18.144  12.343   9.471 -0.1276  0.1320  0.0314
  248loPI   C1A 3959  18.368  12.670   9.220 -0.1328  0.0366 -0.0520
  248loPI   C2A 3960  18.542  12.901   8.899 -0.1955  0.1908  0.1228
  248loPI   C3A 3961  18.641  13.159   8.579  0.2955  0.0299 -0.2233
  248loPI   C4A 3962  18.371  13.219   8.198  0.1454 -0.0125 -0.2232
  248loPI   C5A 3963  18.240  13.125   7.783  0.4616 -0.1736  0.0620
  248loPI   C6A 3964  18.083  13.126   7.341  0.2612  0.2410 -0.2225
  248loPI   C1B 3965  18.004  12.175   9.163 -0.2483  0.0732  0.4598
  248loPI   C2B 3966  17.736  12.086   8.979  0.1192  0.2423  0.0404
  248loPI   C3B 3967  17.502  12.142   8.642  0.0893 -0.3381 -0.0468
  248loPI   C4B 3968  17.524  12.139   8.150 -0.1306  0.3327  0.5617
  249loPI    C1 3969  12.910   6.570  10.161 -0.0449 -0.2508 -0.0802
  249loPI    C2 3970  12.758   6.860  10.391  0.0873 -0.0052 -0.2979
  249loPI    C3 3971  12.549   6.525  10.328 -0.1234  0.0962 -0.1498
  249loPI   PO4 3972  12.986   6.667   9.973 -0.0395  0.1078 -0.1135
  249loPI   GL1 3973  13.249   6.331   9.703  0.0652  0.2634 -0.2341
  249loPI   GL2 3974  12.989   6.363   9.494 -0.1450 -0.2291 -0.2258
  249loPI   C1A 3975  13.426   6.378   9.248 -0.1454  0.4031  0.1568
  249loPI   C2A 3976  13.476   6.333   8.782  0.1341  0.0754 -0.1368
  249loPI   C3A 3977  13.159   6.290   8.471 -0.1359 -0.0960 -0.1265
  249loPI   C4A 3978  12.989   6.150   8.051 -0.0052  0.3527 -0.1039
  249loPI   C5A 3979  13.032   5.739   7.780 -0.3519 -0.3352 -0.0602
  249loPI   C6A 3980  13.104   5.208   7.627 -0.1022  0.1316 -0.0327
  249loPI   C1B 3981  12.956   6.162   9.136 -0.2457 -0.2077  0.1781
  249loPI   C2B 3982  13.015   5.932   8.782 -0.0841 -0.0456 -0.2830
  249loPI   C3B 3983  12.728   5.925   8.424  0.0753  0.3189 -0.1162
  249loPI   C4B 3984  12.449   5.709   8.266  0.2012 -0.0644  0.1607
  250loPI    C1 3985   6.729  11.117   9.908 -0.1727  0.1601 -0.0831
  250loPI    C2 3986   6.818  10.749  10.039 -0.0369  0.2682  0.1352
  250loPI    C3 3987   6.592  10.992  10.263  0.1360  0.4291  0.1374
  250loPI   PO4 3988   6.656  11.114   9.695 -0.0296 -0.0814  0.0828
  250loPI   GL1 3989   6.512  10.979   9.312 -0.0026 -0.2036 -0.1506
  250loPI   GL2 3990   6.460  11.339   9.142 -0.0281  0.2967  0.1599
  250loPI   C1A 3991   6.748  10.937   8.981  0.1578 -0.0906 -0.2191
  250loPI   C2A 3992   7.040  11.052   8.685  0.0766  0.1977 -0.0871
  250loPI   C3A 3993   7.341  11.159   8.416 -0.0840  0.0728  0.0696
  250loPI   C4A 3994   7.612  11.073   8.080 -0.0545  0.1600 -0.1972
  250loPI   C5A 3995   7.935  10.981   7.658  0.1433 -0.0168  0.1452
  250loPI   C6A 3996   8.082  10.635   7.475 -0.0592  0.0086 -0.0998
  250loPI   C1B 3997   6.507  11.219   8.653  0.3270  0.1267 -0.0416
  250loPI   C2B 3998   6.453  11.269   8.184  0.2361  0.3921 -0.0010
  250loPI   C3B 3999   6.715  11.196   7.812 -0.1265  0.2277 -0.0038
  250loPI   C4B 4000   6.619  11.170   7.464 -0.1773  0.1885  0.3804
  251loPI    C1 4001  11.768   6.569  10.396 -0.2860 -0.1063  0.2668
  251loPI    C2 4002  12.095   6.706  10.581 -0.0965 -0.0412 -0.1058
  251loPI    C3 4003  12.013   6.315  10.583 -0.0241 -0.0562  0.0001
  251loPI   PO4 4004  11.793   6.681  10.216 -0.1910 -0.0277  0.0813
  251loPI   GL1 4005  11.644   6.913   9.877  0.0452 -0.0175 -0.1958
  251loPI   GL2 4006  11.412   6.739   9.662 -0.0624 -0.0920 -0.2234
  251loPI   C1A 4007  11.600   7.199   9.513  0.0420 -0.0749 -0.1331
  251loPI   C2A 4008  11.836   7.250   9.143  0.0403  0.0441  0.0574
  251loPI   C3A 4009  11.929   7.247   8.564 -0.0478  0.0066  0.0342
  251loPI   C4A 4010  12.029   7.063   8.172 -0.1997  0.1169 -0.1856
  251loPI   C5A 4011  11.855   6.926   7.792 -0.2343  0.0933  0.0980
  251loPI   C6A 4012  11.534   6.940   7.662 -0.1680 -0.0065  0.0266
  251loPI   C1B 4013  11.283   6.809   9.166  0.3161  0.1878 -0.4043
  251loPI   C2B 4014  11.191   6.880   8.754 -0.0791 -0.1256  0.0475
  251loPI   C3B 4015  11.303   6.955   8.291 -0.4148  0.0897  0.1141
  251loPI   C4B 4016  11.140   7.154   7.984  0.0343  0.0936  0.0513
  252loPI    C1 4017  11.801  18.423  10.009 -0.0751 -0.0958 -0.1848
  252loPI    C2 4018  11.511  18.575  10.239  0.0213 -0.1317 -0.0387
  252loPI    C3 4019  11.704  18.243  10.353  0.0863 -0.1358 -0.1595
  252loPI   PO4 4020  11.788  18.766   9.851  0.1195  0.0635 -0.2476
  252loPI   GL1 4021  11.847  19.002   9.498 -0.1029 -0.0908  0.2186
  252loPI   GL2 4022  12.162  18.980   9.345 -0.3940 -0.3332  0.0380
  252loPI   C1A 4023  11.508  18.947   9.210 -0.1607  0.1122 -0.0650
  252loPI   C2A 4024  11.536  18.922   8.847  0.1006  0.5052  0.2406
  252loPI   C3A 4025  11.655  18.896   8.459 -0.2004  0.2341  0.0876
  252loPI   C4A 4026  11.605  18.918   7.998  0.1193  0.1954  0.1947
  252loPI   C5A 4027  11.591  18.768   7.615  0.1241  0.1569 -0.2181
  252loPI   C6A 4028  11.705  18.672   7.244  0.2038 -0.3457  0.3109
  252loPI   C1B 4029  12.377  18.807   9.028  0.4541  0.2731 -0.2210
  252loPI   C2B 4030  12.658  18.910   8.688  0.1181  0.2335  0.1409
  252loPI   C3B 4031  12.621  18.775   8.303 -0.0145 -0.2946  0.1168
  252loPI   C4B 4032  12.808  18.782   7.861  0.2227 -0.1641  0.0281
  253loPI    C1 4033   4.147   0.930  10.173 -0.2507 -0.1615 -0.2429
  253loPI    C2 4034   3.762   0.860  10.257 -0.2615  0.1087 -0.0494
  253loPI    C3 4035   3.949   1.171  10.424  0.0579 -0.0516 -0.0995
  253loPI   PO4 4036   4.220   0.923   9.913  0.3848  0.2823  0.0426
  253loPI   GL1 4037   4.223   1.001   9.431  0.0506  0.0644 -0.1406
  253loPI   GL2 4038   4.514   1.239   9.315  0.0869 -0.1645  0.1919
  253loPI   C1A 4039   4.345   0.718   9.212  0.3515 -0.3154 -0.0440
  253loPI   C2A 4040   4.321   0.794   8.808  0.0982  0.0869  0.0251
  253loPI   C3A 4041   4.434   0.789   8.360 -0.2025 -0.0865  0.2445
  253loPI   C4A 4042   4.461   0.834   7.897  0.2484 -0.1466  0.0992
  253loPI   C5A 4043   4.736   0.945   7.496 -0.1765 -0.1950  0.1104
  253loPI   C6A 4044   4.927   0.896   7.002  0.0397  0.2416 -0.0452
  253loPI   C1B 4045   4.239   1.609   9.263  0.2952  0.1420  0.3024
  253loPI   C2B 4046   3.877   1.877   9.031 -0.1365  0.0797 -0.1383
  253loPI   C3B 4047   3.662   1.949   8.661  0.1231 -0.2283  0.2955
  253loPI   C4B 4048   3.414   2.180   8.365 -0.1562 -0.2401  0.1447
  254loPI    C1 4049  13.448  18.084   9.728 -0.1204 -0.1418  0.3415
  254loPI    C2 4050  13.745  18.089   9.460 -0.1415  0.2851  0.3193
  254loPI    C3 4051  13.815  17.968   9.835 -0.0365 -0.0005  0.2103
  254loPI   PO4 4052  13.187  17.927   9.653 -0.0766  0.4268 -0.0256
  254loPI   GL1 4053  13.024  17.744   9.395  0.1214 -0.3998 -0.0536
  254loPI   GL2 4054  12.766  17.923   9.364  0.0436 -0.2206 -0.3025
  254loPI   C1A 4055  12.896  17.687   8.923 -0.0104 -0.0008 -0.0011
  254loPI   C2A 4056  12.835  17.528   8.487 -0.0787 -0.0874  0.0586
  254loPI   C3A 4057  12.927  17.300   8.191  0.0720  0.2855  0.1103
  254loPI   C4A 4058  13.166  17.236   7.909  0.0273  0.3581  0.1107
  254loPI   C5A 4059  13.571  17.234   7.846 -0.2280  0.0603 -0.1999
  254loPI   C6A 4060  13.852  17.317   7.516  0.0271 -0.0617  0.1929
  254loPI   C1B 4061  12.967  18.164   9.050  0.0671  0.2051 -0.1107
  254loPI   C2B 4062  13.015  18.004   8.586  0.0622  0.0498  0.0589
  254loPI   C3B 4063  12.916  17.943   8.141  0.0411 -0.0270  0.0565
  254loPI   C4B 4064  12.902  18.167   7.758  0.0728 -0.1063 -0.1849
  255loPI    C1 4065  17.640  13.020   9.992  0.0928  0.1287  0.1001
  255loPI    C2 4066  17.860  13.204  10.271  0.3230 -0.1561  0.1114
  255loPI    C3 4067  17.536  12.995  10.377  0.2117  0.0210  0.1256
  255loPI   PO4 4068  17.820  12.819   9.825  0.4621  0.3200  0.1329
  255loPI   GL1 4069  17.872  13.101   9.492 -0.2691  0.0674  0.1805
  255loPI   GL2 4070  17.721  13.182   9.342 -0.0695 -0.0759 -0.0886
  255loPI   C1A 4071  18.083  13.009   9.077  0.0274 -0.1609 -0.0583
  255loPI   C2A 4072  18.115  12.931   8.653 -0.4988 -0.0955  0.0786
  255loPI   C3A 4073  17.938  13.002   8.311 -0.1063  0.2247  0.4133
  255loPI   C4A 4074  17.920  13.309   8.065  0.2264  0.3521 -0.0041
  255loPI   C5A 4075  17.971  13.516   7.665 -0.1346  0.1455  0.3058
  255loPI   C6A 4076  17.993  13.560   7.163  0.1384  0.0771 -0.2099
  255loPI   C1B 4077  17.753  13.319   8.923 -0.0431  0.1687  0.1369
  255loPI   C2B 4078  17.606  13.362   8.491  0.1014 -0.0129  0.0884
  255loPI   C3B 4079  17.162  13.443   8.319  0.1797  0.0025  0.0771
  255loPI   C4B 4080  16.946  13.693   8.034 -0.0095  0.3232 -0.1347
  256loPI    C1 4081   9.390   0.359   9.922 -0.0953 -0.1111 -0.0639
  256loPI    C2 4082   9.089   0.486  10.154 -0.0471 -0.1827  0.0389
  256loPI    C3 4083   9.371   0.247  10.306  0.2078  0.0974  0.0154
  256loPI   PO4 4084   9.297   0.302   9.699 -0.1229  0.0771 -0.1175
  256loPI   GL1 4085   9.480   0.453   9.310  0.1221 -0.0696 -0.0369
  256loPI   GL2 4086   9.469   0.169   9.198  0.0552  0.2570 -0.0827
  256loPI   C1A 4087   9.591   0.772   9.054 -0.2072 -0.1964 -0.0952
  256loPI   C2A 4088   9.833   0.997   8.723  0.0627 -0.1058 -0.4502
  256loPI   C3A 4089  10.005   1.038   8.369  0.1206 -0.0791  0.1430
  256loPI   C4A 4090  10.286   0.924   8.011  0.0158 -0.0176  0.2017
  256loPI   C5A 4091  10.427   0.629   7.678  0.0115 -0.2668  0.1697
  256loPI   C6A 4092  10.835   0.426   7.508 -0.2838  0.0689 -0.2837
  256loPI   C1B 4093   9.523   0.230   8.849 -0.3691  0.1958  0.0815
  256loPI   C2B 4094   9.689   0.527   8.652 -0.4786 -0.2301 -0.1875
  256loPI   C3B 4095   9.670   0.752   8.202 -0.1670 -0.1353 -0.3243
  256loPI   C4B 4096   9.749   1.091   7.959  0.1313  0.1430  0.0629
  257loPI    C1 4097   9.111  18.314   9.818  0.2194 -0.2652 -0.2100
  257loPI    C2 4098   9.105  18.353  10.217 -0.1269 -0.0479 -0.2321
  257loPI    C3 4099   9.455  18.342  10.022  0.0408  0.0687  0.0561
  257loPI   PO4 4100   8.818  18.192   9.699  0.1125 -0.1626  0.0966
  257loPI   GL1 4101   8.696  18.082   9.311 -0.2450 -0.2057  0.1900
  257loPI   GL2 4102   8.642  18.288   9.158 -0.3503 -0.2651  0.2388
  257loPI   C1A 4103   8.873  17.858   9.009  0.0134 -0.1225 -0.0711
  257loPI   C2A 4104   8.960  17.864   8.537 -0.0878  0.0299  0.3987
  257loPI   C3A 4105   8.945  17.837   8.018  0.2417  0.0883 -0.1331
  257loPI   C4A 4106   8.760  17.735   7.594  0.0576  0.0327  0.2772
  257loPI   C5A 4107   8.477  17.557   7.239 -0.1365  0.2186  0.0307
  257loPI   C6A 4108   8.078  17.411   7.362  0.2119  0.2924  0.0974
  257loPI   C1B 4109   8.560  18.235   8.759 -0.2651  0.2102  0.1440
  257loPI   C2B 4110   8.523  18.154   8.256 -0.0705 -0.1500 -0.0524
  257loPI   C3B 4111   8.525  18.162   7.832  0.0564 -0.1290  0.0733
  257loPI   C4B 4112   8.619  18.226   7.395  0.0938  0.2595 -0.0014
  258loPI    C1 4113  13.050   4.399  10.201 -0.1061 -0.1286 -0.1578
  258loPI    C2 4114  13.194   4.498  10.561  0.0851 -0.0073 -0.2657
  258loPI    C3 4115  12.848   4.654  10.434 -0.1418 -0.2891 -0.0109
  258loPI   PO4 4116  13.196   4.432  10.025 -0.1693  0.1801 -0.0060
  258loPI   GL1 4117  13.133   4.368   9.693 -0.1149  0.2218  0.5177
  258loPI   GL2 4118  12.967   4.125   9.570 -0.0207 -0.0590  0.2801
  258loPI   C1A 4119  13.292   4.296   9.222 -0.2062 -0.1334 -0.1355
  258loPI   C2A 4120  13.440   4.250   8.746  0.1662 -0.1074 -0.0445
  258loPI   C3A 4121  13.342   4.339   8.330 -0.0706  0.3536  0.2243
  258loPI   C4A 4122  13.112   4.132   8.080  0.0138  0.1736  0.2926
  258loPI   C5A 4123  12.867   3.782   8.286 -0.0420 -0.1078  0.0057
  258loPI   C6A 4124  12.631   3.537   8.566  0.0401  0.1569 -0.1260
  258loPI   C1B 4125  12.857   4.096   9.110  0.4868  0.1087 -0.1487
  258loPI   C2B 4126  12.527   4.005   8.726  0.0005 -0.0540 -0.0896
  258loPI   C3B 4127  12.549   4.135   8.305 -0.2115  0.0725 -0.2311
  258loPI   C4B 4128  12.590   3.892   7.830 -0.1163  0.1846  0.1414
  259loPI    C1 4129  13.388  10.070  10.249  0.0243 -0.0171 -0.1465
  259loPI    C2 4130  13.282   9.779  10.502 -0.0635 -0.0687 -0.2420
  259loPI    C3 4131  13.581  10.027  10.597 -0.1946  0.0064 -0.0206
  259loPI   PO4 4132  13.346   9.899  10.010 -0.0974  0.1180  0.0351
  259loPI   GL1 4133  13.521   9.882   9.602  0.0346 -0.0402 -0.0345
  259loPI   GL2 4134  13.732  10.146   9.558 -0.1608  0.0457 -0.2144
  259loPI   C1A 4135  13.543   9.449   9.501  0.1104 -0.3112 -0.0952
  259loPI   C2A 4136  13.306   9.150   9.200  0.1178 -0.1068  0.1309
  259loPI   C3A 4137  13.309   9.038   8.764 -0.1438  0.3120 -0.0491
  259loPI   C4A 4138  13.609   8.887   8.345  0.1078  0.0999 -0.2352
  259loPI   C5A 4139  13.403   8.782   7.999 -0.1047 -0.1062  0.1074
  259loPI   C6A 4140  13.315   8.997   7.615 -0.0991 -0.1534  0.1383
  259loPI   C1B 4141  13.796  10.263   9.204 -0.2089  0.1501 -0.0382
  259loPI   C2B 4142  13.904  10.221   8.717 -0.2696 -0.0349  0.2066
  259loPI   C3B 4143  13.793  10.101   8.376 -0.0058 -0.1213  0.0888
  259loPI   C4B 4144  13.921   9.710   8.054  0.2780 -0.3918  0.1020
  260loPI    C1 4145   9.951   7.039  10.326 -0.0664  0.0445  0.0257
  260loPI    C2 4146   9.879   6.804  10.641  0.0019  0.1548  0.1247
  260loPI    C3 4147   9.601   7.065  10.519 -0.1327 -0.0782 -0.0770
  260loPI   PO4 4148  10.231   6.859  10.175  0.2270 -0.1508  0.0588
  260loPI   GL1 4149  10.281   6.738   9.777  0.1859 -0.3439  0.0704
  260loPI   GL2 4150  10.086   6.507   9.773  0.0263  0.1290 -0.0315
  260loPI   C1A 4151  10.159   6.922   9.425  0.1575  0.1933  0.1300
  260loPI   C2A 4152  10.049   6.960   9.080 -0.0109  0.2056  0.1094
  260loPI   C3A 4153  10.099   6.927   8.695 -0.0454  0.0255 -0.1398
  260loPI   C4A 4154  10.255   6.917   8.289 -0.2008  0.1871 -0.0136
  260loPI   C5A 4155  10.015   6.707   7.966  0.0939 -0.2767  0.1634
  260loPI   C6A 4156   9.912   6.845   7.639  0.0588  0.0068  0.2257
  260loPI   C1B 4157   9.736   6.478   9.549  0.3732 -0.0684 -0.1511
  260loPI   C2B 4158   9.772   6.537   9.163 -0.4573 -0.0794  0.0577
  260loPI   C3B 4159   9.637   6.676   8.786  0.0803 -0.0549  0.1588
  260loPI   C4B 4160   9.893   6.543   8.405 -0.0424 -0.5046  0.0175
  261loPI    C1 4161  17.856   2.905  10.082 -0.2704 -0.0563 -0.1652
  261loPI    C2 4162  17.952   2.930  10.469 -0.0225  0.4640 -0.2531
  261loPI    C3 4163  17.928   2.572  10.292 -0.1923  0.2171  0.2516
  261loPI   PO4 4164  17.908   3.183  10.013 -0.1988 -0.0806  0.4636
  261loPI   GL1 4165  17.924   3.330   9.665  0.0879  0.3420  0.1246
  261loPI   GL2 4166  17.985   3.002   9.474 -0.0747 -0.0219 -0.0613
  261loPI   C1A 4167  17.859   3.626   9.301 -0.1253  0.0139  0.2925
  261loPI   C2A 4168  17.923   3.727   8.963 -0.2679 -0.2583 -0.0297
  261loPI   C3A 4169  17.837   3.678   8.549  0.1795  0.2127  0.1088
  261loPI   C4A 4170  17.696   3.842   8.151 -0.0203 -0.0652  0.2391
  261loPI   C5A 4171  17.630   3.620   7.772  0.1020 -0.1528 -0.1261
  261loPI   C6A 4172  17.403   3.663   7.437 -0.0361  0.0584 -0.2046
  261loPI   C1B 4173  18.074   3.169   9.156 -0.1420 -0.1617 -0.0369
  261loPI   C2B 4174  18.282   3.249   8.758  0.2439  0.2379  0.1407
  261loPI   C3B 4175  18.287   3.549   8.411 -0.2402  0.0412 -0.0102
  261loPI   C4B 4176  18.182   3.829   8.185  0.1136 -0.1575 -0.4721
  262loPI    C1 4177   4.910   7.657  10.139 -0.1861  0.1836 -0.0050
  262loPI    C2 4178   4.629   7.914  10.262 -0.1176  0.1549  0.2158
  262loPI    C3 4179   4.963   7.866  10.476 -0.0616 -0.0058  0.0945
  262loPI   PO4 4180   4.870   7.707   9.784  0.1672 -0.2266 -0.5859
  262loPI   GL1 4181   4.668   7.855   9.409 -0.0298  0.1297  0.1483
  262loPI   GL2 4182   5.015   7.800   9.310 -0.0850 -0.0235 -0.4182
  262loPI   C1A 4183   4.443   7.965   8.971 -0.1740 -0.3006  0.1199
  262loPI   C2A 4184   4.308   8.093   8.636  0.1500 -0.0270  0.1404
  262loPI   C3A 4185   4.154   8.181   8.248 -0.2302  0.0767 -0.2048
  262loPI   C4A 4186   4.108   8.171   7.944  0.2061  0.1652  0.2122
  262loPI   C5A 4187   3.935   8.051   7.610 -0.0839 -0.0794  0.2936
  262loPI   C6A 4188   4.171   7.903   7.243 -0.2228  0.2769 -0.2061
  262loPI   C1B 4189   5.235   8.007   8.874 -0.0444 -0.1226 -0.1946
  262loPI   C2B 4190   5.209   8.031   8.483  0.4746  0.0443 -0.2417
  262loPI   C3B 4191   5.103   7.954   7.949 -0.2378 -0.1890  0.0628
  262loPI   C4B 4192   4.801   7.710   7.719  0.1306 -0.1776  0.3508
  263loPI    C1 4193  18.159   5.034  10.514  0.0547 -0.2081  0.0783
  263loPI    C2 4194  17.963   5.366  10.623  0.0190 -0.2376  0.1046
  263loPI    C3 4195  17.991   5.057  10.876  0.4706 -0.0698  0.2687
  263loPI   PO4 4196  18.153   5.008  10.278 -0.0447  0.2638  0.2756
  263loPI   GL1 4197  18.043   5.396  10.122  0.3327  0.4085 -0.0946
  263loPI   GL2 4198  17.890   5.727  10.105 -0.0791 -0.2311  0.0782
  263loPI   C1A 4199  17.841   5.344   9.639 -0.3130  0.0343 -0.0859
  263loPI   C2A 4200  17.834   5.567   9.200 -0.0235  0.3646 -0.0567
  263loPI   C3A 4201  17.850   5.612   8.778 -0.0547 -0.0610 -0.3095
  263loPI   C4A 4202  17.845   5.479   8.399 -0.4001 -0.1866 -0.2677
  263loPI   C5A 4203  17.574   5.638   8.060  0.2697  0.4152 -0.0015
  263loPI   C6A 4204  17.711   6.062   8.062  0.0357  0.0738 -0.1746
  263loPI   C1B 4205  18.078   5.819   9.656  0.0130  0.0407 -0.0150
  263loPI   C2B 4206  18.174   5.927   9.341  0.1064  0.1362  0.0047
  263loPI   C3B 4207  18.047   5.987   8.991  0.1590  0.1643 -0.0060
  263loPI   C4B 4208  18.011   5.984   8.477  0.3111  0.0750  0.1323
  264loPI    C1 4209  12.406   8.463  10.352  0.0345  0.1471  0.0950
  264loPI    C2 4210  12.734   8.553  10.564  0.1224  0.0806 -0.0115
  264loPI    C3 4211  12.382   8.718  10.659  0.1397 -0.0297  0.2523
  264loPI   PO4 4212  12.369   8.176  10.370 -0.1949 -0.0615  0.0411
  264loPI   GL1 4213  12.336   7.924   9.955 -0.1763  0.3545 -0.1210
  264loPI   GL2 4214  12.417   7.567   9.816  0.0768 -0.0183 -0.3020
  264loPI   C1A 4215  12.279   8.059   9.581  0.0669 -0.2460  0.1308
  264loPI   C2A 4216  12.609   8.317   9.399 -0.0956 -0.0181 -0.0122
  264loPI   C3A 4217  12.714   8.269   8.963  0.0036 -0.0392  0.1308
  264loPI   C4A 4218  12.793   8.260   8.459  0.2169 -0.0890 -0.0242
  264loPI   C5A 4219  12.645   8.072   8.112  0.0765 -0.1714  0.0957
  264loPI   C6A 4220  12.542   7.955   7.663 -0.3101 -0.3546  0.0869
  264loPI   C1B 4221  12.564   7.331   9.446 -0.2710  0.1026 -0.0064
  264loPI   C2B 4222  12.627   7.260   9.025  0.0503 -0.1130 -0.0359
  264loPI   C3B 4223  12.576   7.244   8.650  0.0639 -0.0369  0.0019
  264loPI   C4B 4224  12.532   7.111   8.241 -0.2009  0.1121 -0.0780
  265loPI    C1 4225  17.675   6.299  10.357  0.0812  0.3136 -0.2918
  265loPI    C2 4226  17.344   6.472  10.501  0.0844  0.1724 -0.1095
  265loPI    C3 4227  17.632   6.353  10.751  0.1421  0.0258 -0.2434
  265loPI   PO4 4228  17.573   6.050  10.227  0.1945  0.0659  0.2496
  265loPI   GL1 4229  17.647   6.115   9.815 -0.1182 -0.0863 -0.1119
  265loPI   GL2 4230  17.841   6.286   9.888  0.1947 -0.1059  0.0240
  265loPI   C1A 4231  17.613   5.970   9.412  0.2684 -0.3657 -0.1125
  265loPI   C2A 4232  17.487   6.083   9.029  0.1050 -0.0375 -0.1718
  265loPI   C3A 4233  17.661   6.306   8.828 -0.1157 -0.1585 -0.3451
  265loPI   C4A 4234  17.632   6.384   8.489  0.0504  0.2251  0.3841
  265loPI   C5A 4235  17.512   6.505   8.101  0.0321 -0.1791 -0.0517
  265loPI   C6A 4236  17.058   6.452   7.919  0.3203  0.2268  0.1597
  265loPI   C1B 4237  17.907   6.343   9.426  0.1984  0.2292 -0.0870
  265loPI   C2B 4238  18.114   6.515   9.071  0.1245 -0.1445 -0.1839
  265loPI   C3B 4239  18.086   6.542   8.649  0.0384  0.0382 -0.1938
  265loPI   C4B 4240  18.039   6.802   8.401 -0.1013  0.0947 -0.1603
  266loPI    C1 4241  13.120  12.334  10.094  0.0375  0.1217  0.0522
  266loPI    C2 4242  12.891  12.576   9.872 -0.2276 -0.0783  0.1023
  266loPI    C3 4243  12.908  12.625  10.269 -0.2420 -0.1100  0.1068
  266loPI   PO4 4244  13.330  12.386   9.914  0.0323 -0.0048  0.0023
  266loPI   GL1 4245  13.360  12.379   9.599 -0.0575 -0.1904 -0.2882
  266loPI   GL2 4246  13.464  12.144   9.487 -0.3605  0.2511 -0.1122
  266loPI   C1A 4247  13.526  12.509   9.183 -0.1068  0.0634  0.2331
  266loPI   C2A 4248  13.495  12.496   8.756  0.1543 -0.1489 -0.0954
  266loPI   C3A 4249  13.481  12.554   8.314  0.2866 -0.1542  0.0645
  266loPI   C4A 4250  13.525  12.560   7.946 -0.1554  0.0254  0.2203
  266loPI   C5A 4251  13.538  12.851   7.550  0.3095 -0.1115 -0.0821
  266loPI   C6A 4252  13.631  12.970   7.140  0.0248 -0.0429  0.2742
  266loPI   C1B 4253  13.715  12.001   9.196 -0.3316  0.2226 -0.1673
  266loPI   C2B 4254  13.748  11.926   8.735  0.0132  0.1981 -0.2355
  266loPI   C3B 4255  13.791  11.942   8.310  0.1225  0.1109 -0.0462
  266loPI   C4B 4256  13.705  12.003   7.957 -0.0744  0.1312  0.2171
  267loPI    C1 4257   4.176   1.827  10.416  0.0388  0.1978  0.1452
  267loPI    C2 4258   3.850   2.037  10.515 -0.2297 -0.1675  0.0531
  267loPI    C3 4259   3.817   1.652  10.408  0.2277 -0.1962 -0.0068
  267loPI   PO4 4260   4.294   2.019  10.249  0.0933  0.0226  0.1500
  267loPI   GL1 4261   4.403   2.299   9.849 -0.3338  0.0348  0.0277
  267loPI   GL2 4262   4.095   2.430   9.692 -0.2741  0.1495  0.3781
  267loPI   C1A 4263   4.632   2.378   9.458 -0.1005 -0.0731 -0.3113
  267loPI   C2A 4264   4.813   2.328   9.173 -0.1618 -0.1405  0.0934
  267loPI   C3A 4265   5.114   2.340   8.797  0.1625 -0.0905 -0.2076
  267loPI   C4A 4266   5.229   2.297   8.475  0.3154 -0.0910 -0.1772
  267loPI   C5A 4267   5.214   2.330   8.097 -0.0348  0.4323  0.1852
  267loPI   C6A 4268   5.299   2.080   7.820  0.2301  0.1177  0.0508
  267loPI   C1B 4269   4.245   2.178   9.271 -0.0808  0.1498  0.1554
  267loPI   C2B 4270   4.164   2.268   8.830  0.1859  0.1859 -0.0365
  267loPI   C3B 4271   4.129   2.193   8.364 -0.0514  0.1331  0.1131
  267loPI   C4B 4272   4.225   2.243   7.866 -0.1971 -0.1853 -0.3292
  268loPI    C1 4273  10.460   6.064  10.426 -0.0263  0.1528  0.0013
  268loPI    C2 4274  10.204   6.291  10.634  0.0252  0.0819  0.1435
  268loPI    C3 4275  10.344   5.951  10.792 -0.1999 -0.1504 -0.1434
  268loPI   PO4 4276  10.315   6.226  10.114  0.0890 -0.0270 -0.2184
  268loPI   GL1 4277  10.428   6.108   9.733 -0.1568 -0.1956  0.2678
  268loPI   GL2 4278  10.655   6.042   9.519  0.0241 -0.2310 -0.3181
  268loPI   C1A 4279  10.371   6.406   9.365  0.0305  0.1980 -0.1546
  268loPI   C2A 4280  10.305   6.489   8.923 -0.1887 -0.2306  0.2016
  268loPI   C3A 4281  10.436   6.447   8.476  0.2958  0.0333 -0.4261
  268loPI   C4A 4282  10.587   6.475   8.108 -0.0456 -0.0574  0.0290
  268loPI   C5A 4283  10.660   6.889   7.789 -0.4246  0.1892  0.0282
  268loPI   C6A 4284  10.679   6.796   7.383  0.1760  0.1263  0.0170
  268loPI   C1B 4285  10.618   5.978   9.155  0.0890 -0.1991  0.1234
  268loPI   C2B 4286  10.514   5.876   8.671  0.2147 -0.3402  0.0342
  268loPI   C3B 4287  10.514   6.017   8.266  0.1239 -0.1927 -0.0617
  268loPI   C4B 4288  10.401   5.975   7.734 -0.3872 -0.0713  0.0922
  269loPI    C1 4289   6.230  11.712   9.417 -0.0583  0.0195  0.0480
  269loPI    C2 4290   6.286  11.348   9.574  0.0941 -0.0017 -0.0528
  269loPI    C3 4291   6.587  11.611   9.566  0.0941 -0.0072 -0.3235
  269loPI   PO4 4292   5.907  11.689   9.422 -0.0240  0.1071 -0.0351
  269loPI   GL1 4293   5.616  11.901   9.195 -0.2077  0.1930  0.0112
  269loPI   GL2 4294   5.493  11.582   9.153  0.1540  0.0127  0.1205
  269loPI   C1A 4295   5.641  12.136   8.825 -0.2530 -0.1008 -0.1918
  269loPI   C2A 4296   5.696  12.106   8.457 -0.0691 -0.0257  0.1977
  269loPI   C3A 4297   5.657  11.978   8.086  0.2266 -0.0700  0.0739
  269loPI   C4A 4298   5.664  12.285   7.778  0.2267  0.0581 -0.0409
  269loPI   C5A 4299   5.245  12.499   7.672 -0.1550 -0.0792  0.0506
  269loPI   C6A 4300   5.131  12.852   7.743 -0.1831  0.0914 -0.0504
  269loPI   C1B 4301   5.249  11.838   8.709 -0.1178  0.3401  0.1523
  269loPI   C2B 4302   5.178  11.778   8.290  0.3414  0.4550 -0.1376
  269loPI   C3B 4303   5.308  11.641   7.853 -0.4658 -0.1927 -0.0228
  269loPI   C4B 4304   5.679  11.724   7.616  0.1638 -0.1057 -0.0029
  270loPI    C1 4305  10.928  15.047  10.219 -0.1881 -0.2059 -0.0092
  270loPI    C2 4306  11.191  14.746  10.205 -0.1712 -0.1897 -0.0449
  270loPI    C3 4307  11.212  15.017  10.499  0.0516 -0.0062 -0.2261
  270loPI   PO4 4308  10.910  15.134  10.011  0.2624 -0.0410 -0.1428
  270loPI   GL1 4309  11.033  15.337   9.582 -0.0598 -0.0456 -0.0453
  270loPI   GL2 4310  11.275  15.154   9.300  0.1748  0.1027  0.0231
  270loPI   C1A 4311  10.933  15.379   9.055  0.0953  0.1930 -0.1710
  270loPI   C2A 4312  10.678  15.333   8.717 -0.3237  0.1632  0.1352
  270loPI   C3A 4313  10.774  15.333   8.338  0.3336  0.1330 -0.0400
  270loPI   C4A 4314  10.700  15.434   7.897 -0.0415 -0.2201  0.1508
  270loPI   C5A 4315  10.278  15.468   7.553  0.1836  0.0440  0.2419
  270loPI   C6A 4316  10.065  15.744   7.356 -0.1752 -0.2955  0.0719
  270loPI   C1B 4317  11.365  15.211   8.943 -0.1281 -0.3985  0.1507
  270loPI   C2B 4318  11.241  15.222   8.480 -0.1213 -0.1989  0.1987
  270loPI   C3B 4319  11.252  15.524   8.064 -0.0372  0.2587  0.0319
  270loPI   C4B 4320  11.181  15.576   7.592 -0.1731  0.3592 -0.0402
  271loPI    C1 4321   7.308  18.757   9.897  0.0042 -0.0542  0.0071
  271loPI    C2 4322   7.260  18.464  10.165  0.1525 -0.1686 -0.0892
  271loPI    C3 4323   7.300  18.843  10.287 -0.0789 -0.1823  0.0341
  271loPI   PO4 4324   7.488  18.709   9.735 -0.0125 -0.0852  0.0093
  271loPI   GL1 4325   7.501  18.830   9.291 -0.0289 -0.1709 -0.1129
  271loPI   GL2 4326   7.262  18.585   9.281 -0.1304 -0.1237 -0.0330
  271loPI   C1A 4327   7.510  18.822   8.886  0.1278  0.0037  0.0401
  271loPI   C2A 4328   7.591  19.008   8.547  0.0154  0.1648  0.1529
  271loPI   C3A 4329   7.428  18.927   8.168  0.1901  0.1918 -0.1755
  271loPI   C4A 4330   7.393  18.771   7.802  0.1066 -0.0044 -0.1226
  271loPI   C5A 4331   7.301  18.808   7.396 -0.2326 -0.0722  0.1260
  271loPI   C6A 4332   6.935  18.728   7.201  0.3245  0.0886 -0.0624
  271loPI   C1B 4333   7.039  18.503   8.919 -0.0861  0.0542 -0.0177
  271loPI   C2B 4334   7.223  18.515   8.497 -0.1338 -0.1155 -0.3178
  271loPI   C3B 4335   7.119  18.463   8.075 -0.1738 -0.0849  0.0588
  271loPI   C4B 4336   6.968  18.481   7.675  0.1606 -0.1543 -0.1917
  272loPI    C1 4337   4.605  10.156   9.838 -0.1724 -0.0374 -0.1818
  272loPI    C2 4338   4.962  10.331   9.881 -0.2928  0.1843 -0.0657
  272loPI    C3 4339   4.807  10.115  10.180 -0.2835  0.1389 -0.0935
  272loPI   PO4 4340   4.612  10.098   9.589  0.1003 -0.2383 -0.3367
  272loPI   GL1 4341   4.615  10.065   9.133 -0.0448  0.1641 -0.0609
  272loPI   GL2 4342   4.896  10.275   8.947  0.2627  0.1855 -0.0411
  272loPI   C1A 4343   4.627  10.028   8.576 -0.2357 -0.2781  0.1145
  272loPI   C2A 4344   4.849  10.236   8.190 -0.0983  0.3042  0.1113
  272loPI   C3A 4345   4.804  10.181   7.824 -0.1994 -0.4135 -0.2624
  272loPI   C4A 4346   5.090  10.242   7.406  0.1041 -0.0039  0.0080
  272loPI   C5A 4347   5.346  10.614   7.338 -0.0431  0.0580 -0.0921
  272loPI   C6A 4348   5.068  11.015   7.231 -0.2358 -0.0343 -0.1468
  272loPI   C1B 4349   5.102  10.359   8.560  0.0707  0.1781 -0.0159
  272loPI   C2B 4350   5.258  10.518   8.160 -0.1373 -0.1018 -0.2177
  272loPI   C3B 4351   5.290  10.789   7.810  0.2011  0.1626 -0.3481
  272loPI   C4B 4352   5.543  11.146   7.661  0.3586 -0.1557  0.1283
  273loPI    C1 4353  11.711   1.261  10.028  0.1054  0.0975 -0.0257
  273loPI    C2 4354  11.743   1.507  10.342  0.0261 -0.1557  0.1848
  273loPI    C3 4355  12.065   1.310  10.209  0.1173  0.1507 -0.0628
  273loPI   PO4 4356  11.617   1.373   9.831  0.0546 -0.0335  0.0816
  273loPI   GL1 4357  11.523   1.605   9.504 -0.2628 -0.0314 -0.0516
  273loPI   GL2 4358  11.764   1.796   9.479  0.3118 -0.0082 -0.0057
  273loPI   C1A 4359  11.348   1.526   9.126 -0.1140  0.1176  0.0549
  273loPI   C2A 4360  11.142   1.628   8.605  0.0721 -0.0742  0.1618
  273loPI   C3A 4361  11.082   1.762   8.206 -0.1734 -0.0687 -0.2817
  273loPI   C4A 4362  11.030   1.876   7.830  0.1787 -0.1106  0.1507
  273loPI   C5A 4363  10.596   2.087   7.685 -0.0481  0.1916 -0.0284
  273loPI   C6A 4364  10.190   2.388   7.661 -0.3770 -0.1237  0.2395
  273loPI   C1B 4365  11.617   1.994   9.140 -0.0305  0.4984 -0.1284
  273loPI   C2B 4366  11.366   2.082   8.847  0.4820  0.0379 -0.1353
  273loPI   C3B 4367  11.098   2.193   8.479 -0.0930  0.0747  0.2716
  273loPI   C4B 4368  10.792   2.235   8.157 -0.3629  0.1169 -0.1682
  274loPI    C1 4369  18.182  15.540  10.351  0.0789  0.1386 -0.0832
  274loPI    C2 4370  18.452  15.567  10.645  0.0747 -0.0448 -0.0609
  274loPI    C3 4371  18.074  15.466  10.729  0.0545 -0.0186 -0.1200
  274loPI   PO4 4372  18.231  15.364  10.064  0.1897  0.0564  0.0547
  274loPI   GL1 4373  18.292  15.394   9.626  0.1134 -0.0910  0.0969
  274loPI   GL2 4374  18.619  15.423   9.721 -0.2706 -0.2724 -0.0123
  274loPI   C1A 4375  18.197  15.315   9.248 -0.2390  0.1628 -0.2484
  274loPI   C2A 4376  18.009  15.713   8.897  0.1450  0.3567  0.2589
  274loPI   C3A 4377  18.120  15.938   8.560  0.0071 -0.0289  0.0959
  274loPI   C4A 4378  18.069  16.124   8.191 -0.1615  0.0474  0.3261
  274loPI   C5A 4379  17.743  16.244   8.050 -0.1912  0.0685 -0.3055
  274loPI   C6A 4380  17.463  16.478   7.847  0.0323 -0.2994 -0.0191
  274loPI   C1B 4381  18.710  15.533   9.329  0.0367 -0.0647  0.0096
  274loPI   C2B 4382  18.532  15.583   8.901  0.1574  0.0979  0.1689
  274loPI   C3B 4383  18.475  15.588   8.501 -0.1918 -0.0026  0.1547
  274loPI   C4B 4384  18.434  15.748   8.108 -0.1404  0.0177  0.1413
  275loPI    C1 4385   2.918   5.512   9.827 -0.0066 -0.0326  0.0305
  275loPI    C2 4386   3.247   5.454  10.046 -0.1194 -0.3340  0.1247
  275loPI    C3 4387   2.888   5.454  10.221 -0.1815 -0.1497  0.0006
  275loPI   PO4 4388   2.859   5.353   9.567  0.2221  0.2805 -0.3294
  275loPI   GL1 4389   2.728   5.095   9.321 -0.1663 -0.1711  0.0126
  275loPI   GL2 4390   3.091   5.247   9.208 -0.0036  0.2646  0.1777
  275loPI   C1A 4391   2.539   4.875   8.950 -0.0713 -0.1051 -0.0029
  275loPI   C2A 4392   2.476   4.608   8.530 -0.1163  0.2185  0.2060
  275loPI   C3A 4393   2.253   4.377   8.097 -0.0337  0.0968 -0.0663
  275loPI   C4A 4394   1.956   4.137   7.916 -0.0180 -0.3444  0.1635
  275loPI   C5A 4395   1.834   3.999   7.517 -0.3306  0.0099 -0.1702
  275loPI   C6A 4396   1.722   3.591   7.432 -0.0989  0.1301  0.3589
  275loPI   C1B 4397   2.972   5.087   8.804  0.1432 -0.1493 -0.0688
  275loPI   C2B 4398   2.784   4.965   8.381  0.0928 -0.2475  0.2510
  275loPI   C3B 4399   2.666   4.664   8.004  0.0153  0.2498 -0.1034
  275loPI   C4B 4400   2.469   4.391   7.651  0.0916 -0.2100 -0.2626
  276loPI    C1 4401  13.368  17.758  10.086  0.1904 -0.1648 -0.0623
  276loPI    C2 4402  13.682  17.795  10.331 -0.1261 -0.0888  0.3449
  276loPI    C3 4403  13.466  18.117  10.232  0.0122 -0.1152 -0.0610
  276loPI   PO4 4404  13.457  17.586   9.909  0.2352  0.0309  0.1864
  276loPI   GL1 4405  13.711  17.361   9.546  0.0727 -0.1085 -0.0402
  276loPI   GL2 4406  13.514  17.544   9.410 -0.2548 -0.1332 -0.0054
  276loPI   C1A 4407  13.853  17.284   9.171 -0.2016 -0.0268  0.0787
  276loPI   C2A 4408  13.701  17.426   8.782  0.0669  0.2007 -0.2903
  276loPI   C3A 4409  13.321  17.601   8.627 -0.2682 -0.1851 -0.1962
  276loPI   C4A 4410  13.351  17.551   8.146 -0.0618 -0.1463 -0.0682
  276loPI   C5A 4411  13.274  17.709   7.678  0.0096  0.1061 -0.2347
  276loPI   C6A 4412  13.076  17.787   7.297 -0.1113  0.0843  0.1405
  276loPI   C1B 4413  13.407  17.791   9.104  0.0187 -0.1615  0.0486
  276loPI   C2B 4414  13.609  17.994   8.751 -0.0586  0.0415 -0.1756
  276loPI   C3B 4415  13.595  17.987   8.308  0.0463  0.3881  0.0656
  276loPI   C4B 4416  13.385  18.135   8.132  0.3409  0.0043  0.2070
  277loPI    C1 4417   9.897  13.479   9.805 -0.2286 -0.0898 -0.1108
  277loPI    C2 4418   9.772  13.484  10.185 -0.1669  0.0655 -0.0920
  277loPI    C3 4419   9.783  13.823   9.973 -0.1548 -0.0127 -0.2175
  277loPI   PO4 4420   9.722  13.375   9.699  0.1758 -0.0745  0.0150
  277loPI   GL1 4421   9.524  13.086   9.494 -0.0514 -0.0727  0.1147
  277loPI   GL2 4422   9.450  13.329   9.270  0.1952 -0.3107 -0.3791
  277loPI   C1A 4423   9.662  12.790   9.139  0.2311 -0.2146 -0.1008
  277loPI   C2A 4424   9.741  12.591   8.736 -0.0860 -0.4812 -0.1218
  277loPI   C3A 4425   9.669  12.451   8.388  0.2695 -0.1700  0.0118
  277loPI   C4A 4426   9.777  12.624   7.966  0.2738 -0.0999  0.2926
  277loPI   C5A 4427   9.772  12.939   7.845  0.0757 -0.0566  0.0470
  277loPI   C6A 4428   9.677  13.271   7.670 -0.1407 -0.1690  0.2536
  277loPI   C1B 4429   9.734  13.383   8.981  0.0070 -0.1840  0.0128
  277loPI   C2B 4430   9.872  13.068   8.783  0.1500  0.0992 -0.0096
  277loPI   C3B 4431   9.925  12.990   8.359 -0.0509  0.0674 -0.2107
  277loPI   C4B 4432  10.149  13.148   8.041 -0.3249 -0.1072 -0.2831
  278loPI    C1 4433   7.809   0.764  10.075  0.1820  0.0328 -0.0715
  278loPI    C2 4434   7.972   0.519  10.346  0.0748  0.0725  0.0296
  278loPI    C3 4435   7.574   0.545  10.313  0.0870  0.1030 -0.1001
  278loPI   PO4 4436   7.910   0.720   9.812 -0.3184  0.0191  0.1806
  278loPI   GL1 4437   7.947   0.970   9.468  0.0237 -0.0733  0.0937
  278loPI   GL2 4438   7.673   0.825   9.320  0.1064  0.1166  0.0289
  278loPI   C1A 4439   8.008   1.039   9.035 -0.3292 -0.0652 -0.0468
  278loPI   C2A 4440   7.972   0.978   8.601 -0.0004  0.0955  0.0459
  278loPI   C3A 4441   8.127   0.887   8.211  0.0971  0.1114  0.0456
  278loPI   C4A 4442   8.077   0.624   7.876 -0.0773 -0.3088  0.0623
  278loPI   C5A 4443   7.834   0.695   7.568  0.1569 -0.0151 -0.1046
  278loPI   C6A 4444   8.060   1.016   7.357  0.2762  0.2407 -0.4253
  278loPI   C1B 4445   7.526   0.850   8.910 -0.0918  0.0247  0.1469
  278loPI   C2B 4446   7.529   0.964   8.375 -0.2420 -0.0557  0.1733
  278loPI   C3B 4447   7.439   0.951   7.936  0.0989 -0.1111 -0.0540
  278loPI   C4B 4448   7.522   1.102   7.528 -0.1853 -0.0557  0.1530
  279loPI    C1 4449  11.554   0.553  10.057 -0.1435  0.1053 -0.1801
  279loPI    C2 4450  11.476   0.293   9.764 -0.0774  0.0221 -0.1242
  279loPI    C3 4451  11.564   0.160  10.132 -0.2698  0.1279 -0.0384
  279loPI   PO4 4452  11.674   0.762   9.927 -0.1301  0.2494  0.0800
  279loPI   GL1 4453  11.620   0.938   9.504 -0.1691  0.1250  0.0108
  279loPI   GL2 4454  11.726   0.631   9.395  0.1758 -0.2407  0.1436
  279loPI   C1A 4455  11.714   0.930   9.040  0.1524 -0.0671  0.2941
  279loPI   C2A 4456  11.738   1.074   8.614  0.1494  0.0496 -0.3514
  279loPI   C3A 4457  11.863   1.019   8.149  0.2741 -0.2500 -0.1371
  279loPI   C4A 4458  12.055   0.826   7.772 -0.2046 -0.0770 -0.0693
  279loPI   C5A 4459  12.175   0.441   7.454  0.0054 -0.1558 -0.3637
  279loPI   C6A 4460  12.162   0.183   7.137  0.2820  0.0995  0.2779
  279loPI   C1B 4461  11.875   0.436   9.089  0.0098  0.0239  0.1524
  279loPI   C2B 4462  12.109   0.228   8.813 -0.3300  0.0049 -0.1282
  279loPI   C3B 4463  12.191   0.096   8.462 -0.1163 -0.0000  0.1738
  279loPI   C4B 4464  12.297   0.107   7.994 -0.2692  0.0059  0.0755
  280loPI    C1 4465   1.848   2.610   9.932  0.0252 -0.3738  0.1497
  280loPI    C2 4466   1.827   2.587  10.331 -0.0215 -0.2123  0.1576
  280loPI    C3 4467   2.182   2.634  10.152 -0.0451  0.2049  0.2109
  280loPI   PO4 4468   1.722   2.868   9.874 -0.0423  0.1836  0.0092
  280loPI   GL1 4469   1.871   3.276   9.756  0.0542 -0.2763 -0.2487
  280loPI   GL2 4470   1.935   3.160   9.512  0.1269 -0.1636  0.1314
  280loPI   C1A 4471   1.963   3.688   9.524 -0.1024  0.0006  0.3084
  280loPI   C2A 4472   1.947   3.853   9.171 -0.1008 -0.2334  0.2303
  280loPI   C3A 4473   1.917   3.895   8.788  0.0146  0.0759 -0.0446
  280loPI   C4A 4474   1.801   3.967   8.386 -0.0653  0.0971  0.0021
  280loPI   C5A 4475   1.443   4.091   8.047 -0.0990 -0.1656  0.2620
  280loPI   C6A 4476   1.353   4.137   7.599 -0.0553 -0.2282  0.1497
  280loPI   C1B 4477   1.980   3.292   9.083 -0.0410  0.3016 -0.0338
  280loPI   C2B 4478   2.056   3.412   8.647 -0.0239 -0.2754  0.0977
  280loPI   C3B 4479   1.959   3.478   8.251  0.1402 -0.2599  0.1505
  280loPI   C4B 4480   1.800   3.686   7.935  0.3390 -0.1433 -0.5024
  281loPI    C1 4481   4.256   4.225  10.062  0.0087  0.0286  0.0397
  281loPI    C2 4482   4.459   3.888   9.994  0.0284  0.0775 -0.1494
  281loPI    C3 4483   4.154   3.889  10.252  0.1460 -0.0408 -0.0083
  281loPI   PO4 4484   4.145   4.301   9.788  0.1854 -0.0919  0.0668
  281loPI   GL1 4485   4.417   4.198   9.383 -0.0699 -0.4230  0.1257
  281loPI   GL2 4486   4.875   4.178   9.360  0.1672 -0.0748 -0.0810
  281loPI   C1A 4487   4.569   4.390   9.115  0.3374  0.0803  0.0194
  281loPI   C2A 4488   4.344   4.714   8.973  0.2398  0.0313  0.1569
  281loPI   C3A 4489   4.340   5.142   8.972  0.0809 -0.0287 -0.0683
  281loPI   C4A 4490   4.579   5.393   8.775 -0.0772  0.1361 -0.2233
  281loPI   C5A 4491   4.815   5.635   8.701  0.0847 -0.0939 -0.1389
  281loPI   C6A 4492   4.937   5.705   8.236 -0.0872 -0.2674  0.3053
  281loPI   C1B 4493   4.989   4.120   8.941  0.0004  0.0452 -0.1767
  281loPI   C2B 4494   4.750   4.198   8.542  0.2592  0.0766 -0.2893
  281loPI   C3B 4495   4.609   4.558   8.158  0.2874  0.0874 -0.3761
  281loPI   C4B 4496   4.510   4.946   7.963 -0.1660  0.1497 -0.1037
  282loPI    C1 4497   4.756  17.904   9.633 -0.4071 -0.1914  0.1102
  282loPI    C2 4498   5.080  17.686   9.718 -0.1802  0.0476 -0.1220
  282loPI    C3 4499   4.842  17.814  10.013  0.0907  0.1030  0.0764
  282loPI   PO4 4500   4.631  17.736   9.435 -0.3411 -0.4038  0.0569
  282loPI   GL1 4501   4.489  17.560   9.005 -0.1776 -0.1397  0.4007
  282loPI   GL2 4502   4.779  17.720   8.924  0.1357 -0.2795  0.1321
  282loPI   C1A 4503   4.400  17.411   8.554 -0.1308  0.3114  0.0392
  282loPI   C2A 4504   4.215  17.308   8.112 -0.0109  0.2253 -0.3228
  282loPI   C3A 4505   3.861  17.489   7.895 -0.0623  0.4357  0.2834
  282loPI   C4A 4506   3.542  17.651   7.558  0.1181 -0.1452 -0.0397
  282loPI   C5A 4507   3.537  18.080   7.459 -0.3472  0.2680 -0.3471
  282loPI   C6A 4508   3.406  18.486   7.277  0.3169  0.0389 -0.0512
  282loPI   C1B 4509   4.635  17.793   8.527  0.0947 -0.1963  0.0562
  282loPI   C2B 4510   4.473  17.746   8.133 -0.0675  0.1584 -0.1350
  282loPI   C3B 4511   4.421  17.726   7.785 -0.1644 -0.0426  0.0338
  282loPI   C4B 4512   4.245  17.954   7.396  0.0448 -0.1399  0.2321
  283loPI    C1 4513  15.808   7.452  10.037  0.2362  0.1152  0.1196
  283loPI    C2 4514  15.771   7.549  10.423  0.3458 -0.0680  0.1773
  283loPI    C3 4515  15.739   7.832  10.142 -0.1052  0.0075  0.2970
  283loPI   PO4 4516  15.659   7.260   9.974 -0.0261 -0.2332 -0.1715
  283loPI   GL1 4517  15.357   7.006   9.630 -0.2901 -0.1385 -0.3574
  283loPI   GL2 4518  15.339   7.328   9.648  0.1032  0.0861 -0.0829
  283loPI   C1A 4519  15.431   7.088   9.176 -0.3918  0.0409 -0.0323
  283loPI   C2A 4520  15.378   7.126   8.771  0.1365 -0.3754  0.0274
  283loPI   C3A 4521  15.471   7.381   8.292 -0.1870  0.0023 -0.2249
  283loPI   C4A 4522  15.630   7.607   7.905  0.2171 -0.0035 -0.0898
  283loPI   C5A 4523  15.371   7.834   7.582 -0.0515 -0.1117 -0.4045
  283loPI   C6A 4524  15.425   8.236   7.386  0.0890 -0.2167 -0.0650
  283loPI   C1B 4525  15.083   7.440   9.262 -0.2205 -0.4769  0.2351
  283loPI   C2B 4526  15.082   7.507   8.804  0.2933  0.1876 -0.0006
  283loPI   C3B 4527  15.130   7.701   8.418  0.0394  0.5738 -0.1746
  283loPI   C4B 4528  15.093   7.638   8.010  0.1141 -0.0789 -0.2119
  284loPI    C1 4529  11.056  16.753  10.147 -0.3694 -0.1707  0.1711
  284loPI    C2 4530  11.313  16.493  10.307  0.1711  0.0941 -0.2353
  284loPI    C3 4531  11.327  16.878  10.413  0.1026  0.1533 -0.4384
  284loPI   PO4 4532  11.097  16.695   9.839 -0.1326 -0.0568 -0.2686
  284loPI   GL1 4533  11.162  16.657   9.379  0.1339  0.3321  0.1142
  284loPI   GL2 4534  11.487  16.519   9.255  0.1818  0.0736 -0.0430
  284loPI   C1A 4535  11.079  16.565   8.938 -0.1147  0.1066 -0.1157
  284loPI   C2A 4536  11.156  16.605   8.552 -0.1919 -0.0386  0.1730
  284loPI   C3A 4537  11.091  16.430   8.171 -0.4206 -0.0262  0.1305
  284loPI   C4A 4538  11.350  16.420   7.818  0.2554 -0.0488 -0.4951
  284loPI   C5A 4539  11.583  16.434   7.385  0.1189  0.0086 -0.2117
  284loPI   C6A 4540  11.503  16.746   7.023 -0.0271 -0.1093 -0.2318
  284loPI   C1B 4541  11.427  16.172   8.976  0.0891  0.0500  0.0905
  284loPI   C2B 4542  11.473  16.173   8.567 -0.0304  0.1276 -0.0903
  284loPI   C3B 4543  11.373  16.027   8.156 -0.1149  0.1520 -0.1895
  284loPI   C4B 4544  11.480  15.908   7.743  0.3327 -0.1737  0.3352
  285loPI    C1 4545  17.118  10.963  10.046  0.1893 -0.0733 -0.1456
  285loPI    C2 4546  16.822  10.699  10.100  0.0912 -0.0143 -0.3807
  285loPI    C3 4547  16.866  11.005  10.354 -0.1268  0.0461 -0.4145
  285loPI   PO4 4548  17.178  10.913   9.826 -0.1445 -0.3582  0.1734
  285loPI   GL1 4549  17.418  10.673   9.476  0.0861  0.2304 -0.1849
  285loPI   GL2 4550  17.704  10.909   9.599  0.1718 -0.0480  0.0183
  285loPI   C1A 4551  17.277  10.651   8.985  0.2959 -0.1990 -0.0703
  285loPI   C2A 4552  17.070  10.381   8.792  0.0595 -0.0802  0.1284
  285loPI   C3A 4553  17.147  10.248   8.427 -0.2329  0.0104 -0.3510
  285loPI   C4A 4554  17.276  10.160   7.955 -0.1108  0.0074  0.0085
  285loPI   C5A 4555  17.509  10.420   7.678  0.1859 -0.2258 -0.2463
  285loPI   C6A 4556  17.600  10.666   7.317 -0.1796  0.1057  0.1554
  285loPI   C1B 4557  17.894  10.724   9.239 -0.2597  0.1686 -0.0159
  285loPI   C2B 4558  17.767  10.638   8.852 -0.0801 -0.1296 -0.2142
  285loPI   C3B 4559  17.540  10.590   8.450 -0.2451  0.0004 -0.2875
  285loPI   C4B 4560  17.404  10.597   8.090  0.2127 -0.0199 -0.0636
  286loPI    C1 4561  10.685  12.616  10.157 -0.1752  0.0035 -0.0816
  286loPI    C2 4562  10.579  13.001  10.171  0.0336  0.0610 -0.0374
  286loPI    C3 4563  10.567  12.779  10.503 -0.0170  0.0479 -0.0478
  286loPI   PO4 4564  10.897  12.635   9.953  0.0899 -0.3279  0.0236
  286loPI   GL1 4565  10.716  12.547   9.513 -0.0452 -0.0686 -0.1302
  286loPI   GL2 4566  10.500  12.773   9.532 -0.1820  0.0819  0.1892
  286loPI   C1A 4567  10.751  12.587   9.170  0.1255 -0.2601  0.0706
  286loPI   C2A 4568  10.728  12.635   8.702  0.0969 -0.2065  0.0423
  286loPI   C3A 4569  10.830  12.468   8.252  0.0997  0.0783  0.1453
  286loPI   C4A 4570  10.719  12.577   7.923 -0.1445  0.1209 -0.0262
  286loPI   C5A 4571  10.618  12.432   7.529 -0.1978 -0.2424  0.1672
  286loPI   C6A 4572  10.901  12.188   7.226 -0.0775 -0.4644  0.0068
  286loPI   C1B 4573  10.623  13.218   9.268  0.2253  0.3380  0.0110
  286loPI   C2B 4574  10.768  13.370   8.917  0.0437 -0.0784 -0.1674
  286loPI   C3B 4575  10.765  13.463   8.448 -0.3795  0.0201  0.0666
  286loPI   C4B 4576  10.482  13.516   8.010 -0.0288 -0.2782 -0.3925
  287loPI    C1 4577  16.661   7.148  10.497 -0.1720  0.0237 -0.0629
  287loPI    C2 4578  16.587   7.518  10.630 -0.2163  0.0621 -0.1926
  287loPI    C3 4579  16.830   7.276  10.836 -0.1339  0.1864 -0.1423
  287loPI   PO4 4580  16.682   7.293  10.189  0.1142 -0.0552 -0.2913
  287loPI   GL1 4581  16.579   7.031   9.763 -0.1310 -0.1480  0.0238
  287loPI   GL2 4582  16.175   7.079   9.927  0.2112  0.0318  0.1465
  287loPI   C1A 4583  16.658   7.186   9.271 -0.2326 -0.0953 -0.0793
  287loPI   C2A 4584  16.609   7.162   8.806 -0.1260  0.0307  0.0335
  287loPI   C3A 4585  16.420   7.193   8.399 -0.2180  0.1958  0.1647
  287loPI   C4A 4586  16.446   7.284   7.932  0.3763 -0.1186  0.0227
  287loPI   C5A 4587  16.378   6.960   7.552 -0.0951  0.0271  0.0593
  287loPI   C6A 4588  16.587   6.916   7.096 -0.1215  0.0568  0.0323
  287loPI   C1B 4589  16.159   7.139   9.523 -0.0864  0.1150  0.3009
  287loPI   C2B 4590  16.150   7.125   9.030 -0.1169  0.0668  0.0799
  287loPI   C3B 4591  15.926   7.317   8.690  0.0932  0.0070  0.3957
  287loPI   C4B 4592  15.999   7.455   8.221  0.0039 -0.0324 -0.2906
  288loPI    C1 4593   8.222   6.311   9.673  0.0582 -0.0530 -0.0927
  288loPI    C2 4594   7.980   6.109   9.427 -0.0923 -0.0382  0.0413
  288loPI    C3 4595   7.967   6.040   9.821  0.0368  0.0498  0.0615
  288loPI   PO4 4596   8.431   6.350   9.526  0.1692  0.2136 -0.1165
  288loPI   GL1 4597   8.641   6.465   9.094 -0.1498  0.0452  0.0806
  288loPI   GL2 4598   8.294   6.393   9.009  0.3748  0.0516  0.0841
  288loPI   C1A 4599   8.617   6.244   8.672 -0.0480 -0.1551  0.2083
  288loPI   C2A 4600   8.681   5.957   8.264  0.2405 -0.1108 -0.0066
  288loPI   C3A 4601   8.371   6.080   7.969 -0.0574 -0.1240  0.1955
  288loPI   C4A 4602   7.949   6.313   8.042 -0.2437  0.0929  0.1546
  288loPI   C5A 4603   7.760   6.486   7.758  0.0431 -0.0474  0.0840
  288loPI   C6A 4604   7.593   6.451   7.372 -0.1994  0.1259 -0.0525
  288loPI   C1B 4605   8.097   6.523   8.685 -0.1045  0.0890 -0.2196
  288loPI   C2B 4606   7.788   6.767   8.386  0.3712  0.1161 -0.0382
  288loPI   C3B 4607   7.871   6.954   8.008  0.1026  0.1341  0.0949
  288loPI   C4B 4608   7.762   6.952   7.535 -0.0011 -0.0299 -0.0374
  289loPI    C1 4609  16.652  10.766   9.686 -0.1897 -0.0800 -0.2317
  289loPI    C2 4610  16.583  10.377   9.628 -0.2081 -0.1037 -0.0586
  289loPI    C3 4611  16.958  10.509   9.674 -0.2045 -0.1056 -0.0827
  289loPI   PO4 4612  16.496  10.897   9.584  0.1503  0.0912 -0.1329
  289loPI   GL1 4613  16.402  10.961   9.261 -0.5002 -0.0267  0.1458
  289loPI   GL2 4614  16.350  11.199   9.238  0.0873  0.3214 -0.1224
  289loPI   C1A 4615  16.177  10.777   9.081  0.2967  0.0537 -0.1942
  289loPI   C2A 4616  15.906  10.673   8.790 -0.0238  0.0027 -0.1421
  289loPI   C3A 4617  15.991  10.841   8.438  0.0453  0.4519 -0.1834
  289loPI   C4A 4618  15.937  10.979   7.989 -0.1349  0.0165 -0.1075
  289loPI   C5A 4619  15.630  10.970   7.754 -0.0140 -0.1906 -0.3837
  289loPI   C6A 4620  15.346  10.755   7.432  0.1976  0.1362 -0.1819
  289loPI   C1B 4621  16.266  11.116   8.770 -0.0070 -0.2009 -0.1865
  289loPI   C2B 4622  16.331  11.227   8.321  0.1438  0.1143 -0.0057
  289loPI   C3B 4623  16.370  11.162   7.882  0.3753 -0.0377 -0.0497
  289loPI   C4B 4624  16.210  11.625   7.810 -0.0446 -0.0003  0.1306
  290loPI    C1 4625  13.631  14.261  10.238 -0.2513  0.2279  0.0932
  290loPI    C2 4626  13.786  14.496  10.522 -0.3561  0.1143  0.2462
  290loPI    C3 4627  13.670  14.123  10.612 -0.0912 -0.0359 -0.0177
  290loPI   PO4 4628  13.811  14.248  10.072 -0.1164 -0.2601  0.2478
  290loPI   GL1 4629  13.676  14.367   9.692 -0.1704 -0.0300 -0.0676
  290loPI   GL2 4630  14.028  14.447   9.594 -0.1008  0.0498 -0.3847
  290loPI   C1A 4631  13.433  14.466   9.352  0.1776 -0.1362  0.1484
  290loPI   C2A 4632  13.023  14.432   9.084  0.1132 -0.1484 -0.4543
  290loPI   C3A 4633  13.011  14.376   8.513 -0.2375 -0.0393  0.0896
  290loPI   C4A 4634  12.929  14.659   8.096 -0.2367 -0.1076 -0.1484
  290loPI   C5A 4635  12.564  14.914   7.857 -0.1304 -0.0384 -0.1543
  290loPI   C6A 4636  12.306  15.305   7.719 -0.0937  0.2773 -0.1814
  290loPI   C1B 4637  13.992  14.637   9.251 -0.1783 -0.0691 -0.1482
  290loPI   C2B 4638  13.892  14.731   8.902 -0.0341  0.0466 -0.0789
  290loPI   C3B 4639  13.999  14.649   8.478  0.3160 -0.2184 -0.0070
  290loPI   C4B 4640  14.016  14.683   8.079  0.1962  0.1810  0.0663
  291loPI    C1 4641   2.479   4.342  10.387  0.0700 -0.1067  0.2540
  291loPI    C2 4642   2.183   4.605  10.447  0.0979  0.0214 -0.1422
  291loPI    C3 4643   2.122   4.216  10.516 -0.1263  0.0614 -0.1093
  291loPI   PO4 4644   2.594   4.535  10.115  0.1872  0.0440  0.0801
  291loPI   GL1 4645   2.637   4.446   9.719 -0.0239  0.1672  0.0665
  291loPI   GL2 4646   2.829   4.669   9.546  0.5220 -0.3432 -0.3453
  291loPI   C1A 4647   2.530   4.392   9.302  0.0107  0.1055  0.2074
  291loPI   C2A 4648   2.303   4.299   8.956  0.2678  0.0735  0.0337
  291loPI   C3A 4649   1.978   4.351   8.699  0.1720 -0.0103  0.1586
  291loPI   C4A 4650   1.799   4.470   8.298 -0.1683 -0.3625 -0.2532
  291loPI   C5A 4651   1.671   4.508   7.840  0.1929 -0.0377  0.1151
  291loPI   C6A 4652   1.498   4.695   7.629 -0.0604 -0.3222  0.0844
  291loPI   C1B 4653   2.990   4.676   9.211 -0.3045  0.2691  0.1412
  291loPI   C2B 4654   3.055   4.475   8.886  0.2548  0.0753  0.0256
  291loPI   C3B 4655   3.162   4.545   8.490 -0.0177  0.0314  0.0560
  291loPI   C4B 4656   3.172   4.513   8.113 -0.0805 -0.2507  0.2666
  292loPI    C1 4657  14.402   2.863   9.952  0.1152  0.0524 -0.0648
  292loPI    C2 4658  14.628   2.739  10.257  0.0687 -0.1893 -0.1266
  292loPI    C3 4659  14.230   2.735  10.290  0.0634 -0.2284 -0.1945
  292loPI   PO4 4660  14.398   3.099   9.851  0.0011 -0.0512 -0.1415
  292loPI   GL1 4661  14.540   3.207   9.495 -0.0984 -0.1999  0.1649
  292loPI   GL2 4662  14.551   3.542   9.315 -0.1114  0.0154  0.0220
  292loPI   C1A 4663  14.495   3.127   9.038  0.1689  0.2324 -0.0229
  292loPI   C2A 4664  14.283   3.065   8.732  0.2048  0.0685  0.5063
  292loPI   C3A 4665  14.308   2.987   8.222  0.1881 -0.1333 -0.0104
  292loPI   C4A 4666  14.330   2.655   7.892  0.0221 -0.0431  0.2374
  292loPI   C5A 4667  14.236   2.743   7.468  0.0512 -0.3347 -0.1976
  292loPI   C6A 4668  14.411   2.623   7.059 -0.0908 -0.2871  0.2264
  292loPI   C1B 4669  14.599   3.611   8.835 -0.0003  0.0770  0.0027
  292loPI   C2B 4670  14.534   3.444   8.414  0.1446 -0.1466 -0.1115
  292loPI   C3B 4671  14.455   3.512   7.970 -0.3165 -0.0243  0.3425
  292loPI   C4B 4672  14.611   3.705   7.613  0.1085 -0.0142  0.0548
  293loPI    C1 4673   3.967  18.174   9.799  0.0260 -0.1895  0.1474
  293loPI    C2 4674   3.926  18.541   9.954  0.2121 -0.1421  0.0871
  293loPI    C3 4675   4.043  18.237  10.187  0.4287 -0.0841  0.0567
  293loPI   PO4 4676   4.083  18.204   9.569  0.0682  0.0860 -0.2142
  293loPI   GL1 4677   4.447  18.197   9.374 -0.0362  0.1763  0.1307
  293loPI   GL2 4678   4.624  18.426   9.377  0.1035  0.0877 -0.1218
  293loPI   C1A 4679   4.410  18.373   8.936 -0.3299  0.1467 -0.0420
  293loPI   C2A 4680   4.532  18.248   8.587  0.2318 -0.2238  0.0056
  293loPI   C3A 4681   4.698  18.255   8.271 -0.2144  0.3820  0.2320
  293loPI   C4A 4682   4.755  18.172   7.890  0.0428  0.0578 -0.2130
  293loPI   C5A 4683   5.044  18.339   7.561  0.0118 -0.2858 -0.4562
  293loPI   C6A 4684   5.230  18.441   7.312  0.0122 -0.2256  0.3911
  293loPI   C1B 4685   4.836  18.600   9.075  0.0988 -0.1729  0.1575
  293loPI   C2B 4686   4.752  18.708   8.609 -0.2045  0.1329 -0.2527
  293loPI   C3B 4687   4.834  18.882   8.216 -0.0138 -0.0163 -0.2921
  293loPI   C4B 4688   4.671  18.688   7.890 -0.4415  0.0744 -0.0218
  294loPI    C1 4689  18.711  15.947  10.116 -0.4185  0.1199  0.1195
  294loPI    C2 4690  18.676  15.558  10.201 -0.0562  0.0691  0.0493
  294loPI    C3 4691  18.882  15.799  10.445 -0.0248  0.1568 -0.0629
  294loPI   PO4 4692  18.719  15.932   9.862 -0.0633  0.2956  0.0467
  294loPI   GL1 4693  18.552  15.917   9.531  0.3727  0.0309 -0.0407
  294loPI   GL2 4694  18.213  15.827   9.321  0.2475 -0.1768  0.0009
  294loPI   C1A 4695  18.515  16.363   9.418 -0.0148 -0.0738 -0.0228
  294loPI   C2A 4696  18.542  16.550   8.884 -0.4310 -0.1500  0.3293
  294loPI   C3A 4697  18.546  16.847   8.501  0.0193 -0.0277 -0.0458
  294loPI   C4A 4698  18.722  17.050   8.078  0.1181 -0.0458 -0.0099
  294loPI   C5A 4699  18.957  17.043   7.762 -0.1882 -0.4833 -0.0618
  294loPI   C6A 4700  19.231  16.868   7.398 -0.0677 -0.0142 -0.0051
  294loPI   C1B 4701  18.086  16.203   9.135 -0.1606 -0.1416 -0.0879
  294loPI   C2B 4702  18.004  16.500   8.826 -0.0674 -0.1996  0.0880
  294loPI   C3B 4703  18.002  16.529   8.413  0.0199 -0.0277 -0.0225
  294loPI   C4B 4704  18.037  16.687   7.990  0.4020 -0.0919  0.1354
  295loPI    C1 4705  12.163  13.567  10.270 -0.0707 -0.0009 -0.1377
  295loPI    C2 4706  12.541  13.438  10.284 -0.0733 -0.0024 -0.0805
  295loPI    C3 4707  12.345  13.519  10.623 -0.2606 -0.4008 -0.0890
  295loPI   PO4 4708  12.116  13.686   9.964 -0.2069 -0.3759 -0.4182
  295loPI   GL1 4709  12.186  13.810   9.566  0.0423  0.0880  0.2728
  295loPI   GL2 4710  11.988  14.119   9.627  0.4402  0.1811  0.3240
  295loPI   C1A 4711  12.181  13.804   9.093  0.2524  0.2420 -0.1421
  295loPI   C2A 4712  12.268  13.767   8.688 -0.0588  0.1892  0.0421
  295loPI   C3A 4713  12.382  13.880   8.234  0.0689  0.0210 -0.5712
  295loPI   C4A 4714  12.663  14.019   7.951 -0.1340  0.1402  0.2915
  295loPI   C5A 4715  12.911  13.926   7.682  0.1329  0.5443 -0.0028
  295loPI   C6A 4716  13.298  13.740   7.707 -0.1751  0.0997  0.0477
  295loPI   C1B 4717  12.042  14.256   9.259  0.0343 -0.3546  0.2137
  295loPI   C2B 4718  11.970  14.281   8.763  0.0131  0.2056  0.0185
  295loPI   C3B 4719  11.911  14.086   8.421  0.1030 -0.1169  0.3333
  295loPI   C4B 4720  11.962  14.054   7.917  0.1707  0.3517  0.2374
  296loPI    C1 4721   1.704  15.610   9.772  0.0813 -0.1056  0.0537
  296loPI    C2 4722   1.584  15.234   9.841 -0.2892 -0.0055 -0.0231
  296loPI    C3 4723   1.775  15.439  10.127 -0.2977 -0.1709  0.1022
  296loPI   PO4 4724   1.537  15.659   9.513 -0.2400 -0.2779 -0.0116
  296loPI   GL1 4725   1.737  15.498   9.176  0.0471 -0.0676 -0.2504
  296loPI   GL2 4726   1.706  15.878   9.088 -0.0510  0.2549  0.4082
  296loPI   C1A 4727   1.974  15.533   8.760 -0.1051  0.0875  0.2477
  296loPI   C2A 4728   1.963  15.381   8.274 -0.1348  0.0308  0.0292
  296loPI   C3A 4729   1.830  15.506   7.891 -0.0228  0.4331  0.2846
  296loPI   C4A 4730   1.737  15.568   7.358  0.0036  0.2475 -0.0636
  296loPI   C5A 4731   1.591  15.955   7.076 -0.1129 -0.0123  0.1423
  296loPI   C6A 4732   1.197  16.034   6.985  0.1490 -0.0510  0.0390
  296loPI   C1B 4733   1.663  16.083   8.714 -0.1908 -0.0413  0.0918
  296loPI   C2B 4734   1.474  16.223   8.367  0.0095 -0.0885  0.0257
  296loPI   C3B 4735   1.383  16.542   8.074  0.1812 -0.1262 -0.1439
  296loPI   C4B 4736   1.526  16.421   7.711 -0.0655 -0.0080  0.0433
  297loPI    C1 4737   3.340  18.892   9.949  0.4562 -0.0098  0.1376
  297loPI    C2 4738   3.184  18.601  10.173  0.0815  0.0293 -0.0647
  297loPI    C3 4739   3.388  18.899  10.346 -0.1918  0.0542  0.2246
  297loPI   PO4 4740   3.446  18.772   9.712 -0.2392  0.0817  0.0067
  297loPI   GL1 4741   3.583  18.819   9.287 -0.3836  0.2024 -0.2799
  297loPI   GL2 4742   3.792  18.601   9.332 -0.2237 -0.1092  0.2376
  297loPI   C1A 4743   3.630  18.991   8.842  0.0256  0.0762  0.0899
  297loPI   C2A 4744   3.832  18.935   8.352 -0.0887  0.3992 -0.1146
  297loPI   C3A 4745   3.783  19.093   7.910  0.2168  0.0120  0.0212
  297loPI   C4A 4746   4.025  19.247   7.470 -0.3378  0.0452 -0.0282
  297loPI   C5A 4747   3.821  19.625   7.280  0.0293 -0.0849  0.2168
  297loPI   C6A 4748   3.925  20.127   7.247 -0.2057 -0.0191  0.0504
  297loPI   C1B 4749   3.983  18.643   8.928  0.1904  0.1707  0.0289
  297loPI   C2B 4750   4.135  18.534   8.486 -0.0940  0.3519 -0.1331
  297loPI   C3B 4751   4.115  18.646   8.102  0.0820  0.0182 -0.0733
  297loPI   C4B 4752   4.225  18.874   7.687  0.0092 -0.0736 -0.0009
  298loPI    C1 4753  16.614   3.810  10.047  0.0508  0.0292 -0.0766
  298loPI    C2 4754  16.868   3.851  10.353  0.1824 -0.0884 -0.1692
  298loPI    C3 4755  16.838   4.140  10.079  0.0863  0.0039 -0.0624
  298loPI   PO4 4756  16.788   3.555   9.929 -0.3501 -0.0094 -0.0611
  298loPI   GL1 4757  17.024   3.496   9.546 -0.0057 -0.1489  0.0511
  298loPI   GL2 4758  16.927   3.380   9.307 -0.0687  0.0327  0.1538
  298loPI   C1A 4759  17.293   3.694   9.206  0.2075 -0.0563  0.3890
  298loPI   C2A 4760  17.397   3.660   8.844  0.2606 -0.0102 -0.0455
  298loPI   C3A 4761  17.355   3.604   8.421 -0.0852  0.2072 -0.0785
  298loPI   C4A 4762  17.156   3.640   8.053  0.1507  0.4200  0.2772
  298loPI   C5A 4763  17.183   3.344   7.711 -0.0286  0.3238  0.0669
  298loPI   C6A 4764  17.307   3.097   7.309  0.1683 -0.3964  0.2565
  298loPI   C1B 4765  16.953   3.366   8.857 -0.5007 -0.2763  0.2781
  298loPI   C2B 4766  16.845   3.620   8.427 -0.3884  0.2228 -0.0637
  298loPI   C3B 4767  16.784   3.888   8.121  0.0674 -0.0299  0.3118
  298loPI   C4B 4768  16.598   4.302   8.032 -0.2004 -0.2371  0.1826
  299loPI    C1 4769   9.842   0.631   9.983  0.0897  0.1478  0.1131
  299loPI    C2 4770   9.536   0.788  10.188 -0.0193  0.0231  0.0472
  299loPI    C3 4771   9.909   0.916  10.256 -0.0654  0.0508  0.2542
  299loPI   PO4 4772   9.819   0.730   9.671 -0.0856 -0.0172  0.1994
  299loPI   GL1 4773   9.740   1.111   9.395 -0.4122 -0.4927 -0.1431
  299loPI   GL2 4774   9.415   1.191   9.321 -0.1360 -0.0828  0.0183
  299loPI   C1A 4775  10.033   1.133   9.164  0.0083  0.0805 -0.3037
  299loPI   C2A 4776  10.205   1.271   8.800 -0.1762  0.4697 -0.1109
  299loPI   C3A 4777  10.253   1.431   8.438 -0.2691 -0.0835  0.2396
  299loPI   C4A 4778  10.164   1.403   8.001 -0.1458  0.0254  0.0362
  299loPI   C5A 4779  10.144   1.432   7.563 -0.0966  0.0775  0.0611
  299loPI   C6A 4780  10.434   1.245   7.145  0.1756  0.0624 -0.0536
  299loPI   C1B 4781   9.387   1.213   8.810  0.4136  0.1222  0.0990
  299loPI   C2B 4782   9.474   1.187   8.395  0.3872 -0.3061  0.3953
  299loPI   C3B 4783   9.289   1.127   8.107 -0.1546  0.2183  0.2703
  299loPI   C4B 4784   9.179   1.303   7.684  0.4389  0.0971 -0.2883
  300loPI    C1 4785  15.759  10.990  10.102  0.1958  0.2046  0.1903
  300loPI    C2 4786  16.058  10.831  10.315  0.1458 -0.2021 -0.0313
  300loPI    C3 4787  15.678  10.756  10.416  0.1159  0.1268  0.1126
  300loPI   PO4 4788  15.882  11.147   9.956  0.0236 -0.0007  0.2941
  300loPI   GL1 4789  15.800  11.141   9.547  0.1286  0.1026  0.2612
  300loPI   GL2 4790  15.479  10.894   9.591  0.0506  0.0250 -0.0101
  300loPI   C1A 4791  15.686  11.106   9.131 -0.0396 -0.1963  0.1037
  300loPI   C2A 4792  15.714  11.185   8.716 -0.0943  0.2750 -0.1579
  300loPI   C3A 4793  15.773  11.283   8.367 -0.1947  0.0946  0.1287
  300loPI   C4A 4794  15.688  11.464   7.934  0.1922 -0.0188 -0.0112
  300loPI   C5A 4795  15.778  11.804   7.689  0.1260 -0.2381 -0.0820
  300loPI   C6A 4796  15.996  11.973   7.438  0.1606 -0.0556  0.4299
  300loPI   C1B 4797  15.718  10.611   9.293 -0.1296  0.0900 -0.1654
  300loPI   C2B 4798  15.819  10.270   9.008 -0.0377 -0.1194 -0.1424
  300loPI   C3B 4799  15.786  10.062   8.635  0.0464 -0.1645 -0.0422
  300loPI   C4B 4800  15.806   9.839   8.216 -0.0634  0.0436 -0.1596
  301loPI    C1 4801   0.832   6.520  10.374  0.0863 -0.0767 -0.2623
  301loPI    C2 4802   1.211   6.401  10.324  0.2381  0.2817 -0.0053
  301loPI    C3 4803   1.025   6.337  10.673  0.0055 -0.0298 -0.1811
  301loPI   PO4 4804   0.863   6.684  10.088  0.2264  0.1235  0.0282
  301loPI   GL1 4805   1.032   6.917   9.851  0.1345  0.2521 -0.2750
  301loPI   GL2 4806   0.834   6.716   9.544 -0.2662  0.1117  0.0473
  301loPI   C1A 4807   1.114   7.218   9.580 -0.3182  0.4357  0.0150
  301loPI   C2A 4808   1.105   7.271   9.245 -0.3161 -0.0863  0.1012
  301loPI   C3A 4809   1.110   7.191   8.777  0.1400 -0.4164 -0.0004
  301loPI   C4A 4810   0.950   7.304   8.392  0.1262 -0.0796  0.1836
  301loPI   C5A 4811   0.983   7.282   7.894  0.1466  0.2299  0.2521
  301loPI   C6A 4812   1.207   7.047   7.605  0.1271 -0.2337 -0.1436
  301loPI   C1B 4813   0.820   6.831   9.178  0.1042  0.1797  0.2881
  301loPI   C2B 4814   0.665   6.849   8.652 -0.2277 -0.2020  0.1001
  301loPI   C3B 4815   0.736   6.846   8.228 -0.2688  0.0138  0.0050
  301loPI   C4B 4816   0.888   6.764   7.871 -0.0879 -0.1529 -0.0713
  302loPI    C1 4817  15.306  17.424  10.474 -0.0572 -0.3774  0.0687
  302loPI    C2 4818  15.123  17.780  10.484  0.1629 -0.2439 -0.3676
  302loPI    C3 4819  14.939  17.456  10.628 -0.1095  0.0139 -0.1224
  302loPI   PO4 4820  15.406  17.411  10.220 -0.1087  0.0627 -0.0444
  302loPI   GL1 4821  15.524  17.412   9.800  0.0772  0.0427  0.0892
  302loPI   GL2 4822  15.200  17.302   9.727 -0.2331 -0.3109  0.2119
  302loPI   C1A 4823  15.702  17.575   9.328  0.0996  0.1074 -0.1986
  302loPI   C2A 4824  15.791  17.723   8.882 -0.0458  0.1927 -0.1316
  302loPI   C3A 4825  16.017  17.748   8.454  0.0845  0.2242 -0.0012
  302loPI   C4A 4826  16.205  17.797   8.135 -0.0836  0.0478 -0.1144
  302loPI   C5A 4827  16.533  17.705   7.758 -0.2306  0.1371 -0.1059
  302loPI   C6A 4828  16.989  17.725   7.630  0.2545 -0.1189  0.1295
  302loPI   C1B 4829  15.305  17.239   9.291 -0.3489  0.0374 -0.0129
  302loPI   C2B 4830  15.260  17.178   8.863 -0.2328  0.0176  0.3011
  302loPI   C3B 4831  15.230  17.134   8.496  0.1581 -0.0942  0.3243
  302loPI   C4B 4832  15.284  16.973   8.032  0.2337  0.2381  0.0482
  303loPI    C1 4833   2.420   5.653  10.239  0.2218  0.0285 -0.3246
  303loPI    C2 4834   2.305   6.035  10.207 -0.0075 -0.0248 -0.1616
  303loPI    C3 4835   2.692   5.939  10.179  0.0522  0.2205 -0.1929
  303loPI   PO4 4836   2.334   5.445   9.936 -0.0031  0.1494  0.2599
  303loPI   GL1 4837   2.219   5.493   9.553  0.0294 -0.1064 -0.0257
  303loPI   GL2 4838   2.319   5.731   9.296 -0.0517  0.1411  0.2821
  303loPI   C1A 4839   2.291   5.237   9.125 -0.2157  0.1771 -0.1443
  303loPI   C2A 4840   2.183   5.099   8.651 -0.1791  0.3149 -0.0550
  303loPI   C3A 4841   2.152   4.886   8.240  0.1081  0.1349 -0.1592
  303loPI   C4A 4842   1.963   4.885   8.000 -0.2807 -0.0106 -0.2670
  303loPI   C5A 4843   1.441   4.869   8.124 -0.1530  0.3139  0.0506
  303loPI   C6A 4844   0.950   4.949   8.255  0.2585 -0.3230  0.0554
  303loPI   C1B 4845   2.092   5.599   8.874 -0.2814  0.2247 -0.2518
  303loPI   C2B 4846   2.048   5.749   8.506  0.2678  0.2474  0.0074
  303loPI   C3B 4847   2.103   5.743   7.964  0.1215 -0.0121  0.1198
  303loPI   C4B 4848   2.200   5.856   7.538  0.0067  0.0621 -0.1724
  304loPI    C1 4849   4.684  13.522   9.798 -0.0330  0.1058 -0.0289
  304loPI    C2 4850   4.852  13.630  10.145 -0.0243 -0.2876  0.0944
  304loPI    C3 4851   4.558  13.359  10.141 -0.2460 -0.0494 -0.1788
  304loPI   PO4 4852   4.795  13.693   9.576 -0.1408  0.1859  0.1873
  304loPI   GL1 4853   4.888  13.436   9.246  0.0052  0.3114 -0.5127
  304loPI   GL2 4854   4.810  13.197   9.320  0.0902 -0.1971  0.3115
  304loPI   C1A 4855   5.202  13.479   8.878 -0.1693 -0.1540  0.1488
  304loPI   C2A 4856   5.304  13.592   8.387 -0.1799  0.1004  0.0916
  304loPI   C3A 4857   5.416  13.628   7.966 -0.1226 -0.0926 -0.1961
  304loPI   C4A 4858   5.443  13.786   7.500  0.0632 -0.0137 -0.0383
  304loPI   C5A 4859   5.140  13.969   7.239 -0.0107  0.2048  0.1497
  304loPI   C6A 4860   5.170  13.952   6.889  0.1349  0.2146  0.3328
  304loPI   C1B 4861   4.860  13.080   8.850  0.0599 -0.0937  0.2409
  304loPI   C2B 4862   4.886  13.355   8.500  0.1946  0.1388 -0.1426
  304loPI   C3B 4863   5.003  13.391   8.045  0.2228 -0.2946  0.1851
  304loPI   C4B 4864   5.238  13.327   7.594 -0.3697 -0.0080 -0.1018
  305loPI    C1 4865  14.080   0.918  10.138  0.1775 -0.1299 -0.0871
  305loPI    C2 4866  13.986   0.657  10.426 -0.2019  0.0043 -0.0840
  305loPI    C3 4867  14.319   0.875  10.456 -0.1555 -0.0985  0.1736
  305loPI   PO4 4868  14.027   0.823   9.919  0.4447  0.1866  0.4110
  305loPI   GL1 4869  13.851   0.895   9.602  0.4834  0.1041  0.1203
  305loPI   GL2 4870  13.674   1.031   9.231 -0.1229  0.2034  0.1617
  305loPI   C1A 4871  14.164   1.013   9.266  0.1716 -0.3904 -0.1552
  305loPI   C2A 4872  14.172   0.969   8.806 -0.1556  0.0460 -0.3470
  305loPI   C3A 4873  14.170   0.880   8.371 -0.0879 -0.2942  0.0041
  305loPI   C4A 4874  14.169   1.062   8.020  0.0576  0.1642  0.0481
  305loPI   C5A 4875  14.210   1.036   7.585 -0.0542 -0.0304 -0.2864
  305loPI   C6A 4876  14.199   1.335   7.292 -0.3204 -0.1834  0.0813
  305loPI   C1B 4877  13.734   1.143   8.855  0.3710  0.1397 -0.1346
  305loPI   C2B 4878  13.686   1.150   8.430 -0.0001  0.2748 -0.2657
  305loPI   C3B 4879  13.689   1.118   7.986 -0.4854  0.0919  0.0079
  305loPI   C4B 4880  13.826   1.401   7.680  0.2636  0.0235  0.0566
  306loPI    C1 4881   4.573  17.163   9.353 -0.2776  0.0993 -0.0112
  306loPI    C2 4882   4.570  16.988   9.713 -0.1244  0.3605  0.1194
  306loPI    C3 4883   4.645  16.771   9.386 -0.3392  0.1070  0.2346
  306loPI   PO4 4884   4.336  17.290   9.331 -0.0274  0.1031 -0.0050
  306loPI   GL1 4885   4.079  17.155   9.052 -0.5460 -0.1563 -0.1045
  306loPI   GL2 4886   3.981  17.370   8.939  0.1416 -0.0937  0.2671
  306loPI   C1A 4887   3.873  16.983   8.724 -0.0770  0.3366  0.2188
  306loPI   C2A 4888   3.890  16.976   8.287  0.0559 -0.2480  0.0609
  306loPI   C3A 4889   3.888  17.024   7.779 -0.0004  0.2473 -0.2159
  306loPI   C4A 4890   3.735  16.813   7.501 -0.0497 -0.0171  0.0557
  306loPI   C5A 4891   3.789  16.591   7.119 -0.0564 -0.0788 -0.0063
  306loPI   C6A 4892   4.049  16.267   6.848 -0.3349  0.0633  0.0214
  306loPI   C1B 4893   3.860  17.411   8.539  0.2638  0.1769  0.2527
  306loPI   C2B 4894   3.627  17.635   8.314  0.2154 -0.1665 -0.1735
  306loPI   C3B 4895   3.302  17.414   7.952 -0.1605 -0.1110 -0.2627
  306loPI   C4B 4896   3.320  17.193   7.578  0.1088 -0.0354  0.2915
  307loPI    C1 4897  10.457   2.097  10.348 -0.1928  0.0003  0.2055
  307loPI    C2 4898  10.750   2.049  10.617 -0.3353 -0.3557  0.3017
  307loPI    C3 4899  10.404   2.219  10.725 -0.1565  0.0996  0.1790
  307loPI   PO4 4900  10.555   2.190  10.059 -0.0974 -0.0232  0.2660
  307loPI   GL1 4901  10.807   2.196   9.702 -0.0641  0.0088  0.0381
  307loPI   GL2 4902  10.450   2.061   9.626 -0.0186 -0.1114  0.0279
  307loPI   C1A 4903  10.877   2.373   9.257  0.0690 -0.1560  0.1997
  307loPI   C2A 4904  10.967   2.462   8.939  0.0604  0.1862  0.3177
  307loPI   C3A 4905  10.998   2.663   8.607  0.2790 -0.3221 -0.1206
  307loPI   C4A 4906  11.107   2.796   8.156  0.2176  0.2601  0.0699
  307loPI   C5A 4907  11.483   2.918   8.086 -0.2963 -0.0302 -0.1722
  307loPI   C6A 4908  11.916   2.808   8.038  0.1506 -0.2012 -0.0057
  307loPI   C1B 4909  10.591   1.951   9.335  0.4561  0.1233  0.1665
  307loPI   C2B 4910  10.861   1.916   8.917 -0.1063 -0.3596  0.0392
  307loPI   C3B 4911  10.679   1.893   8.544 -0.2166  0.1424 -0.1573
  307loPI   C4B 4912  10.604   1.683   8.035 -0.1886 -0.0732 -0.0346
  308loPI    C1 4913  14.958  17.254  10.147  0.1156 -0.0451 -0.1013
  308loPI    C2 4914  14.641  17.119  10.350  0.0809  0.1567 -0.0190
  308loPI    C3 4915  15.010  17.000  10.451  0.0500  0.1151  0.0454
  308loPI   PO4 4916  14.928  17.526  10.118  0.0060 -0.0541  0.0691
  308loPI   GL1 4917  14.786  17.796   9.752 -0.0469 -0.2837 -0.3448
  308loPI   GL2 4918  14.757  18.031   9.740 -0.0775 -0.1011 -0.0078
  308loPI   C1A 4919  15.083  17.736   9.398  0.0114  0.1966 -0.0326
  308loPI   C2A 4920  15.263  17.831   9.036 -0.3815 -0.2015  0.1123
  308loPI   C3A 4921  15.287  17.655   8.713 -0.0942  0.0158 -0.1394
  308loPI   C4A 4922  15.182  17.551   8.240  0.1702  0.1821  0.0895
  308loPI   C5A 4923  14.997  17.391   7.849 -0.2357 -0.3258 -0.0258
  308loPI   C6A 4924  14.945  17.062   7.598 -0.3900  0.1803 -0.0457
  308loPI   C1B 4925  14.694  18.073   9.274  0.2109 -0.0754  0.0597
  308loPI   C2B 4926  14.777  18.006   8.952  0.3707 -0.0555 -0.1681
  308loPI   C3B 4927  14.866  17.967   8.438 -0.1153 -0.1398 -0.0545
  308loPI   C4B 4928  14.861  17.922   8.051 -0.0845  0.0816 -0.1014
  309loPI    C1 4929  17.065  18.186  10.232  0.1530 -0.2342 -0.2399
  309loPI    C2 4930  17.125  18.257  10.621 -0.0905 -0.4537 -0.1588
  309loPI    C3 4931  17.320  17.958  10.440  0.2301 -0.1811 -0.2758
  309loPI   PO4 4932  16.840  18.165  10.205 -0.0445  0.0405 -0.4945
  309loPI   GL1 4933  16.593  18.123   9.866  0.2081 -0.2571 -0.2846
  309loPI   GL2 4934  16.523  17.886   9.688 -0.2192 -0.1113 -0.3009
  309loPI   C1A 4935  16.612  18.313   9.431 -0.1133 -0.2833  0.1011
  309loPI   C2A 4936  16.647  18.309   9.033  0.1877 -0.0378 -0.2077
  309loPI   C3A 4937  16.738  18.505   8.705 -0.0212 -0.1570 -0.1776
  309loPI   C4A 4938  16.671  18.809   8.436  0.0165 -0.1543 -0.1379
  309loPI   C5A 4939  16.629  18.768   8.035  0.3161  0.0276  0.1592
  309loPI   C6A 4940  16.725  18.894   7.540 -0.1329 -0.1418 -0.1484
  309loPI   C1B 4941  16.709  17.844   9.272 -0.2757  0.1879  0.3950
  309loPI   C2B 4942  16.890  17.879   8.910  0.1677  0.1595  0.0580
  309loPI   C3B 4943  16.972  18.061   8.468 -0.0809 -0.0247 -0.2795
  309loPI   C4B 4944  16.995  18.485   8.206 -0.3122  0.0867  0.0464
  310loPI    C1 4945   9.510  14.241  10.115  0.0772 -0.1348 -0.0045
  310loPI    C2 4946   9.649  14.510  10.377  0.1313 -0.1162 -0.0520
  310loPI    C3 4947   9.321  14.297  10.463 -0.1260  0.2239 -0.1659
  310loPI   PO4 4948   9.636  14.369   9.852  0.0580  0.0670 -0.1356
  310loPI   GL1 4949   9.821  14.091   9.521  0.0759 -0.2220  0.1222
  310loPI   GL2 4950   9.710  13.783   9.402  0.1604 -0.2032 -0.1671
  310loPI   C1A 4951   9.799  14.062   8.988  0.3729 -0.0225  0.0398
  310loPI   C2A 4952   9.574  13.986   8.607 -0.3178 -0.0577  0.0902
  310loPI   C3A 4953   9.604  13.876   8.192 -0.2803 -0.5393 -0.0812
  310loPI   C4A 4954   9.494  13.804   7.844 -0.0653  0.0626 -0.0455
  310loPI   C5A 4955   9.118  13.951   7.742  0.0642  0.1638 -0.0048
  310loPI   C6A 4956   8.968  14.282   7.601 -0.2395 -0.0111 -0.0866
  310loPI   C1B 4957   9.401  13.799   9.079 -0.5011 -0.1296  0.1164
  310loPI   C2B 4958   9.365  13.504   8.726 -0.2157 -0.3807  0.2524
  310loPI   C3B 4959   9.560  13.398   8.523  0.0131 -0.1751 -0.0849
  310loPI   C4B 4960   9.690  13.399   8.117  0.4501  0.0675  0.1141
  311loPI    C1 4961  15.776   0.275  10.128 -0.1510  0.1296  0.1295
  311loPI    C2 4962  15.513   0.144  10.399  0.0494 -0.0532  0.2389
  311loPI    C3 4963  15.695   0.496  10.451  0.0124 -0.0416  0.2900
  311loPI   PO4 4964  15.577   0.350   9.835 -0.0528 -0.0769 -0.0817
  311loPI   GL1 4965  15.645   0.519   9.410  0.0527  0.0680  0.2310
  311loPI   GL2 4966  15.428   0.191   9.405  0.0192  0.0256 -0.1415
  311loPI   C1A 4967  15.560   0.597   9.030  0.0069 -0.2759 -0.0159
  311loPI   C2A 4968  15.500   0.720   8.613 -0.0789 -0.1419  0.3526
  311loPI   C3A 4969  15.584   0.917   8.293  0.0771  0.3435  0.6065
  311loPI   C4A 4970  15.587   0.889   7.852 -0.2720 -0.1086  0.0875
  311loPI   C5A 4971  15.315   1.086   7.610 -0.0931  0.2189 -0.0944
  311loPI   C6A 4972  14.836   1.137   7.379  0.2316 -0.1952  0.0411
  311loPI   C1B 4973  15.381   0.162   9.009  0.0149  0.1294  0.0034
  311loPI   C2B 4974  15.365   0.057   8.517  0.0149 -0.0006  0.0268
  311loPI   C3B 4975  15.514  -0.172   8.080 -0.2604 -0.0444  0.1697
  311loPI   C4B 4976  15.701  -0.132   7.681 -0.0012  0.0060  0.1442
  312loPI    C1 4977   5.979  15.779   9.851  0.0503 -0.1477 -0.1624
  312loPI    C2 4978   5.683  15.766   9.583 -0.0623  0.1225 -0.0538
  312loPI    C3 4979   5.612  15.899   9.953  0.1792  0.1214 -0.0057
  312loPI   PO4 4980   6.142  15.863   9.747 -0.0908 -0.1337 -0.1587
  312loPI   GL1 4981   6.058  16.039   9.318 -0.0756 -0.3001  0.1115
  312loPI   GL2 4982   6.366  16.205   9.367  0.2954  0.3211  0.1756
  312loPI   C1A 4983   5.977  16.184   8.952 -0.3705 -0.1054 -0.0118
  312loPI   C2A 4984   5.901  16.303   8.605 -0.1951 -0.0227 -0.1262
  312loPI   C3A 4985   5.776  16.248   8.268 -0.0521  0.0497  0.1691
  312loPI   C4A 4986   5.617  16.198   7.859  0.0851 -0.0789  0.1290
  312loPI   C5A 4987   5.511  16.242   7.313 -0.0772 -0.1873  0.0018
  312loPI   C6A 4988   5.487  16.314   6.833  0.0009  0.2101  0.2104
  312loPI   C1B 4989   6.468  16.066   8.953 -0.1721 -0.3283 -0.0633
  312loPI   C2B 4990   6.585  16.218   8.560  0.1282 -0.0416  0.2672
  312loPI   C3B 4991   6.270  16.342   8.257 -0.3513 -0.0709 -0.4756
  312loPI   C4B 4992   5.985  16.513   7.928 -0.0659 -0.2231  0.0601
  313loPI    C1 4993  12.835  11.111  10.015  0.1076 -0.1807 -0.0343
  313loPI    C2 4994  12.587  11.366  10.198  0.0654 -0.0343 -0.2909
  313loPI    C3 4995  12.864  11.169  10.410  0.0872  0.2109 -0.0871
  313loPI   PO4 4996  12.613  11.145   9.733 -0.0190 -0.1935 -0.0665
  313loPI   GL1 4997  12.368  11.449   9.423  0.2176 -0.1119  0.2464
  313loPI   GL2 4998  12.189  11.258   9.429  0.2123  0.1838 -0.0008
  313loPI   C1A 4999  12.183  11.788   9.317 -0.1142 -0.1050  0.3013
  313loPI   C2A 5000  12.250  11.824   8.886 -0.3829  0.1743  0.3193
  313loPI   C3A 5001  12.224  12.024   8.514  0.1074  0.1288 -0.0535
  313loPI   C4A 5002  12.231  12.175   8.051  0.1484  0.0710 -0.6820
  313loPI   C5A 5003  12.354  12.400   7.778  0.0340  0.1905 -0.1483
  313loPI   C6A 5004  12.691  12.503   7.507 -0.1448  0.1703 -0.1582
  313loPI   C1B 5005  12.009  11.423   8.966 -0.0026 -0.2551 -0.2313
  313loPI   C2B 5006  12.247  11.476   8.530  0.1822 -0.2188  0.0549
  313loPI   C3B 5007  12.472  11.680   8.155 -0.0857  0.1327 -0.1432
  313loPI   C4B 5008  12.480  11.492   7.805 -0.1125 -0.0826  0.1792
  314loPI    C1 5009   8.642   9.871   9.935  0.2396 -0.1222 -0.0528
  314loPI    C2 5010   8.737   9.743  10.301  0.1553 -0.0749 -0.0142
  314loPI    C3 5011   9.010   9.932  10.079  0.1641  0.0241  0.0804
  314loPI   PO4 5012   8.484   9.644   9.851  0.0445 -0.0493 -0.0972
  314loPI   GL1 5013   8.552   9.390   9.407  0.1014 -0.0950 -0.1994
  314loPI   GL2 5014   8.834   9.191   9.345 -0.3542 -0.0352  0.1735
  314loPI   C1A 5015   8.402   9.482   9.167  0.1412 -0.1092  0.2238
  314loPI   C2A 5016   8.418   9.569   8.767 -0.5188 -0.1847  0.1840
  314loPI   C3A 5017   8.362   9.491   8.445  0.0712  0.0205  0.0575
  314loPI   C4A 5018   8.162   9.403   8.125  0.2942 -0.2070  0.1180
  314loPI   C5A 5019   8.168   9.253   7.726 -0.2326 -0.3145  0.0879
  314loPI   C6A 5020   8.509   9.278   7.497  0.0436  0.1540 -0.0263
  314loPI   C1B 5021   8.854   9.298   8.841  0.2279 -0.1489 -0.0967
  314loPI   C2B 5022   8.872   9.293   8.379  0.0780 -0.1457 -0.1844
  314loPI   C3B 5023   8.644   9.394   8.005 -0.3189  0.1721  0.0973
  314loPI   C4B 5024   8.385   9.726   7.716  0.0976 -0.1114 -0.1717
  315loPI    C1 5025   3.627   8.438   9.941 -0.4596  0.0684 -0.1205
  315loPI    C2 5026   3.335   8.566  10.182 -0.0083 -0.0770  0.5291
  315loPI    C3 5027   3.695   8.740  10.194  0.0595 -0.1691  0.0381
  315loPI   PO4 5028   3.476   8.309   9.655 -0.2860 -0.4822  0.0979
  315loPI   GL1 5029   3.598   8.491   9.307  0.1310 -0.3495  0.1618
  315loPI   GL2 5030   3.385   8.505   9.128  0.0243 -0.0807 -0.2043
  315loPI   C1A 5031   3.809   8.627   8.985 -0.2272  0.0863  0.0254
  315loPI   C2A 5032   3.689   8.828   8.643  0.2095 -0.3273  0.0457
  315loPI   C3A 5033   3.575   9.093   8.299  0.1324  0.0267  0.2837
  315loPI   C4A 5034   3.781   9.125   8.057 -0.0572  0.0361  0.0245
  315loPI   C5A 5035   3.586   9.230   7.751  0.0957 -0.0947 -0.1543
  315loPI   C6A 5036   3.739   9.323   7.419  0.0516 -0.1316  0.1319
  315loPI   C1B 5037   3.316   8.496   8.721  0.4032  0.4802 -0.1709
  315loPI   C2B 5038   3.349   8.589   8.316  0.0761  0.3277 -0.5592
  315loPI   C3B 5039   3.440   8.765   7.932 -0.4283 -0.1130  0.0846
  315loPI   C4B 5040   3.622   8.801   7.481  0.2245 -0.2791  0.3685
  316loPI    C1 5041   3.552  10.553   9.840  0.0089 -0.0906 -0.3363
  316loPI    C2 5042   3.159  10.594   9.777  0.0212 -0.2082 -0.4971
  316loPI    C3 5043   3.302  10.257   9.937  0.0501 -0.1372 -0.3717
  316loPI   PO4 5044   3.611  10.694   9.681 -0.1663 -0.2400 -0.0278
  316loPI   GL1 5045   3.335  10.764   9.347 -0.0065  0.0763  0.1319
  316loPI   GL2 5046   3.544  10.735   9.091  0.1212  0.1066  0.1010
  316loPI   C1A 5047   3.041  10.752   9.051 -0.1030  0.0902  0.1240
  316loPI   C2A 5048   2.976  10.764   8.626  0.2818  0.1977  0.1981
  316loPI   C3A 5049   2.889  10.919   8.158 -0.1893  0.0263 -0.1887
  316loPI   C4A 5050   2.871  11.146   7.684 -0.0148  0.1438 -0.4191
  316loPI   C5A 5051   2.701  11.460   7.358 -0.2029 -0.1701  0.2341
  316loPI   C6A 5052   2.973  11.726   6.961 -0.2160  0.0107 -0.0772
  316loPI   C1B 5053   3.414  10.711   8.698  0.0323 -0.0911  0.0520
  316loPI   C2B 5054   3.351  10.545   8.294  0.1889 -0.0451  0.0607
  316loPI   C3B 5055   3.440  10.353   7.842  0.2066 -0.0246 -0.1630
  316loPI   C4B 5056   3.354   9.952   7.518  0.0316  0.0277  0.1908
  317loPI    C1 5057  14.569  14.876  10.309  0.0534 -0.1220  0.0069
  317loPI    C2 5058  14.188  14.794  10.398  0.0250 -0.1584 -0.1437
  317loPI    C3 5059  14.368  15.112  10.562 -0.0552 -0.1676 -0.0362
  317loPI   PO4 5060  14.633  14.824  10.042 -0.2652 -0.1740 -0.3823
  317loPI   GL1 5061  14.738  14.746   9.520  0.0308  0.3411  0.1036
  317loPI   GL2 5062  14.492  14.505   9.594 -0.0448  0.1191 -0.1560
  317loPI   C1A 5063  14.358  15.013   9.198  0.0756  0.1968  0.0485
  317loPI   C2A 5064  14.205  15.151   8.815 -0.0634  0.1129  0.2245
  317loPI   C3A 5065  14.217  15.127   8.518 -0.0360  0.3537 -0.1744
  317loPI   C4A 5066  14.492  15.171   8.171  0.1025 -0.2159  0.0365
  317loPI   C5A 5067  14.690  15.182   7.748  0.3920 -0.1307 -0.0464
  317loPI   C6A 5068  14.885  15.364   7.278 -0.1709  0.2606  0.0366
  317loPI   C1B 5069  14.486  14.521   9.103  0.1537 -0.5380 -0.3613
  317loPI   C2B 5070  14.461  14.725   8.702 -0.0145  0.0931  0.1086
  317loPI   C3B 5071  14.513  14.623   8.205 -0.0272 -0.0350 -0.3589
  317loPI   C4B 5072  14.465  14.743   7.754  0.0135  0.1883 -0.2076
  318loPI    C1 5073  14.623   0.008  10.049 -0.1494  0.1343  0.0359
  318loPI    C2 5074  14.685  -0.119  10.424 -0.0034 -0.0123 -0.0368
  318loPI    C3 5075  14.984   0.047  10.217 -0.0375 -0.0889 -0.1483
  318loPI   PO4 5076  14.312  -0.096   9.884 -0.1034 -0.0556  0.2401
  318loPI   GL1 5077  14.299   0.044   9.394  0.1213 -0.0427  0.0477
  318loPI   GL2 5078  14.568   0.163   9.267  0.0616  0.2508  0.3058
  318loPI   C1A 5079  14.113  -0.320   9.242  0.0191 -0.0024  0.0889
  318loPI   C2A 5080  13.902  -0.516   8.897  0.1952 -0.1302 -0.1037
  318loPI   C3A 5081  13.966  -0.546   8.435 -0.0795 -0.1082 -0.0951
  318loPI   C4A 5082  14.060  -0.514   7.964  0.1917 -0.3155 -0.1255
  318loPI   C5A 5083  14.379  -0.678   7.756  0.0407 -0.0270 -0.1084
  318loPI   C6A 5084  14.800  -0.623   7.698 -0.0784 -0.4070  0.4086
  318loPI   C1B 5085  14.678   0.256   8.827 -0.0235  0.0326 -0.1183
  318loPI   C2B 5086  14.879   0.098   8.448 -0.0937  0.0590 -0.1593
  318loPI   C3B 5087  14.522   0.138   8.190  0.2905  0.2243 -0.0457
  318loPI   C4B 5088  14.601   0.361   7.786  0.0388 -0.2612  0.3271
  319loPI    C1 5089   7.486   7.034   9.675 -0.1654  0.1540  0.1410
  319loPI    C2 5090   7.525   7.041  10.073 -0.1858  0.0415  0.1451
  319loPI    C3 5091   7.310   6.753   9.898 -0.0259 -0.0153  0.0402
  319loPI   PO4 5092   7.709   7.069   9.434  0.0520 -0.0222 -0.1167
  319loPI   GL1 5093   7.852   7.014   9.115  0.0928 -0.2309 -0.1803
  319loPI   GL2 5094   7.767   6.742   9.050  0.1316  0.1625 -0.0843
  319loPI   C1A 5095   7.954   7.182   8.668 -0.1965  0.1571 -0.2651
  319loPI   C2A 5096   7.982   7.381   8.217  0.0175 -0.0716 -0.2663
  319loPI   C3A 5097   8.191   7.360   7.834 -0.2177  0.1885  0.0669
  319loPI   C4A 5098   8.292   7.251   7.452  0.3174 -0.0856  0.2870
  319loPI   C5A 5099   8.487   6.986   7.148  0.2357  0.0846 -0.1288
  319loPI   C6A 5100   8.885   6.923   6.897  0.1163  0.0650  0.2244
  319loPI   C1B 5101   7.591   6.549   8.776  0.0821 -0.0927 -0.2091
  319loPI   C2B 5102   7.499   6.194   8.518  0.1855  0.4929 -0.0579
  319loPI   C3B 5103   7.499   6.077   8.150  0.1572 -0.0324 -0.0914
  319loPI   C4B 5104   7.720   5.905   7.780  0.3084 -0.0336 -0.0624
  320loPI    C1 5105  15.074  18.242  10.063  0.1422 -0.2266  0.2262
  320loPI    C2 5106  14.931  18.317  10.429 -0.2065 -0.0025  0.0480
  320loPI    C3 5107  14.784  18.013  10.215 -0.0213 -0.1172  0.0820
  320loPI   PO4 5108  14.997  18.464   9.946 -0.0675  0.0783  0.0292
  320loPI   GL1 5109  15.028  18.733   9.648 -0.2935 -0.0373 -0.1486
  320loPI   GL2 5110  14.687  18.687   9.594  0.0763 -0.0661  0.0159
  320loPI   C1A 5111  15.082  18.782   9.236 -0.1250  0.0376 -0.0819
  320loPI   C2A 5112  15.021  18.733   8.819  0.2645  0.2573  0.0371
  320loPI   C3A 5113  15.100  18.610   8.334 -0.0967  0.3324 -0.1180
  320loPI   C4A 5114  15.127  18.357   8.055  0.1875  0.0673  0.1185
  320loPI   C5A 5115  15.415  18.368   7.758 -0.2535  0.0735 -0.0337
  320loPI   C6A 5116  15.790  18.048   7.698  0.2384 -0.1388  0.2480
  320loPI   C1B 5117  14.615  18.539   9.128  0.1429 -0.1173 -0.1430
  320loPI   C2B 5118  14.571  18.577   8.590  0.0891 -0.1654  0.0304
  320loPI   C3B 5119  14.497  18.572   8.176  0.1263 -0.0563  0.1515
  320loPI   C4B 5120  14.648  18.786   7.770  0.2270 -0.1804  0.2283
  321loPI    C1 5121   2.974   1.220  10.218  0.0685 -0.0330  0.0834
  321loPI    C2 5122   2.596   1.133  10.316  0.0956  0.0047  0.2243
  321loPI    C3 5123   2.874   0.845  10.317  0.0295 -0.0641 -0.0710
  321loPI   PO4 5124   2.832   1.360   9.960 -0.2987  0.3523 -0.2543
  321loPI   GL1 5125   2.826   1.345   9.544 -0.0601 -0.2428 -0.2699
  321loPI   GL2 5126   2.568   1.237   9.435 -0.1905 -0.1722 -0.2382
  321loPI   C1A 5127   3.051   1.325   9.108  0.0453 -0.2162 -0.0715
  321loPI   C2A 5128   3.047   1.339   8.620 -0.0675 -0.2074  0.1501
  321loPI   C3A 5129   3.055   1.357   8.135  0.0320 -0.0639  0.2135
  321loPI   C4A 5130   3.160   1.366   7.755 -0.2875  0.0527  0.1605
  321loPI   C5A 5131   2.840   1.437   7.492  0.3310 -0.2589  0.0061
  321loPI   C6A 5132   2.660   1.447   7.149 -0.0354 -0.2719  0.6019
  321loPI   C1B 5133   2.537   1.273   8.974 -0.1183 -0.1152 -0.0954
  321loPI   C2B 5134   2.675   1.029   8.757  0.0328  0.0782  0.0403
  321loPI   C3B 5135   2.596   1.088   8.308  0.3843 -0.2550 -0.1198
  321loPI   C4B 5136   2.682   1.114   7.894  0.2474  0.1661  0.0628
  322loPI    C1 5137  13.474  11.869  10.115  0.0649  0.1056 -0.0077
  322loPI    C2 5138  13.682  11.882  10.456 -0.1008  0.1193  0.0937
  322loPI    C3 5139  13.315  12.040  10.439 -0.1862 -0.0874 -0.0262
  322loPI   PO4 5140  13.579  11.783   9.861  0.0742  0.3041 -0.0340
  322loPI   GL1 5141  13.963  11.780   9.588  0.0469  0.1400  0.0372
  322loPI   GL2 5142  14.304  11.708   9.360 -0.0902 -0.2776  0.1012
  322loPI   C1A 5143  13.840  11.469   9.174  0.1137 -0.4423 -0.1425
  322loPI   C2A 5144  13.971  11.484   8.803  0.1876 -0.1205  0.1533
  322loPI   C3A 5145  14.019  11.525   8.395  0.0304  0.2892  0.0041
  322loPI   C4A 5146  13.999  11.382   7.933  0.1833  0.1811 -0.1630
  322loPI   C5A 5147  13.934  11.233   7.441  0.1156 -0.0043  0.0913
  322loPI   C6A 5148  13.913  11.403   6.944 -0.0872 -0.1256 -0.4435
  322loPI   C1B 5149  14.232  11.857   8.972  0.1744  0.2773 -0.1824
  322loPI   C2B 5150  14.237  11.981   8.490 -0.1696 -0.2026  0.2930
  322loPI   C3B 5151  14.271  11.911   8.072 -0.0144  0.1609 -0.1975
  322loPI   C4B 5152  14.215  12.001   7.708 -0.2204 -0.2250  0.0536
  323loPI    C1 5153   2.822   3.609  10.194  0.0481  0.2638  0.0186
  323loPI    C2 5154   2.466   3.428  10.175  0.1415  0.0865 -0.0693
  323loPI    C3 5155   2.522   3.732  10.429  0.0535 -0.1676  0.2617
  323loPI   PO4 5156   2.942   3.685   9.893 -0.0396  0.2564  0.2224
  323loPI   GL1 5157   2.888   4.036   9.490 -0.1540  0.0134 -0.3174
  323loPI   GL2 5158   3.003   3.730   9.380  0.1185 -0.0074 -0.0591
  323loPI   C1A 5159   2.849   4.046   9.015  0.3283 -0.2352 -0.0009
  323loPI   C2A 5160   2.805   4.189   8.600  0.2288  0.1416 -0.2403
  323loPI   C3A 5161   2.787   4.177   8.107 -0.0487 -0.1915 -0.1059
  323loPI   C4A 5162   2.580   3.928   7.693 -0.0716 -0.1024 -0.0882
  323loPI   C5A 5163   2.415   3.593   7.645 -0.0415 -0.2332  0.0580
  323loPI   C6A 5164   2.041   3.314   7.682  0.1569  0.2555 -0.2462
  323loPI   C1B 5165   2.853   3.557   8.940  0.2789 -0.0814 -0.1803
  323loPI   C2B 5166   2.867   3.680   8.515 -0.0524 -0.0468  0.2307
  323loPI   C3B 5167   2.834   3.645   8.020 -0.1688  0.0260 -0.1805
  323loPI   C4B 5168   2.890   3.336   7.568  0.1724  0.1133  0.4259
  324loPI    C1 5169   6.949  12.597   9.751 -0.3541  0.1271  0.0287
  324loPI    C2 5170   7.064  12.367  10.057  0.0136  0.2165 -0.0362
  324loPI    C3 5171   6.680  12.474  10.020 -0.0345  0.2139  0.3974
  324loPI   PO4 5172   7.039  12.505   9.567 -0.1055 -0.1247 -0.0130
  324loPI   GL1 5173   7.556  12.435   9.409  0.0081  0.2291 -0.1083
  324loPI   GL2 5174   7.706  12.730   9.394  0.1676 -0.0675  0.3602
  324loPI   C1A 5175   7.763  12.391   8.979 -0.2667 -0.2198 -0.0078
  324loPI   C2A 5176   7.576  12.296   8.559  0.1148  0.1855 -0.0165
  324loPI   C3A 5177   7.503  12.129   8.160  0.0318 -0.1181  0.2173
  324loPI   C4A 5178   7.547  12.178   7.747  0.2359  0.2183 -0.2316
  324loPI   C5A 5179   7.419  11.920   7.528 -0.0422  0.1576 -0.0832
  324loPI   C6A 5180   7.460  11.610   7.199  0.2102 -0.2305 -0.3145
  324loPI   C1B 5181   8.048  12.849   9.056  0.0860 -0.2546  0.1078
  324loPI   C2B 5182   8.071  13.098   8.645  0.3911 -0.0896 -0.1779
  324loPI   C3B 5183   7.970  13.054   8.179 -0.1825  0.1727 -0.4658
  324loPI   C4B 5184   7.980  12.961   7.703  0.0394 -0.1919  0.1464
  325loPI    C1 5185  16.564  16.318  10.096  0.0060  0.0115 -0.1210
  325loPI    C2 5186  16.318  16.116  10.337  0.0564 -0.1258 -0.1840
  325loPI    C3 5187  16.682  15.971  10.255  0.2291  0.1628  0.0511
  325loPI   PO4 5188  16.301  16.435   9.945  0.1200  0.1467  0.1997
  325loPI   GL1 5189  16.552  16.729   9.603  0.2562  0.0703  0.1020
  325loPI   GL2 5190  16.338  16.945   9.420  0.3622 -0.5015  0.1473
  325loPI   C1A 5191  16.547  16.538   9.226 -0.0561 -0.2006 -0.0301
  325loPI   C2A 5192  16.539  16.501   8.765  0.0470 -0.1446 -0.1447
  325loPI   C3A 5193  16.555  16.467   8.385 -0.4230 -0.0307 -0.2922
  325loPI   C4A 5194  16.520  16.467   8.059 -0.0815 -0.0503  0.2338
  325loPI   C5A 5195  16.621  16.303   7.671 -0.0528 -0.0189  0.0946
  325loPI   C6A 5196  16.607  15.929   7.305  0.2139  0.1906 -0.0875
  325loPI   C1B 5197  16.410  17.022   9.114 -0.0804 -0.0295 -0.2542
  325loPI   C2B 5198  16.210  16.953   8.696 -0.0734  0.2194 -0.1355
  325loPI   C3B 5199  16.168  16.879   8.257  0.2472 -0.0474  0.0946
  325loPI   C4B 5200  15.947  16.477   8.026  0.3497 -0.1984 -0.2580
  326loPI    C1 5201   3.237   2.492   9.931  0.0180  0.0625  0.2186
  326loPI    C2 5202   3.169   2.855   9.780  0.1605  0.0585  0.1430
  326loPI    C3 5203   2.929   2.550   9.683  0.1616  0.0885  0.0451
  326loPI   PO4 5204   3.581   2.491   9.808 -0.3133 -0.0746  0.0082
  326loPI   GL1 5205   3.673   2.659   9.487 -0.1128  0.1229  0.1263
  326loPI   GL2 5206   3.532   2.978   9.486 -0.2241 -0.1060 -0.0664
  326loPI   C1A 5207   3.899   2.900   9.198  0.0842 -0.0008 -0.2138
  326loPI   C2A 5208   4.130   2.831   8.774 -0.2339  0.0013  0.0711
  326loPI   C3A 5209   4.202   2.726   8.326 -0.0716 -0.0789  0.2335
  326loPI   C4A 5210   4.109   2.753   7.840  0.0191  0.0487 -0.0104
  326loPI   C5A 5211   3.752   2.540   7.503 -0.0369 -0.2052  0.1244
  326loPI   C6A 5212   3.637   2.216   7.258  0.0850 -0.0511  0.0862
  326loPI   C1B 5213   3.495   3.309   9.108  0.0050  0.1890 -0.0623
  326loPI   C2B 5214   3.327   3.482   8.733  0.2089  0.3507 -0.0115
  326loPI   C3B 5215   3.244   3.463   8.303  0.0925 -0.2601 -0.1058
  326loPI   C4B 5216   3.363   3.520   7.867  0.0115 -0.3944  0.3875
  327loPI    C1 5217  16.379   9.467  10.534 -0.0089 -0.2305 -0.0595
  327loPI    C2 5218  16.596   9.256  10.796  0.0841  0.1770  0.2022
  327loPI    C3 5219  16.321   9.516  10.927 -0.2092  0.0378 -0.1188
  327loPI   PO4 5220  16.297   9.165  10.380 -0.0612  0.2602  0.0900
  327loPI   GL1 5221  16.222   9.193   9.959 -0.0014  0.3090  0.0774
  327loPI   GL2 5222  16.418   9.378   9.918 -0.0203  0.2506  0.3732
  327loPI   C1A 5223  16.017   9.146   9.554 -0.3220 -0.0736  0.0390
  327loPI   C2A 5224  16.009   9.208   9.067  0.1892  0.2346 -0.1738
  327loPI   C3A 5225  16.221   9.257   8.668  0.0563 -0.0299  0.0274
  327loPI   C4A 5226  16.298   8.925   8.229 -0.2782 -0.2727 -0.1615
  327loPI   C5A 5227  16.029   8.620   7.885 -0.2897  0.0300 -0.4177
  327loPI   C6A 5228  15.970   8.792   7.462 -0.0241 -0.3380  0.4011
  327loPI   C1B 5229  16.435   9.351   9.423 -0.0734 -0.0415 -0.2311
  327loPI   C2B 5230  16.507   9.113   9.063 -0.3525 -0.0813 -0.3189
  327loPI   C3B 5231  16.638   8.964   8.595 -0.2809  0.1411  0.3434
  327loPI   C4B 5232  16.867   8.720   8.326  0.0350  0.0280  0.2571
  328loPI    C1 5233  12.333   2.537   9.901 -0.0668 -0.1492  0.1603
  328loPI    C2 5234  12.648   2.300   9.969  0.2166  0.2067  0.1162
  328loPI    C3 5235  12.450   2.464  10.276  0.2394  0.1944  0.1374
  328loPI   PO4 5236  12.211   2.436   9.747  0.0633  0.1611  0.1089
  328loPI   GL1 5237  12.198   2.044   9.603 -0.0788 -0.1207 -0.5745
  328loPI   GL2 5238  12.519   1.928   9.524  0.1679 -0.3022 -0.1445
  328loPI   C1A 5239  12.097   2.090   9.226 -0.1630  0.0890  0.3805
  328loPI   C2A 5240  12.180   1.887   8.847 -0.1736  0.1558 -0.2594
  328loPI   C3A 5241  12.202   1.985   8.465  0.3923  0.0402 -0.3573
  328loPI   C4A 5242  11.985   2.275   8.188 -0.1211  0.3977 -0.0346
  328loPI   C5A 5243  11.885   2.300   7.777 -0.0831 -0.2346 -0.1791
  328loPI   C6A 5244  11.788   2.430   7.364 -0.0624  0.0656 -0.4168
  328loPI   C1B 5245  12.386   1.620   9.162  0.1355  0.4190  0.1134
  328loPI   C2B 5246  12.349   1.345   8.739  0.1211  0.1337 -0.1920
  328loPI   C3B 5247  12.327   1.228   8.266  0.0185  0.3046 -0.0138
  328loPI   C4B 5248  12.168   1.373   7.850  0.0301  0.0225  0.0704
  329loPI    C1 5249  17.794   4.405  10.419 -0.1234  0.0502  0.1288
  329loPI    C2 5250  18.194   4.396  10.401 -0.1287 -0.2018  0.0868
  329loPI    C3 5251  17.990   4.061  10.479 -0.3484 -0.1523 -0.2543
  329loPI   PO4 5252  17.760   4.580  10.258  0.1637  0.0032  0.1207
  329loPI   GL1 5253  17.719   4.874   9.858  0.2609 -0.5091  0.2906
  329loPI   GL2 5254  17.804   4.656   9.814 -0.1089 -0.0658 -0.0365
  329loPI   C1A 5255  17.984   4.971   9.408  0.1762 -0.0239 -0.1794
  329loPI   C2A 5256  17.957   5.117   8.986 -0.1130  0.0157 -0.2037
  329loPI   C3A 5257  18.113   5.034   8.605 -0.2495 -0.1173 -0.1230
  329loPI   C4A 5258  18.284   5.012   8.185 -0.2306 -0.0381  0.0043
  329loPI   C5A 5259  18.482   4.806   7.805 -0.3423  0.0549 -0.4022
  329loPI   C6A 5260  18.015   4.743   7.753 -0.2528 -0.0466 -0.0104
  329loPI   C1B 5261  18.164   4.512   9.461  0.1954  0.0704 -0.0738
  329loPI   C2B 5262  18.141   4.650   9.045 -0.0909  0.1349  0.1911
  329loPI   C3B 5263  18.060   4.524   8.627  0.0364 -0.0847  0.5178
  329loPI   C4B 5264  18.177   4.393   8.274 -0.3381  0.0812 -0.1245
  330loPI    C1 5265  12.747  18.760  10.092 -0.2675  0.2063  0.1979
  330loPI    C2 5266  12.991  18.992  10.308  0.0184  0.2870 -0.2004
  330loPI    C3 5267  13.007  18.594  10.347  0.0547  0.3014 -0.0616
  330loPI   PO4 5268  12.862  18.870   9.861  0.0723 -0.1881 -0.0398
  330loPI   GL1 5269  12.746  19.128   9.506  0.1337 -0.0884  0.2809
  330loPI   GL2 5270  12.680  18.841   9.385  0.0270 -0.2742 -0.3458
  330loPI   C1A 5271  13.079  19.098   9.199 -0.1110 -0.0088  0.2831
  330loPI   C2A 5272  13.414  18.922   9.058 -0.0703 -0.0588 -0.2191
  330loPI   C3A 5273  13.688  18.848   8.685  0.1162  0.0559  0.2931
  330loPI   C4A 5274  13.705  19.012   8.329 -0.0219 -0.1699 -0.0950
  330loPI   C5A 5275  13.607  19.143   7.892  0.0254  0.2122 -0.2441
  330loPI   C6A 5276  13.771  19.094   7.489 -0.1265 -0.1707  0.2828
  330loPI   C1B 5277  12.937  18.665   9.045 -0.0102  0.2721 -0.0403
  330loPI   C2B 5278  13.037  18.563   8.669 -0.0297 -0.3567 -0.0347
  330loPI   C3B 5279  12.985  18.429   8.204 -0.2866 -0.0138  0.0908
  330loPI   C4B 5280  13.235  18.583   7.888  0.2631 -0.1176  0.1681
  331loPI    C1 5281   2.553  15.485   9.781  0.1794 -0.1568  0.1619
  331loPI    C2 5282   2.229  15.681   9.911  0.2825  0.1557 -0.0403
  331loPI    C3 5283   2.588  15.760  10.069  0.2864 -0.0712  0.0684
  331loPI   PO4 5284   2.554  15.543   9.492  0.0684 -0.1498  0.2609
  331loPI   GL1 5285   2.473  15.883   9.195 -0.1478 -0.0227  0.2753
  331loPI   GL2 5286   2.263  16.126   9.193 -0.1031  0.0640 -0.0961
  331loPI   C1A 5287   2.704  15.952   8.761 -0.0664 -0.0371 -0.1768
  331loPI   C2A 5288   3.056  16.213   8.550  0.2997  0.1099 -0.1948
  331loPI   C3A 5289   3.202  16.203   8.151 -0.1019 -0.3904 -0.0180
  331loPI   C4A 5290   3.372  15.991   7.847 -0.1360 -0.0239 -0.0386
  331loPI   C5A 5291   3.245  15.655   7.635  0.2962  0.2803 -0.2808
  331loPI   C6A 5292   3.509  15.340   7.477  0.2823 -0.1251  0.0157
  331loPI   C1B 5293   2.173  16.010   8.745  0.4491  0.0021  0.3052
  331loPI   C2B 5294   1.962  16.031   8.313 -0.3683  0.0059  0.3344
  331loPI   C3B 5295   1.891  16.085   7.881  0.1483 -0.1426  0.0562
  331loPI   C4B 5296   1.951  16.031   7.413 -0.2051 -0.2812  0.3243
  332loPI    C1 5297   5.268   7.031   9.989 -0.1493 -0.0625  0.0556
  332loPI    C2 5298   5.330   7.365  10.200 -0.2254 -0.1371  0.1972
  332loPI    C3 5299   5.284   7.015  10.389 -0.1047 -0.2346  0.0478
  332loPI   PO4 5300   5.385   7.054   9.780  0.0459  0.1062 -0.0951
  332loPI   GL1 5301   5.323   7.177   9.362 -0.0790  0.2340  0.1824
  332loPI   GL2 5302   5.025   7.291   9.370 -0.0511  0.0768 -0.1771
  332loPI   C1A 5303   5.278   7.061   8.952 -0.1426 -0.0106 -0.0563
  332loPI   C2A 5304   5.303   7.039   8.555 -0.2911  0.0401  0.0037
  332loPI   C3A 5305   5.528   6.964   8.162 -0.1394  0.0600  0.2448
  332loPI   C4A 5306   5.376   6.728   7.645  0.1143  0.0028  0.2273
  332loPI   C5A 5307   5.459   6.680   7.302 -0.1908  0.0686  0.3055
  332loPI   C6A 5308   5.843   6.789   7.131  0.0737 -0.1005  0.2814
  332loPI   C1B 5309   4.960   7.462   8.956 -0.0111  0.0296  0.2012
  332loPI   C2B 5310   4.850   7.733   8.697  0.0868  0.1179  0.3532
  332loPI   C3B 5311   4.748   7.637   8.257  0.0583 -0.3279 -0.1698
  332loPI   C4B 5312   4.613   7.289   7.988  0.0972 -0.1719  0.2394
  333loPI    C1 5313   0.356  16.216  10.222  0.1601  0.1409 -0.0165
  333loPI    C2 5314   0.421  15.846  10.359 -0.1245  0.0571 -0.1002
  333loPI    C3 5315   0.324  16.139  10.613 -0.2793 -0.0134 -0.0769
  333loPI   PO4 5316   0.216  16.225   9.981  0.1542 -0.1615 -0.0957
  333loPI   GL1 5317   0.301  16.456   9.577  0.0824 -0.2407  0.0967
  333loPI   GL2 5318   0.062  16.265   9.527  0.0181 -0.0474  0.0619
  333loPI   C1A 5319   0.284  16.293   9.115  0.2486  0.0776 -0.0414
  333loPI   C2A 5320   0.062  16.392   8.674 -0.0315 -0.3769  0.0529
  333loPI   C3A 5321   0.098  16.410   8.233 -0.1509  0.4036  0.3089
  333loPI   C4A 5322   0.099  16.470   7.786 -0.4745  0.2063 -0.2065
  333loPI   C5A 5323  -0.093  16.277   7.507  0.0080  0.0742  0.0804
  333loPI   C6A 5324  -0.133  15.776   7.371 -0.2417  0.1273  0.2787
  333loPI   C1B 5325  -0.174  16.065   9.048  0.1494  0.1745 -0.3586
  333loPI   C2B 5326  -0.272  16.019   8.664  0.2058  0.0161 -0.1466
  333loPI   C3B 5327  -0.422  16.218   8.348 -0.0753  0.0330  0.1150
  333loPI   C4B 5328  -0.364  16.581   8.022 -0.1913  0.2443  0.2897
  334loPI    C1 5329   5.819  13.024   9.820  0.0031  0.0109  0.1153
  334loPI    C2 5330   5.642  12.991  10.177  0.0630  0.1188  0.1553
  334loPI    C3 5331   5.999  13.169  10.146 -0.0026  0.2291  0.0230
  334loPI   PO4 5332   5.599  12.706   9.707  0.1816 -0.1539 -0.1029
  334loPI   GL1 5333   5.537  12.517   9.270  0.1319  0.2071  0.2920
  334loPI   GL2 5334   5.290  12.272   9.173 -0.0758  0.0195 -0.0211
  334loPI   C1A 5335   5.823  12.598   8.966  0.1760  0.4264  0.0627
  334loPI   C2A 5336   5.677  12.588   8.556  0.0085 -0.0702 -0.2362
  334loPI   C3A 5337   5.423  12.553   8.126 -0.2954 -0.1309  0.2625
  334loPI   C4A 5338   5.708  12.733   7.716  0.2224  0.3055 -0.2971
  334loPI   C5A 5339   5.642  13.049   7.419  0.2754 -0.2868  0.0122
  334loPI   C6A 5340   5.733  13.365   7.435  0.0410 -0.1969  0.1017
  334loPI   C1B 5341   5.188  12.465   8.833  0.2017  0.0162 -0.0999
  334loPI   C2B 5342   5.161  12.312   8.508 -0.2755 -0.0189  0.2412
  334loPI   C3B 5343   5.143  12.157   7.995 -0.1268  0.1713  0.1936
  334loPI   C4B 5344   5.209  11.988   7.526  0.0838 -0.0612  0.0805
  335loPI    C1 5345  12.892   8.572  10.119 -0.0470 -0.0494  0.1592
  335loPI    C2 5346  12.645   8.456   9.827  0.0600 -0.0089  0.0518
  335loPI    C3 5347  12.589   8.808  10.009 -0.1495 -0.1394  0.2457
  335loPI   PO4 5348  13.142   8.569   9.967 -0.0725  0.0197  0.0289
  335loPI   GL1 5349  13.081   8.793   9.661  0.1785  0.0912  0.0234
  335loPI   GL2 5350  13.346   8.776   9.517 -0.4196 -0.1040  0.0769
  335loPI   C1A 5351  13.043   8.735   9.134 -0.1049  0.0140  0.0528
  335loPI   C2A 5352  12.989   8.694   8.726 -0.1762  0.1759  0.1563
  335loPI   C3A 5353  13.172   8.577   8.343  0.0124  0.0132 -0.4968
  335loPI   C4A 5354  13.119   8.350   7.914 -0.0152  0.1190  0.2064
  335loPI   C5A 5355  13.075   7.987   7.719 -0.0483  0.0274  0.5177
  335loPI   C6A 5356  12.880   7.652   7.393 -0.2365 -0.0403 -0.1171
  335loPI   C1B 5357  13.587   8.763   9.095 -0.0122 -0.5904 -0.1142
  335loPI   C2B 5358  13.921   8.828   8.809 -0.3010 -0.1930 -0.0114
  335loPI   C3B 5359  14.376   8.834   8.665 -0.2556  0.1039  0.0980
  335loPI   C4B 5360  14.509   9.220   8.629 -0.2444  0.0239  0.1015
  336loPI    C1 5361   3.545  12.052   9.798  0.0505 -0.0221 -0.1377
  336loPI    C2 5362   3.402  12.331  10.046  0.1296 -0.0457 -0.0648
  336loPI    C3 5363   3.747  12.147  10.130  0.1435 -0.0729 -0.1794
  336loPI   PO4 5364   3.302  12.118   9.577  0.2815  0.1666 -0.1172
  336loPI   GL1 5365   3.152  12.112   9.174  0.0884 -0.0597 -0.2064
  336loPI   GL2 5366   3.304  12.425   9.046 -0.2733 -0.1355 -0.0235
  336loPI   C1A 5367   3.372  12.040   8.754 -0.3776  0.1936  0.1248
  336loPI   C2A 5368   3.312  11.978   8.322  0.1705 -0.1390 -0.0373
  336loPI   C3A 5369   3.489  12.060   7.905  0.1973  0.2265 -0.1501
  336loPI   C4A 5370   3.878  12.191   7.740 -0.0089  0.2949 -0.0752
  336loPI   C5A 5371   4.122  12.439   7.427 -0.2223  0.2390 -0.0289
  336loPI   C6A 5372   4.089  12.739   7.139  0.0834 -0.1149 -0.0866
  336loPI   C1B 5373   3.410  12.550   8.654 -0.2632 -0.1907  0.1941
  336loPI   C2B 5374   3.298  12.489   8.290  0.1018 -0.1306 -0.1876
  336loPI   C3B 5375   3.023  12.501   7.935 -0.0369 -0.0736  0.1834
  336loPI   C4B 5376   2.658  12.348   7.693 -0.2014  0.1585 -0.0376
  337loPI    C1 5377   4.925   9.325   9.930  0.1226  0.0862  0.0092
  337loPI    C2 5378   5.259   9.114   9.993  0.1448  0.1618  0.1491
  337loPI    C3 5379   5.032   9.227  10.302 -0.0322  0.0774  0.0522
  337loPI   PO4 5380   4.809   9.275   9.779 -0.1429 -0.3910 -0.1005
  337loPI   GL1 5381   4.893   9.227   9.358 -0.1977  0.2936 -0.2168
  337loPI   GL2 5382   5.083   9.392   9.208  0.3193  0.1024 -0.0935
  337loPI   C1A 5383   4.697   9.006   9.092  0.1749 -0.0374  0.0730
  337loPI   C2A 5384   4.871   8.773   8.845 -0.2486 -0.0092  0.1829
  337loPI   C3A 5385   4.946   8.579   8.420 -0.1385  0.0655  0.0641
  337loPI   C4A 5386   4.976   8.521   7.966 -0.1644  0.0511 -0.1921
  337loPI   C5A 5387   4.904   8.451   7.630  0.0895 -0.1175 -0.1394
  337loPI   C6A 5388   4.421   8.261   7.518 -0.1780 -0.1545  0.0643
  337loPI   C1B 5389   5.180   9.271   8.889 -0.0666 -0.0379  0.0601
  337loPI   C2B 5390   5.100   9.107   8.573  0.2108  0.0026 -0.1185
  337loPI   C3B 5391   5.428   8.974   8.220  0.0727  0.3791  0.2571
  337loPI   C4B 5392   5.552   8.948   7.784  0.2955  0.0612 -0.3297
  338loPI    C1 5393  15.408  14.242   9.899  0.1116  0.3827 -0.0008
  338loPI    C2 5394  15.393  14.059  10.254  0.2806 -0.0447 -0.2072
  338loPI    C3 5395  15.274  14.439  10.220 -0.2299 -0.1563  0.2012
  338loPI   PO4 5396  15.303  14.101   9.749 -0.0421 -0.1512 -0.0162
  338loPI   GL1 5397  15.318  13.726   9.472 -0.3415 -0.0452 -0.2323
  338loPI   GL2 5398  14.991  13.427   9.383 -0.3564  0.3185 -0.0495
  338loPI   C1A 5399  15.265  13.639   9.061 -0.2601  0.0140  0.0754
  338loPI   C2A 5400  15.299  13.481   8.609  0.1372  0.1048 -0.1527
  338loPI   C3A 5401  15.266  13.211   8.428 -0.0330  0.2854  0.0365
  338loPI   C4A 5402  15.429  12.977   8.167  0.2295 -0.1790 -0.0850
  338loPI   C5A 5403  15.466  12.575   7.836  0.2465 -0.0153  0.0257
  338loPI   C6A 5404  15.406  12.170   7.539 -0.0333  0.0815  0.2540
  338loPI   C1B 5405  14.789  13.529   8.897  0.0688 -0.1441 -0.0340
  338loPI   C2B 5406  14.856  13.541   8.420  0.3245 -0.2730 -0.0609
  338loPI   C3B 5407  14.856  13.510   7.978 -0.0817 -0.0538  0.0590
  338loPI   C4B 5408  14.560  13.383   7.711  0.0506  0.2194  0.1851
  339loPI    C1 5409   9.034   4.567  10.201  0.0234 -0.0770 -0.1239
  339loPI    C2 5410   9.382   4.764  10.200 -0.0319  0.0234  0.0376
  339loPI    C3 5411   9.304   4.498  10.488 -0.1856  0.1770  0.1399
  339loPI   PO4 5412   9.020   4.567   9.942  0.2419  0.0617 -0.0630
  339loPI   GL1 5413   8.757   4.821   9.638  0.3233  0.2420  0.0127
  339loPI   GL2 5414   8.529   4.536   9.543 -0.0198 -0.3698 -0.1979
  339loPI   C1A 5415   8.603   5.034   9.238  0.0420 -0.2112 -0.4164
  339loPI   C2A 5416   8.296   4.961   8.989 -0.1526 -0.1779 -0.2624
  339loPI   C3A 5417   8.114   4.631   8.758  0.2748  0.4194  0.2380
  339loPI   C4A 5418   8.058   4.742   8.306 -0.0118  0.0974  0.0426
  339loPI   C5A 5419   7.938   4.565   7.953 -0.0293 -0.1753  0.1279
  339loPI   C6A 5420   7.826   4.225   7.612 -0.2328  0.3323 -0.0545
  339loPI   C1B 5421   8.357   4.518   9.194 -0.2716 -0.1710  0.4072
  339loPI   C2B 5422   8.290   4.110   8.894  0.1384 -0.1474 -0.2311
  339loPI   C3B 5423   8.435   3.997   8.593 -0.0990 -0.1801 -0.3032
  339loPI   C4B 5424   8.539   3.933   8.168  0.1253 -0.2934  0.0595
  340loPI    C1 5425  13.859   9.802  10.029  0.2719 -0.0143  0.0500
  340loPI    C2 5426  13.707   9.435   9.976  0.0086  0.1115 -0.0861
  340loPI    C3 5427  13.731   9.590  10.344  0.4059 -0.1588  0.0083
  340loPI   PO4 5428  14.042   9.824   9.916 -0.2229  0.0401 -0.3634
  340loPI   GL1 5429  14.227   9.742   9.683  0.1523  0.2605 -0.0324
  340loPI   GL2 5430  14.605   9.801   9.506 -0.1224  0.1870 -0.1924
  340loPI   C1A 5431  14.066   9.625   9.242  0.2664  0.1837  0.0133
  340loPI   C2A 5432  14.054   9.288   8.830 -0.1437  0.1458  0.2663
  340loPI   C3A 5433  14.055   9.136   8.419  0.0504 -0.0580 -0.0153
  340loPI   C4A 5434  14.033   8.841   7.956 -0.0324  0.0665  0.0338
  340loPI   C5A 5435  14.029   8.449   7.889 -0.0558  0.1360 -0.1126
  340loPI   C6A 5436  14.073   8.140   8.008 -0.2060 -0.2456  0.0650
  340loPI   C1B 5437  14.794   9.959   9.092 -0.2182  0.0796 -0.1449
  340loPI   C2B 5438  14.868   9.933   8.696  0.2533  0.0464  0.0586
  340loPI   C3B 5439  14.793   9.667   8.393 -0.3832 -0.3157 -0.3163
  340loPI   C4B 5440  14.834   9.352   8.157 -0.1493  0.1089  0.0409
  341loPI    C1 5441   5.487   4.366  10.019 -0.0756  0.0241 -0.1108
  341loPI    C2 5442   5.107   4.469   9.953 -0.1456 -0.0713  0.1313
  341loPI    C3 5443   5.258   4.489  10.323  0.1077  0.0369  0.0246
  341loPI   PO4 5444   5.637   4.459   9.855 -0.0874  0.0930  0.0278
  341loPI   GL1 5445   5.809   4.287   9.482  0.0548  0.0063  0.1470
  341loPI   GL2 5446   5.783   3.985   9.412 -0.2423  0.0285  0.0601
  341loPI   C1A 5447   5.537   4.341   9.099  0.0262 -0.0451 -0.1434
  341loPI   C2A 5448   5.303   4.416   8.700  0.1407 -0.2944  0.1642
  341loPI   C3A 5449   5.090   4.596   8.340 -0.1670 -0.2504 -0.0461
  341loPI   C4A 5450   5.008   4.700   7.879 -0.0443  0.3315 -0.0243
  341loPI   C5A 5451   4.638   4.591   7.651  0.1986 -0.0596  0.4397
  341loPI   C6A 5452   4.277   4.324   7.711  0.0449  0.3605 -0.0220
  341loPI   C1B 5453   5.864   4.066   8.928 -0.0907  0.0098  0.1232
  341loPI   C2B 5454   5.813   3.959   8.544  0.0646 -0.0056  0.0597
  341loPI   C3B 5455   5.546   3.778   8.141 -0.0396  0.0141 -0.0750
  341loPI   C4B 5456   5.155   3.650   8.027  0.1034 -0.2395  0.4578
  342loPI    C1 5457  12.623  15.572  10.192  0.0083  0.0474  0.1775
  342loPI    C2 5458  12.796  15.216  10.134 -0.2013 -0.0005 -0.1882
  342loPI    C3 5459  12.797  15.382  10.498 -0.0690 -0.3559 -0.0211
  342loPI   PO4 5460  12.617  15.745   9.986 -0.0067  0.2837  0.3018
  342loPI   GL1 5461  12.336  15.819   9.516 -0.2601  0.0640  0.2716
  342loPI   GL2 5462  12.430  15.573   9.354  0.1978 -0.1884 -0.0313
  342loPI   C1A 5463  12.559  16.000   9.097 -0.1126 -0.1674 -0.1321
  342loPI   C2A 5464  12.538  16.074   8.654  0.0526  0.0427  0.2282
  342loPI   C3A 5465  12.613  16.071   8.220 -0.0872  0.1562  0.0816
  342loPI   C4A 5466  12.661  16.149   7.807 -0.2281 -0.1299 -0.4011
  342loPI   C5A 5467  13.147  16.213   7.577  0.0952 -0.2801 -0.1764
  342loPI   C6A 5468  13.556  16.448   7.539 -0.0750 -0.0995  0.1827
  342loPI   C1B 5469  12.162  15.557   9.018  0.1559 -0.2014 -0.1643
  342loPI   C2B 5470  12.196  15.574   8.686 -0.0807 -0.1006 -0.2061
  342loPI   C3B 5471  12.066  15.450   8.272  0.0080 -0.1058  0.3999
  342loPI   C4B 5472  11.765  15.405   7.862 -0.2986  0.0098 -0.1975
  343loPI    C1 5473  10.311   5.628  10.163 -0.1411  0.0687 -0.0465
  343loPI    C2 5474  10.541   5.300  10.165 -0.4892 -0.1811  0.0934
  343loPI    C3 5475  10.599   5.587  10.438 -0.0920 -0.0551 -0.1155
  343loPI   PO4 5476  10.242   5.740   9.990 -0.0325 -0.2266  0.2196
  343loPI   GL1 5477  10.306   5.642   9.545  0.3400 -0.0826 -0.0051
  343loPI   GL2 5478  10.553   5.549   9.622 -0.3882  0.2723 -0.0374
  343loPI   C1A 5479  10.279   5.565   9.036 -0.0525  0.2346  0.2082
  343loPI   C2A 5480  10.131   5.581   8.602  0.3024 -0.3784 -0.2629
  343loPI   C3A 5481  10.071   5.691   8.159  0.1052 -0.1279 -0.2694
  343loPI   C4A 5482   9.966   5.716   7.781  0.0880  0.1198 -0.2751
  343loPI   C5A 5483  10.098   5.700   7.388 -0.0567  0.0111  0.1778
  343loPI   C6A 5484  10.428   5.839   7.185  0.1940  0.0325  0.4915
  343loPI   C1B 5485  10.783   5.473   9.385  0.1684 -0.0780 -0.1271
  343loPI   C2B 5486  10.739   5.523   8.922  0.2751  0.1399  0.0585
  343loPI   C3B 5487  10.797   5.409   8.559 -0.1427  0.2653  0.0181
  343loPI   C4B 5488  10.637   5.513   8.042 -0.1146  0.0795 -0.1989
  344loPI    C1 5489  14.015  16.957  10.403  0.0463 -0.1316 -0.1130
  344loPI    C2 5490  13.951  16.572  10.317  0.0166 -0.1905  0.1628
  344loPI    C3 5491  13.866  16.712  10.682  0.1699  0.0437  0.1110
  344loPI   PO4 5492  14.134  17.044  10.185  0.0389  0.0545 -0.0402
  344loPI   GL1 5493  14.209  17.051   9.635 -0.2223  0.1473 -0.0726
  344loPI   GL2 5494  14.382  16.956   9.552  0.2083  0.1395  0.2699
  344loPI   C1A 5495  13.895  16.805   9.368  0.4979  0.1781 -0.0056
  344loPI   C2A 5496  13.800  16.805   8.940 -0.1333  0.1645  0.1906
  344loPI   C3A 5497  13.878  16.758   8.529 -0.0189  0.1428 -0.0383
  344loPI   C4A 5498  14.016  16.702   8.150  0.2360 -0.0929  0.0407
  344loPI   C5A 5499  13.976  16.788   7.789 -0.2190  0.1032 -0.3830
  344loPI   C6A 5500  13.972  16.840   7.397  0.2517 -0.3107 -0.0732
  344loPI   C1B 5501  14.294  17.098   9.127  0.1213  0.0082 -0.0992
  344loPI   C2B 5502  14.252  17.163   8.673 -0.1181 -0.0000 -0.2452
  344loPI   C3B 5503  14.178  17.141   8.271 -0.0569  0.0263 -0.0830
  344loPI   C4B 5504  14.271  17.194   7.856  0.4128 -0.0971 -0.4360
  345loPI    C1 5505   7.540  14.456   9.949  0.3159  0.0451  0.0824
  345loPI    C2 5506   7.224  14.690  10.026  0.1871  0.0110 -0.3157
  345loPI    C3 5507   7.411  14.500  10.325 -0.0749  0.1498 -0.0585
  345loPI   PO4 5508   7.728  14.560   9.816  0.0412  0.1167  0.1465
  345loPI   GL1 5509   7.964  14.849   9.522  0.2205  0.0384 -0.0234
  345loPI   GL2 5510   7.914  15.090   9.228 -0.0552 -0.1828 -0.0079
  345loPI   C1A 5511   7.875  14.545   9.147  0.0663  0.2027  0.0200
  345loPI   C2A 5512   7.881  14.657   8.692  0.0526  0.3639  0.0507
  345loPI   C3A 5513   7.844  14.498   8.351 -0.3574 -0.1684 -0.0287
  345loPI   C4A 5514   7.861  14.534   7.981  0.1350  0.0082 -0.1077
  345loPI   C5A 5515   7.911  14.201   7.604  0.2150 -0.0579  0.2832
  345loPI   C6A 5516   8.192  13.888   7.437 -0.0759  0.0066  0.0960
  345loPI   C1B 5517   8.001  15.106   8.752  0.0807  0.1347 -0.5587
  345loPI   C2B 5518   8.071  14.970   8.337 -0.2491  0.0355 -0.2013
  345loPI   C3B 5519   8.087  14.960   7.869 -0.4316  0.0387  0.0435
  345loPI   C4B 5520   8.070  15.138   7.550  0.3919  0.2223 -0.0924
  346loPI    C1 5521   2.081   1.976  10.094 -0.0064  0.2587 -0.1284
  346loPI    C2 5522   1.790   2.038  10.361  0.0105 -0.1820  0.0003
  346loPI    C3 5523   2.158   2.178  10.430 -0.1040  0.1472 -0.0384
  346loPI   PO4 5524   2.036   2.150   9.897 -0.0722 -0.1811 -0.2254
  346loPI   GL1 5525   1.869   2.124   9.351 -0.0390 -0.0474  0.2404
  346loPI   GL2 5526   2.163   2.236   9.308  0.0386  0.0235 -0.0052
  346loPI   C1A 5527   1.809   2.051   8.873  0.0149 -0.0890 -0.1652
  346loPI   C2A 5528   1.724   2.089   8.441 -0.1663  0.0577  0.0452
  346loPI   C3A 5529   1.612   2.089   8.022  0.1764 -0.0015  0.0489
  346loPI   C4A 5530   1.470   2.141   7.655  0.3054  0.4170  0.0287
  346loPI   C5A 5531   1.021   2.217   7.463 -0.1707  0.2519  0.0691
  346loPI   C6A 5532   0.721   2.380   7.349  0.1576  0.0516 -0.1411
  346loPI   C1B 5533   2.303   2.173   8.796 -0.0327  0.3029 -0.1812
  346loPI   C2B 5534   2.222   2.197   8.406  0.0867 -0.5459 -0.0703
  346loPI   C3B 5535   2.100   2.376   8.102  0.2201 -0.0064  0.0060
  346loPI   C4B 5536   2.014   2.343   7.661 -0.0147 -0.3970  0.2647
  347loPI    C1 5537  11.294   5.010  10.151 -0.2450 -0.0987  0.1828
  347loPI    C2 5538  11.642   4.840  10.251 -0.1826  0.0491  0.2194
  347loPI    C3 5539  11.369   4.919  10.533 -0.1686  0.1053  0.2175
  347loPI   PO4 5540  11.422   5.183   9.984  0.2937  0.2583 -0.1960
  347loPI   GL1 5541  11.385   4.993   9.630  0.0563 -0.0875 -0.1895
  347loPI   GL2 5542  11.403   4.679   9.762 -0.2102  0.2519  0.0562
  347loPI   C1A 5543  11.757   4.896   9.373 -0.0488 -0.1164 -0.5445
  347loPI   C2A 5544  12.053   4.941   9.137  0.0288  0.0327 -0.2543
  347loPI   C3A 5545  12.108   4.820   8.642 -0.1253  0.1013 -0.1973
  347loPI   C4A 5546  12.219   4.842   8.205  0.1474 -0.1116 -0.0672
  347loPI   C5A 5547  12.026   4.952   7.792 -0.0336  0.0759 -0.3966
  347loPI   C6A 5548  12.058   5.084   7.379  0.1055  0.1529 -0.1401
  347loPI   C1B 5549  11.625   4.442   9.407 -0.0331  0.1034 -0.1063
  347loPI   C2B 5550  11.678   4.526   9.019  0.1385 -0.0445 -0.2063
  347loPI   C3B 5551  11.663   4.585   8.581  0.2407  0.1204 -0.2019
  347loPI   C4B 5552  11.793   4.554   8.087 -0.1446  0.2269  0.0067
  348loPI    C1 5553   1.644   6.367   9.941 -0.1878  0.2303 -0.0119
  348loPI    C2 5554   2.011   6.465  10.066  0.0563 -0.0795 -0.4562
  348loPI    C3 5555   1.792   6.200  10.272 -0.0119  0.2664 -0.0716
  348loPI   PO4 5556   1.651   6.300   9.724  0.0462 -0.0301  0.0622
  348loPI   GL1 5557   1.716   6.121   9.454  0.2135 -0.0842 -0.2504
  348loPI   GL2 5558   1.377   5.924   9.389 -0.1598 -0.0450 -0.1925
  348loPI   C1A 5559   1.743   6.502   9.147  0.1050  0.3153 -0.1845
  348loPI   C2A 5560   1.957   6.657   8.892 -0.0891 -0.1011  0.2530
  348loPI   C3A 5561   2.002   6.651   8.479 -0.1864 -0.2836  0.1506
  348loPI   C4A 5562   2.220   6.720   8.135  0.1498  0.1667  0.0334
  348loPI   C5A 5563   2.255   6.618   7.775  0.2912  0.2735  0.0094
  348loPI   C6A 5564   2.457   6.526   7.358  0.2695 -0.0308  0.1963
  348loPI   C1B 5565   1.410   6.179   8.961  0.2277  0.0704  0.2798
  348loPI   C2B 5566   1.610   6.132   8.597 -0.2114 -0.0886  0.0728
  348loPI   C3B 5567   1.998   6.190   8.255 -0.0976  0.3222  0.1334
  348loPI   C4B 5568   2.358   6.122   7.927 -0.1067  0.0328  0.1037
  349loPI    C1 5569   7.810  17.972   9.918  0.1103 -0.2348  0.1399
  349loPI    C2 5570   7.690  17.678  10.161 -0.1790 -0.1378  0.1185
  349loPI    C3 5571   7.535  18.045  10.199 -0.0686 -0.0697 -0.0744
  349loPI   PO4 5572   7.804  17.833   9.726  0.0409  0.4207  0.1973
  349loPI   GL1 5573   7.637  17.852   9.326 -0.1738 -0.1981  0.0189
  349loPI   GL2 5574   7.573  18.238   9.149 -0.0275  0.0783 -0.0032
  349loPI   C1A 5575   7.803  17.781   8.967 -0.1305 -0.1629 -0.1057
  349loPI   C2A 5576   7.659  17.817   8.620  0.0031 -0.1737 -0.1979
  349loPI   C3A 5577   7.844  17.651   8.318 -0.0808 -0.0649  0.1372
  349loPI   C4A 5578   7.763  17.736   7.869  0.2520  0.1976  0.1793
  349loPI   C5A 5579   7.510  17.719   7.449 -0.3171 -0.0100  0.1363
  349loPI   C6A 5580   7.202  17.597   7.372 -0.0659  0.0942 -0.3223
  349loPI   C1B 5581   7.557  18.280   8.740 -0.1625 -0.0511 -0.3809
  349loPI   C2B 5582   7.688  18.528   8.467  0.1792 -0.1572  0.2536
  349loPI   C3B 5583   7.751  18.598   8.065 -0.1329 -0.3630 -0.1921
  349loPI   C4B 5584   8.197  18.560   7.986 -0.0390  0.1534 -0.0271
  350loPI    C1 5585   6.403  16.720   9.574 -0.1901  0.2296 -0.1037
  350loPI    C2 5586   6.318  16.390   9.783  0.2027  0.1488 -0.0635
  350loPI    C3 5587   6.062  16.697   9.780  0.0852  0.0600  0.3484
  350loPI   PO4 5588   6.443  16.669   9.395  0.0558 -0.3390 -0.0949
  350loPI   GL1 5589   6.600  17.006   8.971 -0.4183  0.0016 -0.5479
  350loPI   GL2 5590   6.788  16.965   9.206  0.3370 -0.1680  0.4214
  350loPI   C1A 5591   6.851  17.003   8.665 -0.2158  0.2688 -0.1432
  350loPI   C2A 5592   6.996  17.081   8.227 -0.2434  0.0427 -0.1287
  350loPI   C3A 5593   7.103  17.240   7.809 -0.0830 -0.1789 -0.0115
  350loPI   C4A 5594   7.248  17.039   7.369 -0.0959 -0.0235 -0.2385
  350loPI   C5A 5595   7.013  16.899   7.033 -0.1812 -0.0223 -0.1387
  350loPI   C6A 5596   6.941  16.664   6.768  0.1182  0.0909 -0.0184
  350loPI   C1B 5597   7.023  16.622   8.912 -0.1678  0.2916  0.0996
  350loPI   C2B 5598   6.942  16.557   8.473 -0.3232 -0.1073  0.0950
  350loPI   C3B 5599   6.806  16.408   8.108  0.0525 -0.0790  0.0708
  350loPI   C4B 5600   6.503  16.300   7.855 -0.3132  0.1117  0.2381
  351loPI    C1 5601   4.507   2.894  10.169  0.2134 -0.0670  0.0253
  351loPI    C2 5602   4.890   2.978  10.250  0.2265 -0.2675  0.1764
  351loPI    C3 5603   4.610   3.032  10.531  0.0873  0.2271 -0.0480
  351loPI   PO4 5604   4.498   2.941   9.940 -0.3674 -0.0570 -0.1672
  351loPI   GL1 5605   4.572   2.854   9.609  0.1480  0.1265  0.1970
  351loPI   GL2 5606   4.317   2.862   9.431 -0.1163  0.3611  0.1039
  351loPI   C1A 5607   4.891   2.764   9.393 -0.0175  0.1746  0.1655
  351loPI   C2A 5608   4.963   2.761   8.980 -0.1351  0.0566  0.0203
  351loPI   C3A 5609   5.183   2.785   8.643 -0.3458  0.1239  0.0745
  351loPI   C4A 5610   5.228   2.809   8.240  0.1066  0.1668  0.1844
  351loPI   C5A 5611   5.446   2.747   7.878 -0.2474  0.2218 -0.1051
  351loPI   C6A 5612   5.630   2.414   7.662 -0.0569  0.1367 -0.4060
  351loPI   C1B 5613   4.468   2.648   9.139  0.2740 -0.2564 -0.4124
  351loPI   C2B 5614   4.590   2.568   8.733  0.0824 -0.0160  0.1080
  351loPI   C3B 5615   4.726   2.609   8.357 -0.3854  0.4235 -0.1607
  351loPI   C4B 5616   4.738   2.712   7.978  0.2219  0.0030 -0.0620
  352loPI    C1 5617   9.029  15.224  10.308  0.1431 -0.2096  0.2330
  352loPI    C2 5618   8.684  15.351  10.465  0.2134 -0.1209  0.3171
  352loPI    C3 5619   8.722  14.971  10.347  0.0048 -0.0687  0.0721
  352loPI   PO4 5620   9.015  15.418  10.026 -0.1346 -0.0522 -0.1071
  352loPI   GL1 5621   9.101  15.497   9.585  0.0259  0.1673  0.3035
  352loPI   GL2 5622   9.270  15.294   9.504  0.3068  0.3338 -0.1988
  352loPI   C1A 5623   9.040  15.607   9.156  0.1774 -0.1194 -0.1323
  352loPI   C2A 5624   9.139  15.572   8.705 -0.1106  0.2474 -0.0785
  352loPI   C3A 5625   9.362  15.613   8.317  0.0833 -0.0356  0.2101
  352loPI   C4A 5626   9.447  15.572   7.901 -0.2455 -0.0021  0.4094
  352loPI   C5A 5627   9.259  15.662   7.480 -0.1293 -0.2155 -0.2087
  352loPI   C6A 5628   9.226  15.609   7.056 -0.0663  0.2107  0.1990
  352loPI   C1B 5629   9.395  15.119   9.163 -0.0837 -0.0892  0.1762
  352loPI   C2B 5630   9.464  14.939   8.779  0.2293 -0.2752  0.3457
  352loPI   C3B 5631   9.435  14.905   8.268 -0.1913 -0.2482  0.0113
  352loPI   C4B 5632   9.109  14.799   8.004 -0.2413  0.2447 -0.0147
  353loPI    C1 5633  13.094   7.847  10.493 -0.0381 -0.1072 -0.0424
  353loPI    C2 5634  13.148   8.244  10.492 -0.0313 -0.1079 -0.1949
  353loPI    C3 5635  12.821   8.087  10.661  0.1068 -0.0581  0.1263
  353loPI   PO4 5636  13.206   7.790  10.281 -0.2394 -0.0347  0.4008
  353loPI   GL1 5637  13.424   7.821   9.906  0.1317 -0.0966  0.0694
  353loPI   GL2 5638  13.639   7.966   9.705  0.0494 -0.0868 -0.3231
  353loPI   C1A 5639  13.278   7.696   9.472  0.0313 -0.0608 -0.2674
  353loPI   C2A 5640  13.327   7.640   9.042  0.0769  0.3071  0.0506
  353loPI   C3A 5641  13.360   7.632   8.695  0.0353  0.1218  0.2388
  353loPI   C4A 5642  13.415   7.457   8.260  0.0015  0.5252 -0.0859
  353loPI   C5A 5643  13.469   7.049   8.035 -0.3001  0.2822  0.1071
  353loPI   C6A 5644  13.446   6.820   7.635 -0.1535 -0.0857  0.3345
  353loPI   C1B 5645  13.718   7.747   9.294 -0.2612 -0.4328  0.4880
  353loPI   C2B 5646  13.766   7.927   8.931 -0.0786 -0.2174 -0.0811
  353loPI   C3B 5647  13.837   7.901   8.536 -0.0124 -0.2053  0.0836
  353loPI   C4B 5648  13.827   7.724   8.198  0.3370  0.1074  0.4672
  354loPI    C1 5649   3.485  13.194   9.789  0.1764 -0.2593 -0.1518
  354loPI    C2 5650   3.363  12.843   9.936 -0.0466 -0.0447  0.1885
  354loPI    C3 5651   3.170  13.180  10.034  0.0613  0.1577 -0.2663
  354loPI   PO4 5652   3.393  13.149   9.502 -0.3837 -0.1649  0.3025
  354loPI   GL1 5653   3.170  12.986   9.149 -0.0802 -0.1376  0.0859
  354loPI   GL2 5654   2.920  13.170   9.106 -0.3945 -0.1753  0.2892
  354loPI   C1A 5655   3.510  12.965   8.887  0.0082 -0.1998 -0.1739
  354loPI   C2A 5656   3.581  12.926   8.448  0.3033 -0.0390 -0.2470
  354loPI   C3A 5657   3.783  13.036   8.037  0.0544 -0.4559 -0.1381
  354loPI   C4A 5658   3.653  13.247   7.656  0.0443 -0.2194 -0.3322
  354loPI   C5A 5659   3.829  13.554   7.287 -0.0032 -0.2505  0.1830
  354loPI   C6A 5660   3.899  13.627   6.781 -0.1670 -0.1345  0.0674
  354loPI   C1B 5661   3.006  13.015   8.709  0.0517 -0.0135  0.2831
  354loPI   C2B 5662   3.127  13.021   8.316  0.0044 -0.0385 -0.1392
  354loPI   C3B 5663   3.311  12.879   7.930  0.2217  0.1436  0.0182
  354loPI   C4B 5664   3.158  12.709   7.500  0.1266  0.2604 -0.0577
  355loPI    C1 5665   6.591  14.601  10.066  0.1063 -0.1817  0.1598
  355loPI    C2 5666   6.632  14.997  10.106 -0.0439 -0.1591  0.0970
  355loPI    C3 5667   6.830  14.750  10.350  0.1392 -0.0480  0.0631
  355loPI   PO4 5668   6.704  14.501   9.698 -0.1752  0.1283 -0.0245
  355loPI   GL1 5669   6.393  14.441   9.295 -0.0075  0.2999  0.0230
  355loPI   GL2 5670   6.597  14.642   9.223 -0.2178 -0.1566 -0.2373
  355loPI   C1A 5671   6.347  14.329   8.865  0.4297 -0.0335  0.0056
  355loPI   C2A 5672   6.468  14.397   8.421  0.3528  0.1113  0.1070
  355loPI   C3A 5673   6.455  14.180   8.006 -0.2551 -0.0828 -0.0694
  355loPI   C4A 5674   6.455  14.038   7.510 -0.1465  0.1813 -0.3013
  355loPI   C5A 5675   6.747  14.051   7.113 -0.3037  0.0229  0.1080
  355loPI   C6A 5676   6.978  14.152   6.756  0.1406 -0.0344 -0.0702
  355loPI   C1B 5677   6.681  14.727   8.755  0.3124  0.1255 -0.1542
  355loPI   C2B 5678   6.932  14.704   8.484 -0.0702 -0.0021  0.1147
  355loPI   C3B 5679   6.955  14.780   8.109 -0.0734 -0.5610  0.0166
  355loPI   C4B 5680   7.135  14.931   7.835 -0.0970  0.1168  0.1869
  356loPI    C1 5681   8.797  12.578  10.054 -0.2922 -0.0418  0.1399
  356loPI    C2 5682   9.019  12.906  10.110 -0.3869  0.0697 -0.1189
  356loPI    C3 5683   8.880  12.701  10.425 -0.0231  0.0683  0.0453
  356loPI   PO4 5684   8.631  12.752   9.829 -0.1118 -0.0145 -0.0304
  356loPI   GL1 5685   8.540  12.687   9.432  0.0629  0.1278  0.1308
  356loPI   GL2 5686   8.245  12.507   9.279 -0.0277  0.1019  0.1643
  356loPI   C1A 5687   8.589  12.715   8.975 -0.0661 -0.1491 -0.0565
  356loPI   C2A 5688   8.625  12.614   8.619  0.2267 -0.1535 -0.0653
  356loPI   C3A 5689   8.407  12.762   8.230  0.0247 -0.0659 -0.0489
  356loPI   C4A 5690   8.372  12.648   7.801 -0.1552  0.1039 -0.3712
  356loPI   C5A 5691   8.471  12.448   7.478  0.0817 -0.1219  0.3475
  356loPI   C6A 5692   8.459  12.031   7.399  0.3373 -0.0754  0.0076
  356loPI   C1B 5693   8.224  12.378   8.868  0.2540  0.3393  0.1122
  356loPI   C2B 5694   8.111  12.457   8.492 -0.1759 -0.2670  0.0082
  356loPI   C3B 5695   8.013  12.435   8.016 -0.0174 -0.2280  0.0851
  356loPI   C4B 5696   8.006  12.372   7.578 -0.1299  0.1300 -0.0654
  357loPI    C1 5697   9.247  10.349  10.116  0.0297  0.2194 -0.0956
  357loPI    C2 5698   9.565  10.109  10.073  0.0346  0.2197 -0.0620
  357loPI    C3 5699   9.502  10.297  10.420  0.0144  0.2436 -0.0786
  357loPI   PO4 5700   9.287  10.462   9.823 -0.2587  0.1288 -0.1603
  357loPI   GL1 5701   9.486  10.417   9.563  0.1437  0.0099 -0.2958
  357loPI   GL2 5702   9.784  10.376   9.458 -0.1872 -0.0664 -0.3406
  357loPI   C1A 5703   9.247  10.146   9.231 -0.1106 -0.0681 -0.2198
  357loPI   C2A 5704   9.349  10.029   8.807 -0.0975  0.2620  0.0839
  357loPI   C3A 5705   9.289  10.057   8.322  0.3687  0.0803 -0.0311
  357loPI   C4A 5706   9.399  10.101   7.915 -0.0298  0.0140 -0.1566
  357loPI   C5A 5707   9.817   9.804   7.940  0.0053  0.2344 -0.2256
  357loPI   C6A 5708  10.225   9.783   7.710 -0.1203  0.0846 -0.3349
  357loPI   C1B 5709   9.691  10.314   9.118  0.1514  0.1002 -0.0208
  357loPI   C2B 5710   9.747  10.182   8.619 -0.0447  0.3132 -0.0949
  357loPI   C3B 5711   9.757  10.285   8.207  0.4536 -0.1415 -0.4660
  357loPI   C4B 5712  10.019  10.249   7.973  0.0611  0.0844 -0.0903
  358loPI    C1 5713  14.544   8.934  10.017 -0.0513 -0.1890 -0.1676
  358loPI    C2 5714  14.331   8.941  10.356 -0.0352  0.0461 -0.1606
  358loPI    C3 5715  14.147   8.884  10.005 -0.1002  0.1664 -0.1468
  358loPI   PO4 5716  14.651   9.192   9.989  0.1833  0.3534  0.0264
  358loPI   GL1 5717  14.608   9.173   9.582  0.1934  0.0506  0.1371
  358loPI   GL2 5718  14.244   9.159   9.544  0.0177 -0.0410 -0.0118
  358loPI   C1A 5719  14.913   9.359   9.250  0.3458 -0.3505 -0.1876
  358loPI   C2A 5720  14.959   9.436   8.909  0.1801 -0.1221  0.1354
  358loPI   C3A 5721  15.218   9.347   8.542 -0.0360  0.0101 -0.3520
  358loPI   C4A 5722  15.343   9.544   8.129  0.1269  0.2578 -0.3494
  358loPI   C5A 5723  15.385   9.448   7.766 -0.0332 -0.1010  0.0464
  358loPI   C6A 5724  15.174   9.280   7.358 -0.0307 -0.3368  0.1109
  358loPI   C1B 5725  13.832   9.160   9.274  0.0049 -0.2178 -0.0100
  358loPI   C2B 5726  13.624   9.481   8.985 -0.0686 -0.0376 -0.0396
  358loPI   C3B 5727  13.791   9.621   8.601  0.3455  0.0222  0.2021
  358loPI   C4B 5728  14.262   9.650   8.451  0.0056 -0.0087 -0.0405
  359loPI    C1 5729  10.215   8.951  10.425  0.0475 -0.0525 -0.0573
  359loPI    C2 5730  10.369   8.949  10.795 -0.0930  0.0521  0.0025
  359loPI    C3 5731   9.979   9.018  10.741 -0.0275  0.2914 -0.1829
  359loPI   PO4 5732  10.408   9.115  10.274 -0.2245  0.0579 -0.0313
  359loPI   GL1 5733  10.548   9.096   9.780  0.0825 -0.0821  0.3390
  359loPI   GL2 5734  10.397   9.348   9.754 -0.2054 -0.1455 -0.2104
  359loPI   C1A 5735  10.558   8.920   9.255  0.0449 -0.1484 -0.0650
  359loPI   C2A 5736  10.665   8.542   8.940 -0.1252 -0.0817  0.0457
  359loPI   C3A 5737  10.815   8.263   8.668  0.0342  0.0846  0.0867
  359loPI   C4A 5738  10.881   8.134   8.390 -0.0212 -0.1211 -0.0276
  359loPI   C5A 5739  11.094   8.032   7.997  0.0299  0.0155  0.0334
  359loPI   C6A 5740  11.282   8.206   7.669 -0.0476 -0.1111 -0.1240
  359loPI   C1B 5741  10.206   9.533   9.389 -0.3455 -0.2803  0.4058
  359loPI   C2B 5742  10.359   9.690   8.969 -0.0522 -0.1537 -0.0499
  359loPI   C3B 5743  10.345   9.486   8.596  0.2159 -0.0705 -0.1145
  359loPI   C4B 5744  10.203   9.397   8.085 -0.1260  0.0402  0.3127
  360loPI    C1 5745  13.889   6.683  10.507 -0.2823  0.1768  0.0238
  360loPI    C2 5746  13.965   6.366  10.739  0.0252 -0.1152 -0.4579
  360loPI    C3 5747  13.999   6.736  10.888  0.4140 -0.2897 -0.0941
  360loPI   PO4 5748  13.926   6.591  10.164 -0.1264 -0.1491 -0.1845
  360loPI   GL1 5749  14.155   6.446   9.814  0.2235  0.0705 -0.1284
  360loPI   GL2 5750  14.587   6.409   9.986  0.0357  0.0571  0.0865
  360loPI   C1A 5751  14.351   6.506   9.502 -0.0669 -0.2539 -0.3228
  360loPI   C2A 5752  14.306   6.394   9.002  0.1266  0.0632  0.1784
  360loPI   C3A 5753  14.357   6.566   8.664  0.1835  0.0862 -0.0245
  360loPI   C4A 5754  14.318   6.540   8.219 -0.4659  0.1113  0.0269
  360loPI   C5A 5755  14.272   6.420   7.766 -0.1105  0.2935 -0.2422
  360loPI   C6A 5756  14.243   6.320   7.313 -0.1142  0.1834  0.1588
  360loPI   C1B 5757  14.435   6.018   9.705 -0.2826 -0.0616 -0.1938
  360loPI   C2B 5758  14.366   5.895   9.221  0.1255  0.0968 -0.2225
  360loPI   C3B 5759  14.398   5.960   8.737  0.1497 -0.2693  0.0362
  360loPI   C4B 5760  14.460   6.060   8.318 -0.2014  0.1145  0.2259
  361loPI    C1 5761  10.953   1.090  10.148 -0.0439 -0.0959  0.2410
  361loPI    C2 5762  11.206   1.399  10.150 -0.1036 -0.0438 -0.0032
  361loPI    C3 5763  11.333   1.037  10.259  0.0030  0.0379  0.1466
  361loPI   PO4 5764  10.810   1.170   9.971 -0.1714  0.0002 -0.2274
  361loPI   GL1 5765  10.686   1.441   9.687  0.1029  0.0221  0.2208
  361loPI   GL2 5766  11.063   1.525   9.636 -0.2432 -0.1969 -0.0399
  361loPI   C1A 5767  10.480   1.182   9.326 -0.2469  0.0561  0.1100
  361loPI   C2A 5768  10.565   0.922   9.023  0.0175 -0.0076 -0.0922
  361loPI   C3A 5769  10.563   0.846   8.589  0.0873 -0.0328 -0.0928
  361loPI   C4A 5770  10.660   0.679   8.234 -0.1465 -0.0766  0.1655
  361loPI   C5A 5771  11.005   0.852   7.963  0.0601 -0.2805 -0.2009
  361loPI   C6A 5772  11.093   1.297   7.899 -0.3532 -0.3155 -0.0506
  361loPI   C1B 5773  10.859   1.570   9.258  0.0183 -0.0858  0.0922
  361loPI   C2B 5774  10.660   1.436   8.921 -0.1231 -0.4922 -0.1166
  361loPI   C3B 5775  10.703   1.417   8.547 -0.0424  0.1795  0.0595
  361loPI   C4B 5776  10.685   1.184   8.156  0.0267  0.3010 -0.1925
  362loPI    C1 5777  10.219  10.161  10.279  0.1776 -0.1024  0.0450
  362loPI    C2 5778   9.968  10.435  10.428  0.0396 -0.2446  0.0775
  362loPI    C3 5779  10.321  10.369  10.605  0.1214 -0.0116  0.0050
  362loPI   PO4 5780  10.318  10.325  10.030  0.0821 -0.1520  0.0929
  362loPI   GL1 5781  10.197  10.571   9.687  0.3384 -0.0565  0.1301
  362loPI   GL2 5782   9.962  10.850   9.667  0.4464  0.2696  0.2243
  362loPI   C1A 5783  10.089  10.680   9.160  0.2708  0.1683  0.3771
  362loPI   C2A 5784   9.932  10.662   8.752  0.0582  0.2430  0.1075
  362loPI   C3A 5785   9.982  10.729   8.279 -0.0533  0.4209 -0.1442
  362loPI   C4A 5786   9.845  10.747   7.853  0.3252 -0.2913  0.0871
  362loPI   C5A 5787   9.501  10.578   7.650  0.0185  0.4392 -0.3762
  362loPI   C6A 5788   9.308  10.615   7.288 -0.2351 -0.0033 -0.2838
  362loPI   C1B 5789   9.602  10.845   9.350 -0.2093  0.0122  0.2241
  362loPI   C2B 5790   9.577  11.047   8.935 -0.1949  0.4585  0.1156
  362loPI   C3B 5791   9.727  11.111   8.560  0.0046 -0.1042 -0.1303
  362loPI   C4B 5792   9.709  11.209   8.108 -0.0426  0.1365 -0.1221
  363loPI    C1 5793  13.362  10.561  10.122  0.1262  0.0717  0.2586
  363loPI    C2 5794  13.003  10.386  10.154  0.1247  0.0715  0.2414
  363loPI    C3 5795  13.066  10.745  10.319 -0.0219  0.2834 -0.1502
  363loPI   PO4 5796  13.369  10.401   9.861  0.3093 -0.0209 -0.2331
  363loPI   GL1 5797  13.079  10.197   9.657  0.1458  0.0968 -0.0956
  363loPI   GL2 5798  12.839  10.404   9.455  0.0575 -0.0533  0.0624
  363loPI   C1A 5799  13.249  10.115   9.308 -0.0951 -0.0653 -0.3978
  363loPI   C2A 5800  13.435   9.991   8.907 -0.1442  0.2276 -0.0790
  363loPI   C3A 5801  13.313   9.994   8.450  0.0127  0.0387 -0.2119
  363loPI   C4A 5802  13.366   9.853   8.157  0.1348 -0.2669 -0.0019
  363loPI   C5A 5803  13.402   9.712   7.708 -0.4478  0.2000 -0.0720
  363loPI   C6A 5804  13.393   9.821   7.217 -0.1064 -0.1095  0.4764
  363loPI   C1B 5805  12.974  10.435   9.033 -0.0577 -0.0349 -0.0854
  363loPI   C2B 5806  12.965  10.369   8.582 -0.0962 -0.0761  0.1211
  363loPI   C3B 5807  12.968  10.239   8.137 -0.1843  0.2463  0.0624
  363loPI   C4B 5808  12.938   9.786   7.886 -0.1932 -0.2072  0.1910
  364loPI    C1 5809   5.268  10.020   9.580  0.1214 -0.1496 -0.1310
  364loPI    C2 5810   4.973   9.758   9.510  0.1048 -0.0751 -0.3487
  364loPI    C3 5811   5.100   9.822   9.884 -0.1835 -0.0774 -0.2485
  364loPI   PO4 5812   5.197  10.208   9.431  0.1740 -0.0221  0.3418
  364loPI   GL1 5813   5.278  10.531   9.065  0.1967  0.0349 -0.1075
  364loPI   GL2 5814   5.524  10.377   9.049  0.3049 -0.0802  0.1173
  364loPI   C1A 5815   5.451  10.739   8.669  0.1071  0.1814  0.1564
  364loPI   C2A 5816   5.468  11.011   8.233 -0.1977 -0.2195 -0.0728
  364loPI   C3A 5817   5.161  11.193   8.047 -0.1993  0.0697  0.0925
  364loPI   C4A 5818   5.030  11.316   7.602 -0.0356 -0.3309 -0.1797
  364loPI   C5A 5819   5.330  11.531   7.275 -0.2912  0.1459  0.3005
  364loPI   C6A 5820   5.768  11.650   7.144  0.2261 -0.1083  0.2926
  364loPI   C1B 5821   5.533  10.128   8.685 -0.3628 -0.1046  0.0651
  364loPI   C2B 5822   5.400  10.000   8.306 -0.3010 -0.0520  0.1569
  364loPI   C3B 5823   5.334   9.945   7.820 -0.0458 -0.1294 -0.3677
  364loPI   C4B 5824   5.415   9.671   7.505  0.1043 -0.4105  0.0274
  365loPI    C1 5825  10.131   3.307   9.997  0.0061  0.1611 -0.1751
  365loPI    C2 5826  10.354   3.209  10.314 -0.3515 -0.0667  0.0136
  365loPI    C3 5827  10.181   3.569  10.295  0.1191  0.1581 -0.1911
  365loPI   PO4 5828  10.327   3.109   9.822 -0.1692  0.1385 -0.0777
  365loPI   GL1 5829  10.291   2.896   9.464 -0.1610  0.1735 -0.1352
  365loPI   GL2 5830  10.201   2.564   9.678 -0.0700  0.1926  0.2173
  365loPI   C1A 5831  10.282   3.226   9.134  0.4321 -0.1792  0.1309
  365loPI   C2A 5832  10.040   3.210   8.792 -0.1098 -0.0840 -0.0569
  365loPI   C3A 5833  10.118   3.280   8.326 -0.0884 -0.1330  0.0842
  365loPI   C4A 5834  10.178   3.538   7.929 -0.5191  0.1874 -0.1908
  365loPI   C5A 5835  10.094   3.727   7.547 -0.0032 -0.0344  0.0843
  365loPI   C6A 5836   9.745   3.937   7.375  0.1763  0.1304  0.0227
  365loPI   C1B 5837  10.356   2.512   9.201  0.0608  0.3718 -0.1507
  365loPI   C2B 5838  10.464   2.227   8.853  0.1592  0.2656  0.2014
  365loPI   C3B 5839  10.457   2.454   8.414 -0.2285 -0.2162 -0.3026
  365loPI   C4B 5840  10.524   2.633   8.077  0.3092  0.0642 -0.1945
  366loPI    C1 5841  15.796  11.602   9.820  0.0855 -0.1738 -0.0192
  366loPI    C2 5842  15.845  11.886  10.097 -0.1305  0.0992 -0.2534
  366loPI    C3 5843  15.643  11.552  10.186  0.3225 -0.0951  0.0928
  366loPI   PO4 5844  15.676  11.662   9.663  0.0967 -0.0301 -0.0240
  366loPI   GL1 5845  15.522  12.006   9.510  0.0607 -0.1084  0.2009
  366loPI   GL2 5846  15.220  11.904   9.492 -0.0816 -0.2072  0.2977
  366loPI   C1A 5847  15.483  11.867   9.068 -0.0838 -0.0755 -0.2520
  366loPI   C2A 5848  15.760  11.645   8.880 -0.0049  0.1958 -0.2794
  366loPI   C3A 5849  16.186  11.605   8.677  0.2759 -0.0650 -0.1395
  366loPI   C4A 5850  16.409  11.760   8.282 -0.1769  0.0841 -0.1474
  366loPI   C5A 5851  16.715  11.714   7.912 -0.1770  0.2426 -0.0905
  366loPI   C6A 5852  16.879  11.734   7.363  0.0804 -0.0430 -0.0064
  366loPI   C1B 5853  15.015  11.929   9.126  0.1632  0.1416 -0.1815
  366loPI   C2B 5854  15.137  12.041   8.722  0.0154 -0.0305  0.1882
  366loPI   C3B 5855  15.375  11.893   8.401  0.1269  0.0166 -0.0265
  366loPI   C4B 5856  15.857  11.829   8.322 -0.0150 -0.2013  0.2251
  367loPI    C1 5857  17.393  15.428   9.839 -0.1998  0.1200 -0.0948
  367loPI    C2 5858  17.305  15.120  10.079 -0.1808  0.0804 -0.1384
  367loPI    C3 5859  17.687  15.224  10.018 -0.1951  0.2424  0.0387
  367loPI   PO4 5860  17.284  15.362   9.642 -0.1578 -0.1968  0.1111
  367loPI   GL1 5861  17.134  15.184   9.343 -0.0535 -0.0710  0.0395
  367loPI   GL2 5862  16.917  14.970   9.225 -0.0900 -0.0951  0.3199
  367loPI   C1A 5863  17.307  15.270   8.969  0.2969 -0.4179  0.0739
  367loPI   C2A 5864  17.503  15.553   8.716 -0.1106  0.4744  0.1599
  367loPI   C3A 5865  17.567  15.886   8.359 -0.1726 -0.3646 -0.2497
  367loPI   C4A 5866  17.346  15.976   7.934  0.0586  0.1711 -0.2117
  367loPI   C5A 5867  17.363  15.670   7.683  0.4267 -0.0357  0.1734
  367loPI   C6A 5868  17.319  15.329   7.415  0.2791  0.1132  0.0236
  367loPI   C1B 5869  16.883  15.016   8.785  0.2923 -0.0368 -0.0062
  367loPI   C2B 5870  16.913  15.311   8.447 -0.0085  0.2013 -0.0977
  367loPI   C3B 5871  17.086  15.702   8.375  0.2005 -0.3679  0.0574
  367loPI   C4B 5872  17.488  15.398   8.143  0.0429  0.0247 -0.0610
  368loPI    C1 5873  15.112  10.857  10.232  0.2076 -0.0921  0.1620
  368loPI    C2 5874  15.295  11.171  10.399  0.1029  0.1494 -0.1657
  368loPI    C3 5875  14.956  11.224  10.195 -0.0155 -0.2075 -0.0689
  368loPI   PO4 5876  15.246  10.762   9.996  0.1131 -0.0509  0.2295
  368loPI   GL1 5877  15.152  10.471   9.709  0.1393  0.0147 -0.0416
  368loPI   GL2 5878  15.416  10.260   9.651  0.0671  0.2574  0.2328
  368loPI   C1A 5879  14.850  10.440   9.285 -0.2366 -0.0792 -0.1877
  368loPI   C2A 5880  14.862  10.474   8.847 -0.0428  0.1520  0.0002
  368loPI   C3A 5881  14.774  10.330   8.470 -0.2096  0.1218 -0.2765
  368loPI   C4A 5882  14.894  10.056   8.142 -0.2371  0.0954 -0.0822
  368loPI   C5A 5883  14.801   9.753   7.785  0.2959  0.1220  0.2026
  368loPI   C6A 5884  14.802   9.518   7.522 -0.0090 -0.0233 -0.0305
  368loPI   C1B 5885  15.348  10.285   9.261 -0.0571 -0.1356 -0.1400
  368loPI   C2B 5886  15.312  10.234   8.904 -0.1819  0.2522  0.1281
  368loPI   C3B 5887  15.345  10.414   8.575 -0.0631 -0.1372  0.3166
  368loPI   C4B 5888  15.587  10.483   8.464 -0.1346 -0.4962 -0.1932
  369loPI    C1 5889   9.453   9.448  10.218  0.0656 -0.0662 -0.0722
  369loPI    C2 5890   9.338   9.773  10.421  0.1577  0.0193 -0.1560
  369loPI    C3 5891   9.104   9.448  10.413  0.0039  0.1298 -0.1806
  369loPI   PO4 5892   9.519   9.599   9.970 -0.1524 -0.1624 -0.1868
  369loPI   GL1 5893   9.599   9.381   9.607  0.0319  0.2511 -0.3703
  369loPI   GL2 5894   9.701   9.214   9.522  0.1693  0.1332  0.1447
  369loPI   C1A 5895   9.325   9.483   9.297 -0.0607 -0.1400  0.0410
  369loPI   C2A 5896   9.357   9.357   8.816  0.1170  0.2923  0.1387
  369loPI   C3A 5897   9.333   9.601   8.518 -0.1204 -0.5662  0.0629
  369loPI   C4A 5898   9.369   9.618   8.100 -0.0630 -0.0989 -0.4709
  369loPI   C5A 5899   9.153   9.307   7.942 -0.2223 -0.3993 -0.1123
  369loPI   C6A 5900   9.024   9.083   7.547  0.2201 -0.0225  0.3907
  369loPI   C1B 5901   9.653   9.149   9.150  0.0949 -0.1528 -0.3120
  369loPI   C2B 5902   9.852   9.148   8.858 -0.3706  0.1728 -0.1868
  369loPI   C3B 5903  10.106   9.034   8.410  0.1524 -0.2594 -0.0299
  369loPI   C4B 5904  10.206   8.838   8.041  0.0886 -0.0083  0.2827
  370loPI    C1 5905   8.399  15.470  10.104 -0.0282 -0.0226  0.1172
  370loPI    C2 5906   8.610  15.607   9.793 -0.1222 -0.5124 -0.1738
  370loPI    C3 5907   8.635  15.790  10.148 -0.0887  0.1180 -0.4859
  370loPI   PO4 5908   8.458  15.165   9.983  0.1046 -0.1680 -0.0800
  370loPI   GL1 5909   8.453  15.078   9.535 -0.0659  0.2362 -0.3517
  370loPI   GL2 5910   8.686  15.261   9.479  0.0589 -0.0369  0.3250
  370loPI   C1A 5911   8.412  14.979   9.033 -0.3113 -0.0334 -0.1332
  370loPI   C2A 5912   8.500  15.112   8.665  0.2084 -0.0842 -0.2140
  370loPI   C3A 5913   8.539  15.255   8.193  0.2775  0.3555  0.1421
  370loPI   C4A 5914   8.528  15.458   7.816  0.0384  0.3073 -0.1906
  370loPI   C5A 5915   8.760  15.362   7.471 -0.1079  0.0731  0.1781
  370loPI   C6A 5916   9.046  15.160   7.388 -0.1578  0.2384  0.1136
  370loPI   C1B 5917   8.861  15.139   9.059 -0.3695  0.1934  0.1284
  370loPI   C2B 5918   8.975  15.100   8.696  0.0950 -0.3111 -0.0150
  370loPI   C3B 5919   9.030  15.158   8.340 -0.0287  0.2202  0.0501
  370loPI   C4B 5920   8.993  15.261   7.886  0.0065 -0.0123  0.3684
  371loPI    C1 5921   1.606  12.268   9.995  0.0812 -0.0743  0.2678
  371loPI    C2 5922   1.972  12.315   9.839  0.0469 -0.2437  0.1326
  371loPI    C3 5923   1.869  12.512  10.172  0.1060  0.1602 -0.0812
  371loPI   PO4 5924   1.470  12.167   9.915 -0.0343  0.1128  0.2675
  371loPI   GL1 5925   1.358  11.800   9.544 -0.0155 -0.0430  0.0147
  371loPI   GL2 5926   1.106  11.802   9.305  0.0106 -0.1604 -0.1032
  371loPI   C1A 5927   1.591  11.822   9.121  0.1558  0.0786  0.0767
  371loPI   C2A 5928   1.805  11.577   8.770  0.0938  0.1808 -0.0053
  371loPI   C3A 5929   1.743  11.418   8.367  0.0481  0.1349  0.1100
  371loPI   C4A 5930   1.818  11.317   7.988 -0.0189 -0.1729  0.0856
  371loPI   C5A 5931   2.107  11.479   7.645 -0.3602  0.0376 -0.0155
  371loPI   C6A 5932   2.237  11.785   7.375  0.0321 -0.1342  0.0236
  371loPI   C1B 5933   1.234  11.760   8.814  0.2573 -0.2728  0.0282
  371loPI   C2B 5934   1.282  11.691   8.444  0.2000 -0.1895 -0.0785
  371loPI   C3B 5935   1.183  11.640   8.011 -0.0610 -0.2017 -0.2509
  371loPI   C4B 5936   0.904  11.663   7.624  0.2090  0.0785  0.0886
  372loPI    C1 5937   4.725   5.201   9.816  0.1806 -0.0141 -0.1137
  372loPI    C2 5938   4.803   5.588   9.747  0.2385 -0.0233 -0.1007
  372loPI    C3 5939   4.929   5.415  10.085 -0.1009  0.0382  0.0623
  372loPI   PO4 5940   4.527   5.118   9.679  0.0464 -0.0467  0.3341
  372loPI   GL1 5941   4.571   4.863   9.357  0.2681  0.0239  0.1467
  372loPI   GL2 5942   4.813   4.678   9.503 -0.1983  0.2788 -0.0037
  372loPI   C1A 5943   4.822   5.048   9.046  0.2566  0.0820 -0.3229
  372loPI   C2A 5944   4.963   5.156   8.617  0.0257 -0.1881  0.1469
  372loPI   C3A 5945   5.071   5.272   8.141 -0.0056 -0.0081  0.0494
  372loPI   C4A 5946   5.118   5.155   7.667 -0.0651 -0.0714  0.0855
  372loPI   C5A 5947   5.228   4.765   7.429 -0.3137  0.1824 -0.0358
  372loPI   C6A 5948   5.548   4.550   7.165 -0.0104  0.1456 -0.1125
  372loPI   C1B 5949   5.020   4.614   9.055  0.0138  0.2086  0.1856
  372loPI   C2B 5950   4.770   4.673   8.692  0.0723 -0.1210  0.0617
  372loPI   C3B 5951   4.529   4.972   8.475 -0.0385  0.0066 -0.0260
  372loPI   C4B 5952   4.593   5.367   8.243  0.4142 -0.0083 -0.0124
  373loPI    C1 5953  10.110   7.835  10.257  0.1870 -0.0161  0.1597
  373loPI    C2 5954   9.836   8.113  10.345  0.1446  0.0031 -0.0298
  373loPI    C3 5955   9.810   7.748  10.507 -0.0216 -0.0102 -0.0847
  373loPI   PO4 5956  10.105   7.868   9.993 -0.0213 -0.1817  0.0081
  373loPI   GL1 5957   9.901   7.715   9.627 -0.0369  0.3389  0.1010
  373loPI   GL2 5958  10.022   7.393   9.546 -0.2687  0.1586 -0.1290
  373loPI   C1A 5959   9.735   7.888   9.316  0.3829 -0.1860 -0.1018
  373loPI   C2A 5960   9.924   8.104   8.950 -0.1446 -0.1394  0.3508
  373loPI   C3A 5961   9.990   8.170   8.505 -0.0369  0.1823  0.0168
  373loPI   C4A 5962  10.037   8.096   8.159  0.0667  0.1328  0.5192
  373loPI   C5A 5963  10.064   8.300   7.760  0.0921 -0.1173 -0.1084
  373loPI   C6A 5964   9.655   8.382   7.422 -0.1426 -0.0103 -0.0767
  373loPI   C1B 5965   9.915   7.437   9.107 -0.1867  0.1851  0.1409
  373loPI   C2B 5966   9.814   7.719   8.758  0.0492  0.0343  0.1285
  373loPI   C3B 5967  10.009   7.671   8.395  0.1922  0.0479  0.1201
  373loPI   C4B 5968   9.966   7.587   7.972  0.0501 -0.1334  0.3887
  374loPI    C1 5969   6.157   9.719   9.709 -0.1160  0.1956 -0.1015
  374loPI    C2 5970   6.025   9.554  10.048  0.0747  0.2952  0.0231
  374loPI    C3 5971   6.187   9.919  10.054  0.1377  0.2713 -0.1653
  374loPI   PO4 5972   5.989   9.572   9.534  0.0141 -0.1173 -0.0604
  374loPI   GL1 5973   5.807   9.612   8.967  0.1965 -0.1950  0.2770
  374loPI   GL2 5974   5.623   9.448   9.118  0.1139 -0.0946  0.0230
  374loPI   C1A 5975   5.870   9.778   8.513 -0.1340  0.3542 -0.1194
  374loPI   C2A 5976   5.905   9.871   8.140  0.0948 -0.2430  0.0748
  374loPI   C3A 5977   6.039   9.924   7.656  0.0783 -0.0021 -0.0325
  374loPI   C4A 5978   6.154  10.127   7.249  0.0126  0.1718 -0.0757
  374loPI   C5A 5979   6.535  10.287   7.138 -0.0510 -0.0436 -0.0565
  374loPI   C6A 5980   7.013  10.305   7.106  0.1469 -0.0144 -0.3154
  374loPI   C1B 5981   5.535   9.414   8.592  0.1606  0.4387 -0.2269
  374loPI   C2B 5982   5.468   9.524   8.219  0.2798 -0.2673  0.0858
  374loPI   C3B 5983   5.665   9.454   7.839 -0.0074  0.2423 -0.0122
  374loPI   C4B 5984   5.869   9.348   7.490 -0.2045 -0.1401  0.2711
  375loPI    C1 5985   9.357  16.277   9.909  0.0878  0.1794  0.1702
  375loPI    C2 5986   9.419  16.016   9.612  0.2144  0.2772  0.1097
  375loPI    C3 5987   9.435  15.893   9.992 -0.1839  0.1012  0.0744
  375loPI   PO4 5988   9.080  16.450   9.828  0.1524 -0.0952  0.0319
  375loPI   GL1 5989   8.970  16.415   9.391 -0.0804  0.0213 -0.1186
  375loPI   GL2 5990   9.128  16.154   9.236 -0.0825 -0.1869 -0.2546
  375loPI   C1A 5991   9.083  16.624   9.047 -0.1190  0.0780 -0.1537
  375loPI   C2A 5992   9.291  16.558   8.673  0.0369 -0.1208 -0.0971
  375loPI   C3A 5993   9.307  16.565   8.259  0.0835 -0.2269  0.1146
  375loPI   C4A 5994   9.477  16.581   7.863 -0.0656  0.1208 -0.1384
  375loPI   C5A 5995   9.531  16.547   7.410 -0.1294 -0.0974  0.0697
  375loPI   C6A 5996   9.570  16.804   7.075  0.3358 -0.2167 -0.1765
  375loPI   C1B 5997   9.023  16.174   8.830 -0.0793  0.1316 -0.1255
  375loPI   C2B 5998   9.117  16.117   8.414  0.0770 -0.0089 -0.0155
  375loPI   C3B 5999   9.121  16.077   7.943 -0.0210  0.1575  0.0111
  375loPI   C4B 6000   9.188  16.204   7.569  0.3446  0.1032 -0.0128
  376loPI    C1 6001   6.321   3.202  10.273 -0.0185  0.2098  0.1422
  376loPI    C2 6002   6.184   3.236  10.647 -0.2222 -0.2651  0.1184
  376loPI    C3 6003   6.520   3.031  10.575 -0.2759 -0.3204  0.0238
  376loPI   PO4 6004   6.123   3.090  10.073 -0.2159 -0.0901 -0.2229
  376loPI   GL1 6005   5.984   3.051   9.689 -0.1786  0.2453  0.1073
  376loPI   GL2 6006   5.707   3.095   9.813 -0.4461 -0.2349 -0.0634
  376loPI   C1A 6007   6.055   3.182   9.274 -0.0467  0.1305 -0.0462
  376loPI   C2A 6008   6.136   3.172   8.891  0.0705 -0.2369  0.3521
  376loPI   C3A 6009   6.229   3.115   8.496 -0.0272 -0.1190 -0.0471
  376loPI   C4A 6010   6.362   3.041   8.150 -0.2335 -0.2163  0.2138
  376loPI   C5A 6011   6.324   3.108   7.794  0.2377  0.1163 -0.3790
  376loPI   C6A 6012   5.932   3.090   7.533 -0.2674  0.1096 -0.3353
  376loPI   C1B 6013   5.565   2.999   9.397  0.1152  0.0707 -0.3869
  376loPI   C2B 6014   5.628   2.893   8.980 -0.1117  0.0252 -0.3111
  376loPI   C3B 6015   5.734   3.046   8.542 -0.0458 -0.0453 -0.3494
  376loPI   C4B 6016   5.787   2.963   8.150 -0.2418 -0.0296 -0.0757
  377loPI    C1 6017   5.357   2.326  10.285  0.2013  0.0679  0.0990
  377loPI    C2 6018   5.384   2.312  10.684 -0.0518  0.1985  0.1224
  377loPI    C3 6019   5.505   2.638  10.486  0.2425  0.0639  0.0751
  377loPI   PO4 6020   5.521   2.078  10.220 -0.0744  0.3448 -0.0679
  377loPI   GL1 6021   5.690   2.191   9.840  0.0266  0.0638  0.0026
  377loPI   GL2 6022   5.418   2.384   9.825 -0.0201 -0.3549 -0.0126
  377loPI   C1A 6023   5.679   2.121   9.431 -0.1584  0.1822  0.1696
  377loPI   C2A 6024   5.792   1.971   8.974 -0.0962  0.2327  0.4666
  377loPI   C3A 6025   5.615   1.883   8.611  0.0198 -0.3773 -0.3199
  377loPI   C4A 6026   5.180   1.855   8.360  0.2946 -0.2526 -0.3495
  377loPI   C5A 6027   4.972   1.741   8.032  0.2292  0.2108 -0.2129
  377loPI   C6A 6028   4.586   1.793   7.792 -0.2037  0.5038 -0.1113
  377loPI   C1B 6029   5.341   2.557   9.455  0.0868  0.0539  0.1502
  377loPI   C2B 6030   5.565   2.433   9.093  0.3548  0.1608 -0.0656
  377loPI   C3B 6031   5.631   2.426   8.686 -0.2860 -0.0332  0.0570
  377loPI   C4B 6032   5.693   2.497   8.313 -0.1500 -0.1669  0.2309
  378loPI    C1 6033   1.441   3.247  10.022 -0.0891 -0.1035 -0.0318
  378loPI    C2 6034   1.514   2.978  10.309 -0.3404 -0.1422 -0.0019
  378loPI    C3 6035   1.400   3.348  10.407  0.3474  0.0903 -0.0309
  378loPI   PO4 6036   1.184   3.261   9.908  0.1934  0.0349  0.1472
  378loPI   GL1 6037   0.926   3.600   9.758  0.0170 -0.0883  0.0619
  378loPI   GL2 6038   0.884   3.443   9.502  0.0857 -0.0641  0.0668
  378loPI   C1A 6039   0.751   3.925   9.494 -0.1987 -0.0008  0.0561
  378loPI   C2A 6040   0.664   4.150   9.164  0.1455  0.0817  0.1344
  378loPI   C3A 6041   0.476   4.169   8.627  0.5169 -0.1670  0.3811
  378loPI   C4A 6042   0.310   4.047   8.228 -0.1202 -0.3600 -0.2691
  378loPI   C5A 6043   0.109   4.035   7.885 -0.2680 -0.0679 -0.0460
  378loPI   C6A 6044  -0.037   4.066   7.446  0.1775 -0.2268  0.0865
  378loPI   C1B 6045   0.842   3.566   9.125 -0.2544 -0.0865  0.1409
  378loPI   C2B 6046   0.762   3.743   8.769 -0.1449  0.2537  0.1495
  378loPI   C3B 6047   0.917   3.526   8.513  0.0714 -0.3316  0.1829
  378loPI   C4B 6048   1.079   3.299   8.195  0.0851 -0.2347 -0.0666
  379loPI    C1 6049   8.373  14.631  10.179 -0.0108 -0.0601  0.0400
  379loPI    C2 6050   8.072  14.836  10.013  0.0113 -0.0538  0.0076
  379loPI    C3 6051   7.998  14.495  10.209 -0.0343  0.0218  0.1229
  379loPI   PO4 6052   8.534  14.615  10.029 -0.3091 -0.2758  0.1946
  379loPI   GL1 6053   8.652  14.577   9.634  0.1159 -0.3667 -0.4547
  379loPI   GL2 6054   8.675  14.272   9.675 -0.1699 -0.2557  0.0016
  379loPI   C1A 6055   8.482  14.616   9.333 -0.0946  0.0688  0.1117
  379loPI   C2A 6056   8.327  14.488   8.884 -0.1461  0.1247 -0.1427
  379loPI   C3A 6057   8.329  14.564   8.512 -0.0325 -0.0272  0.1731
  379loPI   C4A 6058   8.346  14.396   8.089  0.3201 -0.2024  0.0433
  379loPI   C5A 6059   8.310  14.473   7.512 -0.1015  0.1787 -0.3671
  379loPI   C6A 6060   8.214  14.754   7.285  0.1199 -0.3462  0.0231
  379loPI   C1B 6061   8.859  14.197   9.145  0.0596 -0.2132  0.1420
  379loPI   C2B 6062   9.115  14.033   8.761  0.3274 -0.2428  0.0361
  379loPI   C3B 6063   9.132  13.896   8.341  0.2688  0.0284  0.2112
  379loPI   C4B 6064   9.189  13.492   8.218 -0.3263 -0.1172 -0.2506
  380loPI    C1 6065   7.203   0.261   9.656 -0.4212  0.0808 -0.0572
  380loPI    C2 6066   7.270   0.588   9.435  0.1926 -0.0627 -0.1015
  380loPI    C3 6067   7.345   0.594   9.828 -0.2779 -0.0054 -0.0068
  380loPI   PO4 6068   7.076   0.075   9.507 -0.0675  0.0124 -0.2149
  380loPI   GL1 6069   6.984   0.052   9.067 -0.0676  0.0825  0.1671
  380loPI   GL2 6070   6.886   0.409   9.158 -0.0211  0.2625  0.1041
  380loPI   C1A 6071   7.001   0.059   8.562 -0.0227 -0.3179 -0.1814
  380loPI   C2A 6072   6.923  -0.031   8.217 -0.0993 -0.2153 -0.0646
  380loPI   C3A 6073   6.981   0.121   7.888 -0.1833 -0.1479  0.1324
  380loPI   C4A 6074   6.938   0.166   7.606  0.0928 -0.1184  0.0351
  380loPI   C5A 6075   7.156   0.314   7.278  0.1833  0.2095  0.1306
  380loPI   C6A 6076   7.508   0.405   7.160  0.0230 -0.0871  0.3973
  380loPI   C1B 6077   6.661   0.363   8.747 -0.2354 -0.0384  0.1849
  380loPI   C2B 6078   6.634   0.351   8.332  0.2470 -0.0079 -0.1008
  380loPI   C3B 6079   6.501   0.300   7.912 -0.0165 -0.2991  0.1762
  380loPI   C4B 6080   6.115   0.313   7.664  0.1679  0.0158 -0.0939
  381loPI    C1 6081  12.286   6.871   9.861 -0.1267 -0.0178 -0.0181
  381loPI    C2 6082  12.085   7.211   9.922 -0.0862 -0.0273  0.1778
  381loPI    C3 6083  12.256   7.022  10.230  0.0909 -0.1016  0.0361
  381loPI   PO4 6084  12.200   6.676   9.739 -0.0911 -0.1256  0.1026
  381loPI   GL1 6085  11.914   6.779   9.407  0.1772  0.0322  0.0341
  381loPI   GL2 6086  12.251   6.975   9.353  0.2178 -0.2810  0.2805
  381loPI   C1A 6087  11.771   6.686   9.005  0.0197 -0.2566 -0.0557
  381loPI   C2A 6088  11.729   6.778   8.585  0.1113  0.1025  0.1121
  381loPI   C3A 6089  11.733   6.598   8.158 -0.0801 -0.0019  0.1378
  381loPI   C4A 6090  11.852   6.405   7.822  0.1008  0.3718  0.0676
  381loPI   C5A 6091  12.212   6.444   7.758 -0.1494  0.0586 -0.0119
  381loPI   C6A 6092  12.517   6.755   7.739  0.0516  0.0169 -0.0177
  381loPI   C1B 6093  12.229   7.024   8.953  0.1056  0.0867  0.2382
  381loPI   C2B 6094  12.253   6.815   8.645  0.1108  0.0275  0.0584
  381loPI   C3B 6095  12.199   6.615   8.291 -0.2919  0.2946  0.1854
  381loPI   C4B 6096  12.481   6.167   8.092  0.0269 -0.3091  0.2318
  382loPI    C1 6097   8.188   1.841   9.919  0.2982  0.1151 -0.1115
  382loPI    C2 6098   8.208   1.987  10.291 -0.0256 -0.0458 -0.0271
  382loPI    C3 6099   8.300   2.220   9.979  0.0605  0.1487  0.1413
  382loPI   PO4 6100   7.895   1.721   9.897  0.1741  0.1870 -0.1653
  382loPI   GL1 6101   7.679   1.472   9.576  0.1654  0.3815 -0.1279
  382loPI   GL2 6102   7.966   1.451   9.436  0.2806 -0.1390  0.0768
  382loPI   C1A 6103   7.431   1.248   9.177  0.0423 -0.3835 -0.1467
  382loPI   C2A 6104   7.492   1.375   8.762  0.1476 -0.1501  0.0990
  382loPI   C3A 6105   7.405   1.449   8.289 -0.1173  0.0635  0.0821
  382loPI   C4A 6106   7.477   1.491   7.884 -0.0890  0.1062 -0.1171
  382loPI   C5A 6107   7.379   1.622   7.470  0.1941 -0.0007 -0.1365
  382loPI   C6A 6108   7.311   1.636   7.006  0.0477  0.3023 -0.0621
  382loPI   C1B 6109   7.922   1.538   9.023  0.1010 -0.2895 -0.3179
  382loPI   C2B 6110   7.931   1.582   8.651  0.1059  0.2745 -0.3444
  382loPI   C3B 6111   7.827   1.328   8.232 -0.4944 -0.1411 -0.2684
  382loPI   C4B 6112   7.952   1.133   7.844  0.2300 -0.0951  0.1453
  383loPI    C1 6113   0.812   4.312  10.242 -0.0500  0.1281  0.1378
  383loPI    C2 6114   0.846   3.948  10.404  0.0295  0.0181 -0.1207
  383loPI    C3 6115   0.490   4.131  10.396 -0.0344 -0.1042 -0.0969
  383loPI   PO4 6116   1.030   4.240  10.032 -0.0284 -0.0246 -0.0927
  383loPI   GL1 6117   1.293   4.059   9.705  0.2369 -0.0910  0.1149
  383loPI   GL2 6118   1.288   4.370   9.628  0.0123 -0.2677 -0.2467
  383loPI   C1A 6119   1.309   3.922   9.377 -0.3620 -0.1635  0.0130
  383loPI   C2A 6120   1.184   3.919   8.968 -0.0698 -0.1369 -0.1066
  383loPI   C3A 6121   1.179   3.926   8.546  0.0720 -0.1219 -0.2920
  383loPI   C4A 6122   0.970   3.986   8.222 -0.0804 -0.0328 -0.0514
  383loPI   C5A 6123   0.935   3.762   7.962  0.1887 -0.0945 -0.1727
  383loPI   C6A 6124   1.259   3.649   7.717 -0.1296  0.1338  0.1722
  383loPI   C1B 6125   1.156   4.401   9.156 -0.3866 -0.3218 -0.0636
  383loPI   C2B 6126   0.942   4.380   8.764 -0.3546  0.0898  0.0531
  383loPI   C3B 6127   0.796   4.475   8.354 -0.3089  0.2634 -0.0754
  383loPI   C4B 6128   0.666   4.266   7.961  0.0556  0.4052  0.0817
  384loPI    C1 6129   5.701  15.370   9.904 -0.3907 -0.0638 -0.0085
  384loPI    C2 6130   5.888  15.413  10.255 -0.1720  0.4355 -0.1783
  384loPI    C3 6131   5.489  15.425  10.239 -0.1991  0.0540  0.0954
  384loPI   PO4 6132   5.761  15.214   9.798 -0.2185 -0.1060 -0.2641
  384loPI   GL1 6133   5.583  15.024   9.425 -0.0543 -0.2499 -0.1798
  384loPI   GL2 6134   5.411  15.327   9.417 -0.0652  0.1870  0.0661
  384loPI   C1A 6135   5.725  15.127   9.024 -0.1359  0.3584  0.0380
  384loPI   C2A 6136   5.622  14.911   8.581  0.0684 -0.2794  0.0804
  384loPI   C3A 6137   5.518  15.129   8.147 -0.0515  0.3207  0.1018
  384loPI   C4A 6138   5.414  15.228   7.720 -0.0523  0.3106  0.2024
  384loPI   C5A 6139   5.259  15.544   7.447  0.1604 -0.2101  0.1662
  384loPI   C6A 6140   4.957  15.631   7.138 -0.0172 -0.0355  0.2228
  384loPI   C1B 6141   5.459  15.519   9.082 -0.2158 -0.2464  0.1375
  384loPI   C2B 6142   5.562  15.439   8.624  0.1931  0.1148 -0.2148
  384loPI   C3B 6143   5.931  15.247   8.389 -0.2745 -0.0160  0.3395
  384loPI   C4B 6144   6.005  14.932   8.148  0.1070  0.3349  0.0054
  385loPI    C1 6145  16.606  11.650   9.903 -0.0542 -0.1227 -0.0428
  385loPI    C2 6146  16.881  11.803  10.150 -0.0279 -0.1709 -0.0422
  385loPI    C3 6147  16.701  11.457  10.240  0.0594 -0.2433 -0.1430
  385loPI   PO4 6148  16.752  11.689   9.585 -0.1185 -0.1211 -0.0692
  385loPI   GL1 6149  16.767  11.967   9.272 -0.0462 -0.0297 -0.0137
  385loPI   GL2 6150  16.903  12.037   9.032  0.1522 -0.0946 -0.2610
  385loPI   C1A 6151  16.493  11.711   9.036 -0.2225  0.0392 -0.1770
  385loPI   C2A 6152  16.682  11.457   8.659  0.0611  0.1896  0.1067
  385loPI   C3A 6153  16.831  11.243   8.340 -0.1300  0.0957  0.3085
  385loPI   C4A 6154  17.016  10.989   8.125  0.2160 -0.0458 -0.0344
  385loPI   C5A 6155  17.269  10.873   7.719 -0.0776 -0.0187 -0.0081
  385loPI   C6A 6156  17.133  10.642   7.288  0.0217 -0.0795  0.0638
  385loPI   C1B 6157  16.836  11.962   8.653  0.0187  0.1722  0.0017
  385loPI   C2B 6158  17.009  12.011   8.221  0.0743  0.0632 -0.1714
  385loPI   C3B 6159  17.191  11.978   7.803 -0.1061 -0.0551 -0.1595
  385loPI   C4B 6160  17.423  11.740   7.497 -0.1991  0.1891 -0.3724
  386loPI    C1 6161   1.390  10.220  10.146  0.0158  0.0932  0.0322
  386loPI    C2 6162   1.073  10.364  10.342 -0.2439 -0.1336 -0.2131
  386loPI    C3 6163   1.396  10.245  10.546 -0.4125 -0.1366  0.0589
  386loPI   PO4 6164   1.279  10.075   9.927 -0.1354  0.1398 -0.1337
  386loPI   GL1 6165   1.102  10.004   9.557 -0.0095 -0.1334 -0.1249
  386loPI   GL2 6166   0.981   9.721   9.700 -0.0081 -0.2428 -0.0012
  386loPI   C1A 6167   1.307   9.980   9.230 -0.1029  0.1048 -0.2339
  386loPI   C2A 6168   1.477   9.784   8.819 -0.2995  0.1022  0.0208
  386loPI   C3A 6169   1.576  10.057   8.470  0.0004  0.0072  0.3254
  386loPI   C4A 6170   1.445  10.171   8.047  0.0879  0.1296  0.2549
  386loPI   C5A 6171   1.263  10.286   7.708 -0.0073 -0.0216  0.0901
  386loPI   C6A 6172   1.197  10.649   7.522 -0.2014  0.1653 -0.1651
  386loPI   C1B 6173   0.744   9.836   9.255  0.0103  0.1178  0.0079
  386loPI   C2B 6174   0.624   9.689   8.781 -0.1479  0.0235  0.0920
  386loPI   C3B 6175   0.416   9.419   8.416 -0.3364 -0.3161 -0.0254
  386loPI   C4B 6176   0.141   9.591   8.071  0.4189 -0.0727 -0.0017
  387loPI    C1 6177   7.067  11.489   9.759 -0.2057 -0.0192  0.1135
  387loPI    C2 6178   6.804  11.653  10.013 -0.0772 -0.0348  0.2580
  387loPI    C3 6179   7.070  11.385  10.145 -0.0166 -0.0518  0.1039
  387loPI   PO4 6180   7.232  11.663   9.620 -0.2492 -0.2717 -0.2856
  387loPI   GL1 6181   7.342  11.801   9.270 -0.2371  0.5052  0.1984
  387loPI   GL2 6182   6.967  11.850   9.232 -0.1144  0.1178  0.3519
  387loPI   C1A 6183   7.283  12.176   9.082 -0.0978  0.0629 -0.1415
  387loPI   C2A 6184   7.164  12.428   8.775 -0.1995 -0.1545 -0.0181
  387loPI   C3A 6185   7.101  12.446   8.379 -0.0369 -0.1935  0.0008
  387loPI   C4A 6186   7.142  12.412   7.909 -0.0724 -0.0305 -0.2279
  387loPI   C5A 6187   7.108  12.580   7.489 -0.0270  0.0861 -0.0411
  387loPI   C6A 6188   7.259  12.885   7.200  0.2164 -0.0424 -0.0938
  387loPI   C1B 6189   6.969  11.572   8.885  0.2396  0.2020  0.0669
  387loPI   C2B 6190   7.265  11.563   8.713  0.0312  0.1247 -0.4134
  387loPI   C3B 6191   7.455  11.684   8.364  0.0951  0.0057  0.2325
  387loPI   C4B 6192   7.589  11.618   7.944 -0.0260 -0.1709  0.2608
  388loPI    C1 6193  17.086  14.209   9.900 -0.1779 -0.1148  0.0382
  388loPI    C2 6194  16.896  14.206  10.252  0.0071 -0.0441  0.1399
  388loPI    C3 6195  17.221  13.979  10.198 -0.0579 -0.1034 -0.0071
  388loPI   PO4 6196  16.930  14.170   9.745  0.1377 -0.1486 -0.0800
  388loPI   GL1 6197  16.895  14.222   9.358  0.2134 -0.0716  0.1233
  388loPI   GL2 6198  16.702  14.409   9.297 -0.3469 -0.1950  0.1111
  388loPI   C1A 6199  16.934  14.438   8.888  0.0875 -0.1716 -0.0124
  388loPI   C2A 6200  16.786  14.602   8.496 -0.4613  0.3010 -0.0391
  388loPI   C3A 6201  16.460  14.438   8.199 -0.0238  0.0271 -0.3490
  388loPI   C4A 6202  16.368  14.314   7.844  0.5026  0.1064 -0.1391
  388loPI   C5A 6203  16.290  14.518   7.512  0.0031  0.1117 -0.3997
  388loPI   C6A 6204  16.424  14.845   7.314  0.1879 -0.0702 -0.1837
  388loPI   C1B 6205  16.495  14.826   8.995  0.3234  0.1151  0.1118
  388loPI   C2B 6206  16.258  14.676   8.576  0.2319 -0.2058 -0.1825
  388loPI   C3B 6207  15.976  14.522   8.203  0.0485  0.1389 -0.0340
  388loPI   C4B 6208  15.581  14.643   7.966 -0.2151 -0.0608 -0.3371
  389loPI    C1 6209   2.097  13.239   9.365 -0.1346  0.0394 -0.1066
  389loPI    C2 6210   1.817  13.216   9.650 -0.0997  0.1160 -0.0658
  389loPI    C3 6211   2.175  13.375   9.734 -0.0254 -0.0301 -0.1037
  389loPI   PO4 6212   2.000  13.344   9.198 -0.0018 -0.1857  0.1707
  389loPI   GL1 6213   2.212  13.664   8.917 -0.1192  0.1064  0.1340
  389loPI   GL2 6214   2.202  13.855   8.961 -0.0738  0.0922 -0.1725
  389loPI   C1A 6215   2.218  13.578   8.511 -0.0905 -0.3175 -0.0305
  389loPI   C2A 6216   2.232  13.687   8.185 -0.0728 -0.0489 -0.0255
  389loPI   C3A 6217   2.405  13.426   7.942 -0.2552  0.2779 -0.0253
  389loPI   C4A 6218   2.631  13.415   7.667 -0.1265  0.0312  0.3010
  389loPI   C5A 6219   2.537  13.519   7.219 -0.1556 -0.1389 -0.4326
  389loPI   C6A 6220   2.574  13.599   6.792  0.2814 -0.1512 -0.1269
  389loPI   C1B 6221   2.161  14.055   8.547  0.1422 -0.0040 -0.1084
  389loPI   C2B 6222   2.112  14.202   8.241 -0.1426 -0.1031 -0.1450
  389loPI   C3B 6223   1.992  14.110   7.877 -0.0081 -0.0476 -0.0622
  389loPI   C4B 6224   1.802  14.071   7.455  0.1629 -0.3048  0.0707
  390loPI    C1 6225   7.844  12.225   9.785 -0.0398  0.1143  0.0122
  390loPI    C2 6226   7.751  11.842   9.854 -0.0231  0.0900 -0.0977
  390loPI    C3 6227   7.465  12.102   9.749 -0.0417  0.1177  0.0205
  390loPI   PO4 6228   8.021  12.201   9.648  0.0244  0.1479  0.1181
  390loPI   GL1 6229   8.127  11.941   9.252 -0.2136  0.0481  0.1268
  390loPI   GL2 6230   7.822  11.897   9.324  0.2281  0.2075 -0.2748
  390loPI   C1A 6231   8.228  11.783   8.832  0.0077 -0.2176 -0.1574
  390loPI   C2A 6232   8.435  11.784   8.382 -0.0582 -0.2601  0.1319
  390loPI   C3A 6233   8.581  11.696   8.023 -0.2160 -0.2160  0.0383
  390loPI   C4A 6234   8.556  11.610   7.668 -0.0810  0.3114 -0.4701
  390loPI   C5A 6235   8.238  11.560   7.413 -0.1045  0.0631 -0.2001
  390loPI   C6A 6236   7.933  11.413   7.080 -0.0580  0.0421  0.2677
  390loPI   C1B 6237   7.721  11.886   8.932 -0.2014 -0.3068  0.1082
  390loPI   C2B 6238   7.864  11.933   8.510 -0.2826  0.1632 -0.2057
  390loPI   C3B 6239   8.045  11.939   8.136  0.0259 -0.0029  0.1618
  390loPI   C4B 6240   8.107  11.910   7.737  0.1533 -0.0001 -0.2132
  391loPI    C1 6241   3.814   5.510   9.897 -0.3231 -0.0493 -0.1740
  391loPI    C2 6242   3.973   5.143   9.881  0.1215  0.1339 -0.1084
  391loPI    C3 6243   3.651   5.212  10.109  0.2375 -0.1426  0.1458
  391loPI   PO4 6244   3.849   5.549   9.632  0.0101  0.2319  0.0567
  391loPI   GL1 6245   3.724   5.621   9.223  0.3884 -0.2922 -0.0715
  391loPI   GL2 6246   3.546   5.515   9.013  0.0462  0.1675 -0.3218
  391loPI   C1A 6247   4.058   5.555   8.972  0.1834 -0.0234 -0.2760
  391loPI   C2A 6248   4.251   5.723   8.545  0.3405  0.0821  0.0139
  391loPI   C3A 6249   4.018   5.910   8.272 -0.0918 -0.0567  0.6191
  391loPI   C4A 6250   3.926   6.281   8.029 -0.2696 -0.3048  0.2512
  391loPI   C5A 6251   3.834   6.161   7.589 -0.1347 -0.6064 -0.2331
  391loPI   C6A 6252   3.433   5.977   7.571  0.2297 -0.2072  0.1883
  391loPI   C1B 6253   3.375   5.277   8.837 -0.1272 -0.2287  0.1398
  391loPI   C2B 6254   3.342   5.137   8.421 -0.0692 -0.0286 -0.2793
  391loPI   C3B 6255   3.114   5.016   8.048 -0.0114  0.3208  0.0431
  391loPI   C4B 6256   3.063   4.802   7.685 -0.2747 -0.3007  0.2009
  392loPI    C1 6257  18.613   0.564  10.464  0.1312  0.0375 -0.0307
  392loPI    C2 6258  18.783   0.608  10.823  0.1957 -0.0201 -0.0542
  392loPI    C3 6259  18.730   0.242  10.671 -0.1309 -0.0147  0.0402
  392loPI   PO4 6260  18.722   0.782  10.295 -0.1903 -0.1617  0.0976
  392loPI   GL1 6261  18.710   0.807   9.873 -0.1623  0.1241  0.1512
  392loPI   GL2 6262  18.473   0.667   9.569 -0.1702  0.0131 -0.1299
  392loPI   C1A 6263  19.110   0.862   9.540  0.0142 -0.3888 -0.3146
  392loPI   C2A 6264  19.388   1.109   9.261 -0.3088  0.1586  0.2150
  392loPI   C3A 6265  19.453   1.106   8.766 -0.1482  0.1037 -0.1313
  392loPI   C4A 6266  19.360   1.174   8.322 -0.2667  0.1225  0.0487
  392loPI   C5A 6267  19.386   1.115   7.933 -0.2956 -0.3652  0.1720
  392loPI   C6A 6268  19.420   1.262   7.493  0.0919 -0.0098  0.0663
  392loPI   C1B 6269  18.341   0.895   9.185  0.3484  0.2675 -0.0728
  392loPI   C2B 6270  18.377   0.968   8.756 -0.0501  0.1692  0.0222
  392loPI   C3B 6271  18.155   1.050   8.354  0.0403 -0.0903  0.1559
  392loPI   C4B 6272  18.492   1.071   7.949  0.0881  0.1269  0.3604
  393loPI    C1 6273   8.383   0.861   9.845 -0.0297 -0.2390 -0.2158
  393loPI    C2 6274   8.333   0.480   9.953 -0.0213 -0.1873 -0.0271
  393loPI    C3 6275   8.615   0.702  10.129 -0.2457  0.0003  0.1023
  393loPI   PO4 6276   8.485   0.917   9.573 -0.0499 -0.2018 -0.0104
  393loPI   GL1 6277   8.570   0.601   9.271  0.0448 -0.3248 -0.0817
  393loPI   GL2 6278   8.538   0.850   9.086 -0.0294  0.0251  0.1079
  393loPI   C1A 6279   8.665   0.362   8.945  0.2958 -0.0260 -0.1294
  393loPI   C2A 6280   8.758   0.367   8.454 -0.3860  0.0678 -0.1795
  393loPI   C3A 6281   8.867   0.204   8.096 -0.3268 -0.0391  0.0474
  393loPI   C4A 6282   9.017   0.155   7.620  0.3265 -0.2930  0.0966
  393loPI   C5A 6283   9.081  -0.066   7.252 -0.3165 -0.1403 -0.1648
  393loPI   C6A 6284   9.052  -0.411   7.211  0.2506  0.0353  0.1288
  393loPI   C1B 6285   8.392   0.711   8.636  0.0974  0.2560 -0.0532
  393loPI   C2B 6286   8.324   0.418   8.256  0.1309 -0.0677 -0.0046
  393loPI   C3B 6287   8.394   0.164   7.864 -0.1474 -0.2868  0.1843
  393loPI   C4B 6288   8.379  -0.194   7.536 -0.0207  0.4387  0.1360
  394loPI    C1 6289  11.480  17.735   9.874 -0.0322  0.1575  0.2587
  394loPI    C2 6290  11.814  17.945   9.812  0.0193  0.1036  0.3528
  394loPI    C3 6291  11.457  18.117   9.757  0.0610  0.0675 -0.0654
  394loPI   PO4 6292  11.597  17.439   9.709 -0.1005 -0.0539 -0.2585
  394loPI   GL1 6293  11.767  17.628   9.245  0.3146 -0.1157 -0.1802
  394loPI   GL2 6294  11.598  17.849   9.245 -0.1126 -0.1111 -0.2485
  394loPI   C1A 6295  11.711  17.542   8.858 -0.0095 -0.0861  0.2001
  394loPI   C2A 6296  11.700  17.466   8.484 -0.0847  0.0852  0.1473
  394loPI   C3A 6297  11.688  17.336   8.064  0.0071  0.0030  0.0075
  394loPI   C4A 6298  11.550  17.216   7.773  0.1218  0.0486  0.2085
  394loPI   C5A 6299  11.365  16.883   7.581 -0.0523  0.0327  0.0646
  394loPI   C6A 6300  11.114  16.625   7.344 -0.1087  0.1756 -0.0400
  394loPI   C1B 6301  11.525  18.047   8.745  0.0166 -0.2584  0.2239
  394loPI   C2B 6302  11.479  17.963   8.348 -0.1670  0.0932 -0.1569
  394loPI   C3B 6303  11.691  17.863   7.939 -0.0411 -0.2956  0.1609
  394loPI   C4B 6304  11.803  17.619   7.576 -0.3125  0.0366  0.0819
  395loPI    C1 6305  17.534   0.301  10.534 -0.2120  0.0470 -0.2090
  395loPI    C2 6306  17.338  -0.026  10.654 -0.0075 -0.0378 -0.1003
  395loPI    C3 6307  17.228   0.334  10.790 -0.0758 -0.0860 -0.0264
  395loPI   PO4 6308  17.574   0.257  10.232 -0.0776  0.2266  0.1553
  395loPI   GL1 6309  17.512  -0.040   9.810  0.1861  0.0659 -0.2777
  395loPI   GL2 6310  17.378   0.219   9.648 -0.2129 -0.0758 -0.0141
  395loPI   C1A 6311  17.759   0.005   9.460 -0.0103 -0.1347  0.4656
  395loPI   C2A 6312  17.936  -0.011   8.997 -0.4263 -0.2734 -0.0087
  395loPI   C3A 6313  17.815   0.003   8.599  0.0275  0.0454  0.2892
  395loPI   C4A 6314  17.838   0.212   8.254 -0.0626 -0.0094  0.1625
  395loPI   C5A 6315  17.705   0.538   7.860  0.0619 -0.0324 -0.3580
  395loPI   C6A 6316  17.743   0.546   7.406  0.0814 -0.0976  0.0770
  395loPI   C1B 6317  17.461   0.571   9.365 -0.2025  0.3764 -0.1703
  395loPI   C2B 6318  17.458   0.729   8.962 -0.0529 -0.0941 -0.1189
  395loPI   C3B 6319  17.257   0.843   8.633  0.1233 -0.0060 -0.0326
  395loPI   C4B 6320  17.258   0.620   8.113  0.0327 -0.0423 -0.0098
  396loPI    C1 6321  18.648  18.440  10.295  0.0004 -0.1446  0.0852
  396loPI    C2 6322  18.855  18.777  10.351  0.0782 -0.2060  0.1691
  396loPI    C3 6323  18.463  18.768  10.428  0.0371 -0.0808 -0.0204
  396loPI   PO4 6324  18.575  18.242  10.095  0.2777 -0.1384 -0.0285
  396loPI   GL1 6325  18.512  18.399   9.630 -0.0387 -0.1608  0.0201
  396loPI   GL2 6326  18.584  18.072   9.479 -0.2210 -0.1755  0.1695
  396loPI   C1A 6327  18.200  18.382   9.469  0.1412  0.3661 -0.1288
  396loPI   C2A 6328  17.943  18.442   9.168 -0.3775  0.0921 -0.1282
  396loPI   C3A 6329  17.895  18.457   8.687  0.1637  0.1302 -0.3448
  396loPI   C4A 6330  18.005  18.644   8.237  0.0389 -0.0992 -0.0288
  396loPI   C5A 6331  18.282  18.451   7.884  0.0166 -0.1213  0.2132
  396loPI   C6A 6332  18.208  18.086   7.694  0.0505  0.0858  0.2634
  396loPI   C1B 6333  18.476  18.184   9.116 -0.0719  0.0425 -0.0344
  396loPI   C2B 6334  18.486  18.316   8.715 -0.0296  0.2114 -0.0113
  396loPI   C3B 6335  18.621  18.533   8.333  0.0467  0.2969 -0.0877
  396loPI   C4B 6336  18.718  18.723   7.987  0.0256  0.0415 -0.1712
  397loPI    C1 6337  11.526   7.392  10.105  0.0694  0.0944  0.0785
  397loPI    C2 6338  11.280   7.575   9.849  0.1349  0.0636 -0.0067
  397loPI    C3 6339  11.162   7.509  10.225 -0.1881 -0.4050 -0.1801
  397loPI   PO4 6340  11.765   7.540  10.109  0.2444 -0.1028 -0.0330
  397loPI   GL1 6341  11.827   7.822   9.752  0.0723 -0.0001 -0.2363
  397loPI   GL2 6342  11.989   7.636   9.516 -0.3392 -0.0464 -0.1783
  397loPI   C1A 6343  11.843   8.101   9.314  0.0312 -0.1332  0.0424
  397loPI   C2A 6344  12.235   8.094   8.984 -0.0510  0.1334  0.0611
  397loPI   C3A 6345  12.185   8.122   8.477 -0.1121  0.3956  0.2607
  397loPI   C4A 6346  12.135   8.048   7.981 -0.1286 -0.0406  0.0518
  397loPI   C5A 6347  11.906   8.091   7.607  0.0202 -0.2673  0.0972
  397loPI   C6A 6348  11.712   8.271   7.267 -0.3385 -0.1134 -0.2406
  397loPI   C1B 6349  12.203   7.602   9.190  0.0486  0.1086 -0.0910
  397loPI   C2B 6350  12.357   7.634   8.836 -0.2384 -0.0053 -0.0973
  397loPI   C3B 6351  12.303   7.560   8.436  0.1299 -0.0220 -0.0435
  397loPI   C4B 6352  12.444   7.644   8.083 -0.1235  0.1268  0.4091
  398loPI    C1 6353  12.894   5.939  10.387  0.2053 -0.0180 -0.3013
  398loPI    C2 6354  12.956   6.297  10.554  0.1701 -0.0024 -0.3218
  398loPI    C3 6355  12.766   6.011  10.760  0.2650 -0.0340 -0.2778
  398loPI   PO4 6356  12.835   6.027  10.165 -0.1729 -0.0951 -0.1575
  398loPI   GL1 6357  12.979   5.850   9.768  0.2298  0.0537  0.0505
  398loPI   GL2 6358  13.284   5.837   9.683  0.0426  0.0202  0.1920
  398loPI   C1A 6359  12.812   5.744   9.394 -0.1182 -0.0899 -0.0191
  398loPI   C2A 6360  12.968   5.463   9.021 -0.2513  0.0934 -0.1635
  398loPI   C3A 6361  13.087   5.064   8.882  0.0502 -0.1145 -0.1539
  398loPI   C4A 6362  13.209   5.063   8.447  0.0814 -0.3336  0.3332
  398loPI   C5A 6363  13.314   4.889   8.112  0.2460  0.0655 -0.0888
  398loPI   C6A 6364  13.040   4.771   7.749  0.1801 -0.4077 -0.3303
  398loPI   C1B 6365  13.393   5.830   9.343 -0.2743  0.2190  0.0331
  398loPI   C2B 6366  13.458   5.831   8.897 -0.4050 -0.2054 -0.1053
  398loPI   C3B 6367  13.513   5.861   8.456  0.1015 -0.2438  0.1049
  398loPI   C4B 6368  13.481   5.870   7.989  0.2134  0.0227 -0.1662
  399loPI    C1 6369   6.778  17.376   9.671  0.2057 -0.0005 -0.0611
  399loPI    C2 6370   6.726  17.287  10.058  0.1376 -0.0607 -0.0840
  399loPI    C3 6371   6.740  16.995   9.786  0.1423 -0.0156 -0.1324
  399loPI   PO4 6372   6.587  17.540   9.610 -0.0472  0.3476 -0.1172
  399loPI   GL1 6373   6.387  17.747   9.218  0.3183 -0.0454  0.0457
  399loPI   GL2 6374   6.183  18.020   9.208  0.0260 -0.2387 -0.1707
  399loPI   C1A 6375   6.361  17.672   8.856 -0.0489 -0.2564  0.0852
  399loPI   C2A 6376   6.586  17.384   8.531 -0.0328 -0.0924 -0.2460
  399loPI   C3A 6377   6.748  17.517   8.194  0.0166 -0.0337  0.1022
  399loPI   C4A 6378   6.658  17.644   7.835 -0.0127 -0.0096 -0.1675
  399loPI   C5A 6379   6.781  17.894   7.488 -0.0895 -0.0290  0.0669
  399loPI   C6A 6380   6.675  18.279   7.347  0.0996 -0.1926  0.2534
  399loPI   C1B 6381   6.198  18.219   8.680 -0.1312 -0.3287  0.2025
  399loPI   C2B 6382   6.093  18.364   8.243 -0.0767 -0.0064 -0.2150
  399loPI   C3B 6383   5.876  18.077   8.020 -0.1540  0.1748  0.3516
  399loPI   C4B 6384   5.812  17.889   7.554 -0.1060 -0.1264 -0.1356
  400loPI    C1 6385  11.600  10.781  10.126  0.0682 -0.1017 -0.0546
  400loPI    C2 6386  11.240  10.741   9.956  0.0502 -0.0228 -0.0350
  400loPI    C3 6387  11.273  10.753  10.355  0.0562  0.1426 -0.0394
  400loPI   PO4 6388  11.760  10.734   9.862  0.3352 -0.3099 -0.2368
  400loPI   GL1 6389  11.934  10.616   9.497  0.2028 -0.2101 -0.2211
  400loPI   GL2 6390  11.842  10.918   9.428 -0.0746  0.1931 -0.0116
  400loPI   C1A 6391  11.977  10.480   9.032 -0.0783 -0.3220 -0.1595
  400loPI   C2A 6392  11.918  10.555   8.613  0.0585  0.0183  0.0065
  400loPI   C3A 6393  11.805  10.617   8.219  0.1575 -0.0668 -0.0073
  400loPI   C4A 6394  11.908  10.799   7.852 -0.1904  0.5040 -0.3376
  400loPI   C5A 6395  12.089  10.671   7.460 -0.1952  0.2906  0.0519
  400loPI   C6A 6396  12.342  10.299   7.312 -0.6449  0.0020 -0.0086
  400loPI   C1B 6397  11.544  10.746   9.115  0.0426  0.2716  0.0861
  400loPI   C2B 6398  11.363  10.541   8.655 -0.2818 -0.1488 -0.0268
  400loPI   C3B 6399  11.256  10.360   8.346 -0.2829 -0.1122  0.2846
  400loPI   C4B 6400  11.102  10.239   8.001 -0.1128 -0.0710 -0.1330
  401loPI    C1 6401   7.216   1.257   9.903  0.0314  0.2327 -0.2827
  401loPI    C2 6402   7.510   1.045   9.734 -0.1990 -0.2953 -0.0456
  401loPI    C3 6403   7.588   1.278  10.049  0.0354 -0.1138 -0.2337
  401loPI   PO4 6404   7.167   1.419   9.767 -0.0722  0.2619 -0.2292
  401loPI   GL1 6405   7.163   1.635   9.535  0.1984 -0.0746 -0.0912
  401loPI   GL2 6406   7.345   1.846   9.436  0.0808 -0.0750 -0.0895
  401loPI   C1A 6407   7.096   1.574   9.097  0.2244 -0.1514 -0.1533
  401loPI   C2A 6408   7.139   1.705   8.615  0.1278  0.0539  0.0323
  401loPI   C3A 6409   7.197   1.978   8.237  0.2240  0.0802 -0.0211
  401loPI   C4A 6410   7.185   2.000   7.726  0.1417 -0.2716  0.2837
  401loPI   C5A 6411   6.918   1.736   7.537 -0.3865 -0.1749 -0.0033
  401loPI   C6A 6412   6.535   1.548   7.568  0.1906 -0.0647 -0.0141
  401loPI   C1B 6413   7.520   1.929   9.014 -0.0871 -0.0870 -0.2972
  401loPI   C2B 6414   7.594   1.952   8.613  0.1921  0.2285 -0.0087
  401loPI   C3B 6415   7.736   1.870   8.224 -0.2010 -0.1996 -0.1728
  401loPI   C4B 6416   7.974   1.660   7.925 -0.2109  0.0835 -0.0264
  402loPI    C1 6417   9.235   3.429  10.295  0.1051  0.1227  0.0390
  402loPI    C2 6418   9.561   3.344  10.081  0.0562 -0.0955  0.0481
  402loPI    C3 6419   9.583   3.603  10.385  0.2948 -0.3495  0.2522
  402loPI   PO4 6420   9.034   3.627  10.097 -0.2510 -0.1919 -0.0155
  402loPI   GL1 6421   8.975   3.741   9.645  0.1597  0.0339 -0.0193
  402loPI   GL2 6422   8.631   3.616   9.770  0.1962 -0.0103 -0.2805
  402loPI   C1A 6423   8.909   3.602   9.275 -0.0653  0.0144 -0.2049
  402loPI   C2A 6424   8.906   3.182   8.984 -0.1712 -0.2731  0.4004
  402loPI   C3A 6425   8.958   3.112   8.546 -0.1740 -0.0660  0.3170
  402loPI   C4A 6426   9.069   3.175   8.105  0.1997 -0.1361 -0.1651
  402loPI   C5A 6427   9.110   3.329   7.657  0.2270 -0.2100 -0.0229
  402loPI   C6A 6428   8.842   3.429   7.182 -0.1226 -0.1812 -0.3731
  402loPI   C1B 6429   8.735   3.146   9.561  0.2399  0.1200 -0.0845
  402loPI   C2B 6430   9.011   2.828   9.387  0.2957 -0.3616  0.1148
  402loPI   C3B 6431   8.967   2.710   8.986 -0.1322  0.1315  0.1325
  402loPI   C4B 6432   9.119   2.662   8.616  0.0642 -0.0180  0.1213
  403loPI    C1 6433  11.398   3.886  10.433  0.0569  0.0716  0.0905
  403loPI    C2 6434  11.554   3.882  10.802 -0.0413  0.0332  0.1319
  403loPI    C3 6435  11.205   3.700  10.730  0.0190 -0.0324  0.0013
  403loPI   PO4 6436  11.662   3.855  10.229 -0.3274 -0.0302  0.0178
  403loPI   GL1 6437  11.844   3.650   9.721  0.2508 -0.0379  0.0947
  403loPI   GL2 6438  11.906   3.954   9.667 -0.2368 -0.1653  0.2630
  403loPI   C1A 6439  12.055   3.502   9.360 -0.0308  0.2033  0.0007
  403loPI   C2A 6440  12.135   3.269   9.005 -0.1488 -0.2765 -0.2888
  403loPI   C3A 6441  12.206   3.207   8.632 -0.3144  0.1517 -0.1486
  403loPI   C4A 6442  12.322   3.106   8.269 -0.4511  0.0452 -0.3956
  403loPI   C5A 6443  12.283   3.136   7.829 -0.0504  0.0105 -0.3019
  403loPI   C6A 6444  12.265   3.073   7.427 -0.2323 -0.0733 -0.0097
  403loPI   C1B 6445  11.965   4.049   9.268 -0.0144 -0.1365 -0.1791
  403loPI   C2B 6446  11.934   3.839   8.946  0.0412  0.0445 -0.1839
  403loPI   C3B 6447  12.129   3.699   8.671  0.1747 -0.1006 -0.0485
  403loPI   C4B 6448  12.245   3.687   8.222 -0.1443 -0.1942  0.2504
  404loPI    C1 6449  11.019  16.167   9.967  0.0795 -0.0503 -0.0381
  404loPI    C2 6450  10.802  16.328   9.672  0.2598 -0.0161 -0.1542
  404loPI    C3 6451  10.632  16.072   9.929  0.1023 -0.0499 -0.2900
  404loPI   PO4 6452  11.251  16.120   9.893 -0.2655  0.0418 -0.0763
  404loPI   GL1 6453  11.232  16.131   9.445 -0.1489  0.1239  0.1566
  404loPI   GL2 6454  11.003  16.104   9.209 -0.3509 -0.2253  0.0087
  404loPI   C1A 6455  11.287  15.723   9.218  0.1236 -0.4291  0.3067
  404loPI   C2A 6456  11.244  15.754   8.813 -0.0868 -0.1165 -0.3763
  404loPI   C3A 6457  10.993  15.724   8.548 -0.1099  0.1066  0.2177
  404loPI   C4A 6458  10.904  15.945   7.993 -0.0274 -0.2509 -0.0512
  404loPI   C5A 6459  10.727  15.865   7.505 -0.1817  0.0575 -0.2286
  404loPI   C6A 6460  10.936  15.799   7.005  0.4457  0.3007 -0.3282
  404loPI   C1B 6461  10.901  16.193   8.695  0.1152  0.2935  0.1754
  404loPI   C2B 6462  10.640  16.315   8.304  0.1314 -0.3661 -0.1987
  404loPI   C3B 6463  10.591  16.372   7.920 -0.2814 -0.2247  0.1110
  404loPI   C4B 6464  10.686  16.414   7.477 -0.1957  0.0490 -0.3229
  405loPI    C1 6465  17.772  15.762   9.916  0.1575  0.0647 -0.0653
  405loPI    C2 6466  17.619  16.120  10.010 -0.0193 -0.0773  0.2029
  405loPI    C3 6467  17.868  15.936  10.264 -0.1660 -0.2770  0.2043
  405loPI   PO4 6468  17.817  15.774   9.632  0.0807  0.1343 -0.3517
  405loPI   GL1 6469  17.601  15.776   9.185  0.0799  0.3270 -0.0944
  405loPI   GL2 6470  17.239  15.711   9.177  0.1451 -0.0929 -0.1371
  405loPI   C1A 6471  17.645  16.104   8.867  0.0481  0.0228 -0.1444
  405loPI   C2A 6472  17.564  16.364   8.570 -0.0330 -0.1507  0.2549
  405loPI   C3A 6473  17.336  16.273   8.355  0.1702  0.0482  0.2233
  405loPI   C4A 6474  16.981  16.354   8.075 -0.2675  0.1869  0.2090
  405loPI   C5A 6475  16.966  16.709   7.836  0.2450  0.0183 -0.0537
  405loPI   C6A 6476  17.058  16.723   7.520  0.0512  0.0656 -0.0377
  405loPI   C1B 6477  17.218  15.935   8.812  0.0823  0.0335 -0.1189
  405loPI   C2B 6478  16.862  16.080   8.510  0.2260 -0.0383  0.1399
  405loPI   C3B 6479  16.698  15.978   8.166  0.0668  0.0872 -0.0399
  405loPI   C4B 6480  16.888  15.901   7.784 -0.2237 -0.1204 -0.2300
  406loPI    C1 6481  18.110   9.813  10.244  0.0153  0.0253  0.1409
  406loPI    C2 6482  18.159  10.185  10.105 -0.1153 -0.1164 -0.3002
  406loPI    C3 6483  17.797  10.062  10.222 -0.0462 -0.0652 -0.0273
  406loPI   PO4 6484  18.174   9.577  10.139 -0.0176 -0.1638 -0.0122
  406loPI   GL1 6485  17.981   9.293   9.851  0.2199  0.1048  0.1454
  406loPI   GL2 6486  18.415   9.231   9.741  0.0397 -0.0431  0.0283
  406loPI   C1A 6487  17.897   9.337   9.514 -0.0445 -0.1199  0.0844
  406loPI   C2A 6488  17.948   9.287   9.074 -0.1006  0.1950  0.3052
  406loPI   C3A 6489  17.904   9.267   8.577 -0.0266 -0.0386 -0.0217
  406loPI   C4A 6490  17.824   9.335   8.158  0.0797 -0.0986  0.0321
  406loPI   C5A 6491  17.996   9.524   7.841 -0.1318  0.5267 -0.1252
  406loPI   C6A 6492  18.137   9.943   7.812 -0.1181 -0.0117 -0.2326
  406loPI   C1B 6493  18.383   9.298   9.295  0.1803  0.0473  0.0718
  406loPI   C2B 6494  18.389   9.336   8.814  0.1494 -0.2044  0.0834
  406loPI   C3B 6495  18.493   9.408   8.479 -0.0405 -0.0230  0.1220
  406loPI   C4B 6496  18.485   9.587   8.078  0.3534 -0.2423  0.1534
  407loPI    C1 6497  15.574   6.214  10.269  0.1371 -0.0764 -0.1500
  407loPI    C2 6498  15.444   5.859  10.137  0.1481 -0.1955  0.1525
  407loPI    C3 6499  15.508   5.917  10.528  0.1263  0.1473  0.1087
  407loPI   PO4 6500  15.688   6.341  10.078  0.1164  0.0529 -0.3588
  407loPI   GL1 6501  15.927   6.607   9.988  0.2080  0.0507 -0.0443
  407loPI   GL2 6502  15.803   6.699   9.719 -0.0724  0.1895  0.1905
  407loPI   C1A 6503  16.290   6.561   9.665  0.0633 -0.1657  0.2451
  407loPI   C2A 6504  16.337   6.578   9.212 -0.0328 -0.0036  0.0315
  407loPI   C3A 6505  16.324   6.506   8.808  0.3195  0.0914 -0.1041
  407loPI   C4A 6506  16.127   6.586   8.467 -0.4238  0.0318 -0.0165
  407loPI   C5A 6507  16.143   6.816   8.063  0.2989 -0.1024 -0.0106
  407loPI   C6A 6508  15.945   7.135   7.796  0.0054 -0.2419  0.0128
  407loPI   C1B 6509  15.813   6.727   9.261 -0.3375  0.0839  0.1017
  407loPI   C2B 6510  15.843   6.814   8.824 -0.0521  0.3091 -0.1951
  407loPI   C3B 6511  15.694   6.884   8.496 -0.3079  0.0258  0.1806
  407loPI   C4B 6512  15.553   6.897   8.099  0.0320 -0.5348 -0.0011
  408loPI    C1 6513   3.507   9.711  10.174  0.0044  0.0464 -0.2754
  408loPI    C2 6514   3.877   9.581  10.251  0.0916  0.2750 -0.3015
  408loPI    C3 6515   3.580   9.503  10.508  0.2008  0.2723 -0.1748
  408loPI   PO4 6516   3.515   9.672   9.933 -0.0284 -0.0224 -0.0722
  408loPI   GL1 6517   3.359   9.418   9.708  0.0549 -0.3336 -0.1073
  408loPI   GL2 6518   2.963   9.483   9.609 -0.1556 -0.0685 -0.3873
  408loPI   C1A 6519   3.485   9.641   9.260  0.2223  0.0288 -0.1148
  408loPI   C2A 6520   3.444   9.914   8.924 -0.1239  0.0709 -0.2892
  408loPI   C3A 6521   3.234  10.247   8.820  0.2665  0.0543 -0.0987
  408loPI   C4A 6522   3.000  10.248   8.491 -0.1256 -0.2382  0.0103
  408loPI   C5A 6523   2.859  10.474   8.039  0.1950  0.2645 -0.0021
  408loPI   C6A 6524   2.577  10.703   7.832 -0.0237 -0.2459 -0.0823
  408loPI   C1B 6525   3.034   9.365   9.123  0.0815 -0.1864  0.0823
  408loPI   C2B 6526   3.398   9.412   8.815 -0.1566  0.3716 -0.0549
  408loPI   C3B 6527   3.521   9.595   8.427 -0.2264  0.0198  0.1658
  408loPI   C4B 6528   3.438   9.641   7.947 -0.0351  0.0502  0.0410
  409loPI    C1 6529  18.703   8.605  10.486  0.0188 -0.1292 -0.5940
  409loPI    C2 6530  19.036   8.394  10.554  0.0755  0.1476  0.0635
  409loPI    C3 6531  18.683   8.256  10.681 -0.0196  0.0227 -0.3218
  409loPI   PO4 6532  18.560   8.653  10.265 -0.2721 -0.2170  0.0183
  409loPI   GL1 6533  18.474   8.714   9.817  0.0900  0.0817  0.0437
  409loPI   GL2 6534  18.778   8.770   9.651  0.0296  0.0344  0.0191
  409loPI   C1A 6535  18.498   8.403   9.515  0.1378  0.1212 -0.0983
  409loPI   C2A 6536  18.487   8.322   9.188 -0.4069  0.0629 -0.3366
  409loPI   C3A 6537  18.521   8.316   8.780 -0.0299  0.1152  0.0962
  409loPI   C4A 6538  18.564   8.515   8.365  0.0994 -0.1742  0.0100
  409loPI   C5A 6539  18.449   8.638   7.991  0.1172 -0.1165  0.2151
  409loPI   C6A 6540  18.138   8.658   7.698 -0.1621 -0.0765 -0.1952
  409loPI   C1B 6541  18.649   8.914   9.325 -0.2343 -0.4518  0.0002
  409loPI   C2B 6542  18.691   8.770   8.925  0.1728 -0.2327  0.1266
  409loPI   C3B 6543  18.783   8.993   8.568  0.2142 -0.0386  0.0832
  409loPI   C4B 6544  18.718   9.049   8.150  0.3382 -0.1525 -0.1039
  410loPI    C1 6545  11.713  16.813  10.097 -0.1145 -0.0111  0.1822
  410loPI    C2 6546  11.889  17.012   9.799 -0.0136 -0.3331  0.0218
  410loPI    C3 6547  11.721  17.212  10.102 -0.1333 -0.0012 -0.2574
  410loPI   PO4 6548  11.992  16.498   9.935 -0.3176 -0.2432 -0.2576
  410loPI   GL1 6549  12.160  16.485   9.494 -0.0179  0.1847  0.1899
  410loPI   GL2 6550  12.046  16.741   9.422 -0.0710  0.1190  0.1410
  410loPI   C1A 6551  12.469  16.509   9.179 -0.0044  0.1328  0.2247
  410loPI   C2A 6552  12.424  16.595   8.743 -0.0389  0.1576 -0.0803
  410loPI   C3A 6553  12.560  16.636   8.304 -0.0855  0.0376 -0.1182
  410loPI   C4A 6554  12.367  16.661   7.819  0.0264  0.0127  0.5149
  410loPI   C5A 6555  12.245  16.598   7.381  0.1892 -0.3196  0.1984
  410loPI   C6A 6556  12.139  16.513   6.948 -0.0002 -0.1773  0.2089
  410loPI   C1B 6557  11.940  16.626   8.963 -0.1089  0.0798  0.3214
  410loPI   C2B 6558  11.723  16.571   8.622  0.1525  0.0489 -0.1856
  410loPI   C3B 6559  11.650  16.463   8.182  0.1497  0.1093  0.1068
  410loPI   C4B 6560  11.800  16.255   7.802  0.0402 -0.1290  0.0661
  411loPI    C1 6561   3.742   7.081   9.956 -0.0093  0.0526  0.0973
  411loPI    C2 6562   3.991   6.770   9.922 -0.1126 -0.0298  0.0903
  411loPI    C3 6563   4.102   7.093  10.130  0.0068 -0.0588  0.0725
  411loPI   PO4 6564   3.657   7.395   9.759  0.2436 -0.0236 -0.0410
  411loPI   GL1 6565   3.551   7.543   9.336  0.1180  0.2153 -0.0180
  411loPI   GL2 6566   3.635   7.853   9.214  0.1178 -0.2878 -0.0745
  411loPI   C1A 6567   3.804   7.234   9.033 -0.0645  0.1245 -0.0397
  411loPI   C2A 6568   3.687   7.260   8.577  0.0701  0.2311  0.0591
  411loPI   C3A 6569   3.541   7.204   8.227 -0.0026  0.3384 -0.0064
  411loPI   C4A 6570   3.522   7.238   7.867 -0.1605  0.0119  0.2975
  411loPI   C5A 6571   3.267   7.383   7.481 -0.4250  0.0262 -0.3286
  411loPI   C6A 6572   3.001   7.277   7.095 -0.2063  0.0354 -0.1774
  411loPI   C1B 6573   3.330   7.972   8.877 -0.1606 -0.1609  0.2217
  411loPI   C2B 6574   3.341   8.133   8.402  0.1100  0.1270  0.0393
  411loPI   C3B 6575   3.580   8.259   8.024 -0.0885 -0.1286 -0.1146
  411loPI   C4B 6576   3.485   8.372   7.545  0.2186  0.2323 -0.0478
  412loPI    C1 6577  17.487  11.523   9.868 -0.2989  0.0735 -0.1343
  412loPI    C2 6578  17.192  11.419  10.118 -0.1686 -0.2348 -0.1050
  412loPI    C3 6579  17.571  11.426  10.247 -0.1334 -0.0996 -0.2138
  412loPI   PO4 6580  17.347  11.351   9.568 -0.2331 -0.1153  0.1641
  412loPI   GL1 6581  17.140  11.560   9.317 -0.0691  0.2266  0.1677
  412loPI   GL2 6582  16.954  11.518   9.115  0.1113  0.3548  0.2719
  412loPI   C1A 6583  17.342  11.731   8.886  0.0309 -0.0210 -0.1142
  412loPI   C2A 6584  17.375  11.750   8.405 -0.3394  0.1293 -0.1360
  412loPI   C3A 6585  17.173  11.527   8.078  0.0265  0.5297  0.2035
  412loPI   C4A 6586  17.064  11.316   7.637  0.0110  0.0753  0.2294
  412loPI   C5A 6587  16.796  10.917   7.594  0.0506  0.0811  0.2145
  412loPI   C6A 6588  16.293  10.791   7.490 -0.2146 -0.1942  0.0509
  412loPI   C1B 6589  17.033  11.122   8.805  0.4326  0.1442  0.1649
  412loPI   C2B 6590  17.087  10.725   8.506  0.2808 -0.1716 -0.0597
  412loPI   C3B 6591  16.864  10.544   8.146  0.0332  0.1039 -0.2657
  412loPI   C4B 6592  16.977  10.464   7.724  0.1288  0.2924 -0.2002
  413loPI    C1 6593  16.308  12.468  10.122  0.1518 -0.1045  0.0056
  413loPI    C2 6594  16.338  12.070  10.099 -0.0178 -0.1167 -0.0252
  413loPI    C3 6595  16.591  12.278  10.330  0.1549 -0.2289 -0.1113
  413loPI   PO4 6596  16.265  12.553   9.949  0.2579  0.2365  0.3650
  413loPI   GL1 6597  16.086  12.801   9.614 -0.0404 -0.1259 -0.1538
  413loPI   GL2 6598  15.868  12.920   9.445  0.2331  0.0138  0.2910
  413loPI   C1A 6599  16.383  12.911   9.258  0.3064 -0.0360  0.1671
  413loPI   C2A 6600  16.712  12.720   8.956 -0.0796  0.0294 -0.2249
  413loPI   C3A 6601  16.840  12.860   8.538  0.0115 -0.0946  0.2618
  413loPI   C4A 6602  16.990  12.905   8.041  0.1456  0.3262 -0.0166
  413loPI   C5A 6603  17.167  12.925   7.699 -0.0899  0.0714  0.1056
  413loPI   C6A 6604  17.270  12.677   7.331 -0.1205  0.0119  0.0904
  413loPI   C1B 6605  15.974  12.876   9.011  0.1045  0.0939 -0.0976
  413loPI   C2B 6606  15.984  12.593   8.707  0.0433  0.0206  0.1421
  413loPI   C3B 6607  16.055  12.348   8.310  0.1741  0.4161  0.1319
  413loPI   C4B 6608  16.142  12.103   7.951 -0.1988  0.0586  0.0000
  414loPI    C1 6609   0.304   4.529  10.151  0.2137 -0.3182  0.2305
  414loPI    C2 6610   0.558   4.768  10.345  0.0163 -0.0681  0.1860
  414loPI    C3 6611   0.249   4.605  10.540 -0.2634  0.2965  0.0583
  414loPI   PO4 6612   0.424   4.510   9.887  0.0027 -0.2547 -0.1937
  414loPI   GL1 6613   0.238   4.484   9.459 -0.0772  0.1660 -0.0529
  414loPI   GL2 6614   0.056   4.244   9.730 -0.2568 -0.1318 -0.1598
  414loPI   C1A 6615   0.119   4.619   9.058 -0.1022 -0.2517 -0.1540
  414loPI   C2A 6616   0.140   4.642   8.624  0.2393  0.0869  0.0922
  414loPI   C3A 6617  -0.008   4.408   8.336 -0.1122 -0.2241  0.2968
  414loPI   C4A 6618  -0.242   4.380   8.064 -0.3853  0.1995  0.1996
  414loPI   C5A 6619  -0.559   4.295   7.812  0.1057  0.0528  0.3608
  414loPI   C6A 6620  -0.673   4.213   7.408 -0.0538  0.1184 -0.4499
  414loPI   C1B 6621   0.276   3.952   9.394 -0.1221  0.1575 -0.1835
  414loPI   C2B 6622   0.303   3.795   9.058 -0.0767  0.1672 -0.0468
  414loPI   C3B 6623   0.285   3.678   8.633 -0.1046  0.1051 -0.1232
  414loPI   C4B 6624   0.507   3.605   8.232  0.0360 -0.0724 -0.1916
  415loPI    C1 6625   3.539   6.424   9.728  0.0368 -0.1513 -0.0235
  415loPI    C2 6626   3.589   6.594  10.086 -0.0882 -0.1280 -0.0167
  415loPI    C3 6627   3.222   6.559   9.931 -0.0418 -0.2048 -0.1099
  415loPI   PO4 6628   3.683   6.554   9.477 -0.0028  0.0738 -0.0099
  415loPI   GL1 6629   3.480   6.738   9.084  0.0384 -0.1328 -0.1242
  415loPI   GL2 6630   3.791   6.797   8.880  0.0589 -0.0621 -0.1102
  415loPI   C1A 6631   3.406   6.580   8.708 -0.0533 -0.0151  0.0071
  415loPI   C2A 6632   3.541   6.352   8.344  0.0293 -0.0192  0.4651
  415loPI   C3A 6633   3.530   5.955   8.084  0.2632 -0.1502  0.4575
  415loPI   C4A 6634   3.790   5.717   7.848  0.2875  0.3342  0.0502
  415loPI   C5A 6635   4.310   5.691   7.978  0.1168  0.0265 -0.2393
  415loPI   C6A 6636   4.742   5.487   7.786  0.3921  0.4929 -0.1924
  415loPI   C1B 6637   3.748   6.787   8.427  0.0711  0.1056 -0.1345
  415loPI   C2B 6638   3.776   6.822   8.019  0.2249 -0.0080  0.1286
  415loPI   C3B 6639   3.640   6.786   7.608 -0.1252  0.1990  0.0314
  415loPI   C4B 6640   3.414   6.995   7.221 -0.1263  0.1116  0.1040
  416loPI    C1 6641  10.096  14.585  10.115  0.1818  0.1172 -0.4157
  416loPI    C2 6642  10.114  14.366   9.781 -0.0399 -0.1634 -0.2480
  416loPI    C3 6643  10.040  14.190  10.132 -0.0766  0.1637 -0.0877
  416loPI   PO4 6644   9.894  14.856  10.038  0.1977  0.1578  0.0240
  416loPI   GL1 6645   9.872  14.816   9.652  0.1414  0.0645  0.1985
  416loPI   GL2 6646   9.906  14.542   9.379 -0.1731  0.2709 -0.0319
  416loPI   C1A 6647  10.028  15.069   9.326  0.2463 -0.3406  0.0212
  416loPI   C2A 6648   9.948  15.071   8.857  0.3934  0.1675 -0.0308
  416loPI   C3A 6649   9.667  15.412   8.631  0.2389 -0.1986  0.0358
  416loPI   C4A 6650   9.717  15.286   8.236  0.1062  0.2840 -0.3415
  416loPI   C5A 6651   9.875  15.237   7.828  0.3411 -0.0465  0.2061
  416loPI   C6A 6652   9.952  15.002   7.454 -0.0890 -0.0203  0.1834
  416loPI   C1B 6653   9.781  14.686   9.095 -0.2807 -0.0984 -0.2422
  416loPI   C2B 6654   9.712  14.498   8.649  0.0425  0.1064  0.1873
  416loPI   C3B 6655   9.853  14.433   8.172  0.1659  0.0710 -0.0660
  416loPI   C4B 6656   9.910  14.227   7.902 -0.3584 -0.0127 -0.2944
  417loPI    C1 6657   6.312   6.497  10.024 -0.4005 -0.2204  0.2150
  417loPI    C2 6658   6.055   6.735  10.218 -0.4596 -0.2592  0.1848
  417loPI    C3 6659   6.271   6.467  10.421  0.1054  0.2727  0.3175
  417loPI   PO4 6660   6.331   6.613   9.799 -0.2143 -0.1198 -0.0790
  417loPI   GL1 6661   6.403   6.618   9.379 -0.5784  0.1541  0.0746
  417loPI   GL2 6662   6.053   6.568   9.265  0.2131 -0.1150  0.3846
  417loPI   C1A 6663   6.503   6.509   8.999 -0.1626 -0.0352  0.1839
  417loPI   C2A 6664   6.473   6.314   8.581 -0.2357 -0.0485  0.2149
  417loPI   C3A 6665   6.399   6.276   8.069  0.1468  0.1262  0.2461
  417loPI   C4A 6666   6.227   6.121   7.652 -0.1986  0.0673  0.1671
  417loPI   C5A 6667   5.848   6.170   7.379  0.3035 -0.1305 -0.0046
  417loPI   C6A 6668   5.549   6.304   7.004 -0.1015  0.2629 -0.0390
  417loPI   C1B 6669   6.143   6.651   8.766  0.1882  0.1503 -0.3596
  417loPI   C2B 6670   6.335   6.746   8.328 -0.0860  0.0495  0.0137
  417loPI   C3B 6671   6.410   6.878   7.994 -0.0322 -0.0791 -0.1319
  417loPI   C4B 6672   6.735   6.647   7.644 -0.4332  0.1389 -0.0839
  418loPI    C1 6673   8.080  16.255  10.016  0.2443 -0.0081  0.2162
  418loPI    C2 6674   8.160  15.891   9.869 -0.0645 -0.0406  0.1220
  418loPI    C3 6675   8.132  15.946  10.264  0.0851 -0.0970  0.1407
  418loPI   PO4 6676   7.951  16.326   9.837  0.3117 -0.2351  0.0467
  418loPI   GL1 6677   7.917  16.060   9.478  0.0918 -0.3873 -0.0804
  418loPI   GL2 6678   7.691  16.143   9.295 -0.3545  0.2523 -0.0516
  418loPI   C1A 6679   8.070  15.799   9.022  0.0776 -0.2521 -0.1222
  418loPI   C2A 6680   8.178  15.673   8.559 -0.1405  0.4220 -0.0061
  418loPI   C3A 6681   8.397  15.773   8.245  0.1340 -0.0677 -0.0931
  418loPI   C4A 6682   8.238  15.968   7.953  0.3090  0.1080 -0.0062
  418loPI   C5A 6683   8.481  16.194   7.635  0.1184  0.1024 -0.4494
  418loPI   C6A 6684   8.504  16.481   7.282  0.1206  0.1892 -0.3113
  418loPI   C1B 6685   7.658  16.018   8.935  0.2697  0.0886  0.0456
  418loPI   C2B 6686   7.841  16.031   8.511 -0.0236 -0.0448  0.2265
  418loPI   C3B 6687   7.753  15.951   8.116 -0.3577  0.2478 -0.0734
  418loPI   C4B 6688   7.669  15.806   7.866  0.1024  0.0991 -0.3437
  419loPI    C1 6689  10.464  13.743  10.025  0.0338  0.2032  0.0575
  419loPI    C2 6690  10.202  13.776  10.326 -0.0490  0.0850 -0.0008
  419loPI    C3 6691  10.239  13.429  10.130  0.1203  0.1141 -0.0219
  419loPI   PO4 6692  10.371  13.874   9.834  0.1875  0.0964  0.2314
  419loPI   GL1 6693  10.443  14.118   9.516  0.0458  0.2133  0.2845
  419loPI   GL2 6694  10.717  14.316   9.434  0.1212 -0.3047  0.0122
  419loPI   C1A 6695  10.269  14.071   9.174  0.2563  0.1564 -0.1646
  419loPI   C2A 6696  10.160  14.330   8.915  0.1089 -0.3843  0.0558
  419loPI   C3A 6697  10.118  14.166   8.504  0.4175 -0.1029  0.3065
  419loPI   C4A 6698  10.510  13.973   8.216  0.0841 -0.1160  0.3151
  419loPI   C5A 6699  10.429  13.998   7.851 -0.3407  0.1317  0.0831
  419loPI   C6A 6700  10.587  14.315   7.576 -0.1722  0.2297 -0.0765
  419loPI   C1B 6701  10.655  14.374   8.954 -0.0523  0.0428 -0.1749
  419loPI   C2B 6702  10.520  14.430   8.552 -0.0511 -0.0120 -0.1071
  419loPI   C3B 6703  10.360  14.447   8.105  0.2352  0.2068  0.0174
  419loPI   C4B 6704  10.175  14.609   7.670 -0.1962  0.3137 -0.0456
  420loPI    C1 6705   5.494  11.876   9.652 -0.2309  0.0661  0.1545
  420loPI    C2 6706   5.540  12.234   9.826 -0.1406  0.0797  0.1032
  420loPI    C3 6707   5.525  11.903  10.050  0.2602  0.0695  0.1213
  420loPI   PO4 6708   5.181  11.921   9.511 -0.0441  0.0192  0.2791
  420loPI   GL1 6709   4.974  11.852   9.146 -0.1863 -0.1079  0.1559
  420loPI   GL2 6710   4.835  11.463   9.135  0.2869  0.0907 -0.1590
  420loPI   C1A 6711   4.786  12.026   8.775 -0.1042 -0.1609 -0.1262
  420loPI   C2A 6712   4.770  12.033   8.375 -0.1701 -0.0170  0.0574
  420loPI   C3A 6713   4.827  11.682   7.927  0.0610 -0.0036 -0.3383
  420loPI   C4A 6714   4.766  11.730   7.465  0.0792  0.0200 -0.1528
  420loPI   C5A 6715   4.747  11.540   7.012  0.1101  0.1388  0.0437
  420loPI   C6A 6716   4.834  11.146   6.857  0.4479 -0.2752 -0.0158
  420loPI   C1B 6717   4.877  11.423   8.696 -0.1159 -0.3030  0.0159
  420loPI   C2B 6718   4.751  11.404   8.289  0.3604 -0.4556 -0.2992
  420loPI   C3B 6719   4.443  11.396   8.100  0.1609 -0.0014  0.0570
  420loPI   C4B 6720   4.343  11.500   7.699  0.2027  0.0498 -0.2273
  421loPI    C1 6721  17.905  10.663  10.175 -0.3154 -0.0842 -0.1261
  421loPI    C2 6722  17.572  10.878  10.118 -0.2310  0.0983  0.0592
  421loPI    C3 6723  17.598  10.625  10.427 -0.1056  0.2726  0.1936
  421loPI   PO4 6724  18.137  10.696   9.947  0.0556 -0.1390  0.1472
  421loPI   GL1 6725  18.286  10.623   9.541  0.4842 -0.1670 -0.0805
  421loPI   GL2 6726  18.170  11.045   9.509 -0.3348  0.1030 -0.0250
  421loPI   C1A 6727  18.391  10.697   9.149 -0.0514 -0.1341  0.1993
  421loPI   C2A 6728  18.233  10.701   8.743 -0.3809 -0.0740  0.1063
  421loPI   C3A 6729  18.011  10.814   8.353  0.0595 -0.0538  0.0856
  421loPI   C4A 6730  17.866  10.693   8.007  0.0880 -0.1972  0.3092
  421loPI   C5A 6731  17.967  10.508   7.617  0.1713  0.1480 -0.3820
  421loPI   C6A 6732  18.282  10.273   7.394 -0.0156 -0.2961  0.0118
  421loPI   C1B 6733  18.265  11.214   9.142  0.4793  0.0643  0.1433
  421loPI   C2B 6734  18.140  11.198   8.826  0.2453  0.0144  0.1219
  421loPI   C3B 6735  18.182  11.338   8.400  0.2244 -0.3016 -0.0944
  421loPI   C4B 6736  18.007  11.239   7.934  0.0074  0.1045 -0.0203
  422loPI    C1 6737  17.263   9.703  10.335 -0.2303  0.0164  0.2158
  422loPI    C2 6738  17.630   9.557  10.397 -0.1023  0.2196 -0.0487
  422loPI    C3 6739  17.345   9.504  10.672 -0.0397 -0.4531 -0.0978
  422loPI   PO4 6740  17.300   9.937  10.130  0.0450  0.1121 -0.2277
  422loPI   GL1 6741  17.408   9.986   9.817  0.3885 -0.1445  0.0248
  422loPI   GL2 6742  17.163  10.072   9.667  0.0719 -0.1488  0.2435
  422loPI   C1A 6743  17.534   9.731   9.492 -0.0372 -0.0085 -0.1580
  422loPI   C2A 6744  17.533   9.572   9.064  0.2292  0.0014  0.0720
  422loPI   C3A 6745  17.513   9.518   8.637  0.1588  0.2288  0.1737
  422loPI   C4A 6746  17.365   9.413   8.204 -0.1026 -0.0166  0.4361
  422loPI   C5A 6747  17.125   9.650   7.965  0.2170 -0.1101 -0.0054
  422loPI   C6A 6748  16.708   9.585   7.901 -0.0010  0.1048 -0.0779
  422loPI   C1B 6749  17.147  10.123   9.358 -0.1550 -0.1344 -0.1830
  422loPI   C2B 6750  17.206   9.911   9.149  0.0731 -0.2056 -0.4955
  422loPI   C3B 6751  17.185   9.862   8.745  0.0264 -0.1570  0.0862
  422loPI   C4B 6752  17.011   9.700   8.437 -0.0823 -0.2215 -0.0817
  423loPI    C1 6753   2.007  14.593   9.597  0.0770  0.1286  0.1859
  423loPI    C2 6754   2.228  14.281   9.716 -0.2114 -0.1770 -0.0589
  423loPI    C3 6755   2.063  14.524   9.987  0.0498 -0.2095  0.1333
  423loPI   PO4 6756   2.157  14.730   9.445  0.3511  0.1422  0.3507
  423loPI   GL1 6757   2.305  14.694   9.002 -0.1363  0.1398  0.4136
  423loPI   GL2 6758   2.411  14.348   8.807  0.0468 -0.0394  0.0317
  423loPI   C1A 6759   2.315  15.019   8.631 -0.0137  0.2362 -0.2802
  423loPI   C2A 6760   2.272  14.991   8.241 -0.3040 -0.0817 -0.1144
  423loPI   C3A 6761   2.244  15.102   7.846 -0.2230 -0.0133  0.0240
  423loPI   C4A 6762   1.873  15.074   7.661 -0.1195  0.2093 -0.1560
  423loPI   C5A 6763   1.625  15.075   7.263 -0.1141  0.0783 -0.0205
  423loPI   C6A 6764   1.429  15.214   6.875 -0.0147 -0.2715  0.2474
  423loPI   C1B 6765   2.533  14.619   8.492  0.2188  0.0764 -0.2048
  423loPI   C2B 6766   2.643  14.701   8.044 -0.0430 -0.1854  0.2751
  423loPI   C3B 6767   2.732  14.883   7.689 -0.0148 -0.1729 -0.0846
  423loPI   C4B 6768   2.676  15.026   7.241  0.6692 -0.2738  0.6772
  424loPI    C1 6769   5.813  11.366   9.781  0.1149  0.1734  0.0853
  424loPI    C2 6770   5.488  11.363  10.014  0.1908  0.0357  0.1909
  424loPI    C3 6771   5.849  11.291  10.172  0.2281 -0.1859  0.0105
  424loPI   PO4 6772   5.687  11.205   9.526 -0.0690 -0.1036  0.0283
  424loPI   GL1 6773   5.773  11.100   9.085 -0.0947 -0.1241  0.3406
  424loPI   GL2 6774   6.022  10.989   9.084  0.1818 -0.2492 -0.0288
  424loPI   C1A 6775   5.857  11.159   8.625 -0.1803  0.1090 -0.1377
  424loPI   C2A 6776   5.966  11.000   8.244  0.1186 -0.0896 -0.0606
  424loPI   C3A 6777   5.853  10.830   7.894 -0.2378  0.0621  0.0463
  424loPI   C4A 6778   5.958  10.641   7.489  0.3966 -0.0698 -0.2499
  424loPI   C5A 6779   6.243  10.737   7.168  0.3429  0.2727 -0.1429
  424loPI   C6A 6780   6.675  10.772   6.957  0.1636 -0.0694  0.3629
  424loPI   C1B 6781   5.916  10.678   8.759 -0.1597  0.2330 -0.3198
  424loPI   C2B 6782   5.716  10.514   8.358  0.2680 -0.2414 -0.0613
  424loPI   C3B 6783   5.650  10.295   7.937  0.1477  0.0682  0.1304
  424loPI   C4B 6784   5.630  10.218   7.383  0.2069 -0.2696 -0.2766
  425loPI    C1 6785   1.560  12.758   9.347 -0.1827 -0.0416  0.0969
  425loPI    C2 6786   1.319  12.951   9.601 -0.1417  0.0292  0.0822
  425loPI    C3 6787   1.613  12.720   9.741 -0.3354 -0.2086  0.1028
  425loPI   PO4 6788   1.687  12.903   9.239 -0.2816  0.0121 -0.0799
  425loPI   GL1 6789   1.641  13.147   8.884 -0.2397 -0.2365 -0.1123
  425loPI   GL2 6790   1.903  13.202   8.755 -0.3115  0.1741 -0.1634
  425loPI   C1A 6791   1.647  13.274   8.407  0.0290 -0.4346 -0.0303
  425loPI   C2A 6792   1.893  13.424   7.980  0.3362  0.0372  0.2086
  425loPI   C3A 6793   2.115  13.214   7.632 -0.1951 -0.1508  0.3069
  425loPI   C4A 6794   2.393  12.989   7.458  0.2072 -0.2947  0.1387
  425loPI   C5A 6795   2.604  12.643   7.267 -0.1915 -0.2864  0.1148
  425loPI   C6A 6796   2.954  12.357   7.182 -0.4472 -0.1202 -0.2719
  425loPI   C1B 6797   2.049  13.077   8.394  0.1392 -0.0962  0.3258
  425loPI   C2B 6798   2.013  12.861   7.983  0.2274 -0.2272  0.0096
  425loPI   C3B 6799   2.077  12.725   7.679 -0.2329 -0.1885 -0.2241
  425loPI   C4B 6800   1.890  12.875   7.326 -0.2496 -0.1895 -0.2249
  426loPI    C1 6801  13.409   4.962   9.937 -0.0510  0.0244 -0.2022
  426loPI    C2 6802  13.498   4.746  10.261 -0.0686 -0.0445 -0.2432
  426loPI    C3 6803  13.161   4.960  10.251 -0.0669 -0.0405 -0.2151
  426loPI   PO4 6804  13.642   4.998   9.823 -0.1977  0.0155  0.1365
  426loPI   GL1 6805  13.802   5.036   9.488 -0.0265  0.0073 -0.1105
  426loPI   GL2 6806  13.979   4.701   9.460  0.2639  0.0718 -0.0755
  426loPI   C1A 6807  13.994   5.065   9.080 -0.1163 -0.0614 -0.0902
  426loPI   C2A 6808  14.175   5.096   8.632 -0.1793 -0.0796 -0.3117
  426loPI   C3A 6809  14.230   4.893   8.194 -0.0837 -0.1942 -0.0292
  426loPI   C4A 6810  14.141   5.151   7.918  0.1551  0.1416 -0.1088
  426loPI   C5A 6811  14.089   5.337   7.522 -0.0543 -0.1427  0.2442
  426loPI   C6A 6812  14.242   5.232   7.107  0.3662  0.1695 -0.1172
  426loPI   C1B 6813  14.189   4.650   8.987 -0.0276  0.3282 -0.3982
  426loPI   C2B 6814  14.236   4.611   8.573  0.0531  0.0868  0.2952
  426loPI   C3B 6815  14.302   4.436   8.189  0.1408  0.2741  0.0673
  426loPI   C4B 6816  14.551   4.256   7.830  0.0061 -0.1091 -0.2078
  427loPI    C1 6817   4.667   0.530  10.299  0.0573  0.1339  0.0059
  427loPI    C2 6818   4.566   0.895  10.428 -0.1499  0.0470  0.0935
  427loPI    C3 6819   4.880   0.706  10.589 -0.0499  0.1805  0.0567
  427loPI   PO4 6820   4.603   0.566  10.015 -0.1938  0.1624 -0.1853
  427loPI   GL1 6821   4.686   0.748   9.563  0.0585 -0.3050 -0.2886
  427loPI   GL2 6822   5.001   0.620   9.580  0.3039  0.2123 -0.0111
  427loPI   C1A 6823   4.805   0.841   9.174 -0.0474  0.1125 -0.1471
  427loPI   C2A 6824   4.872   0.850   8.812  0.3615 -0.3513  0.0364
  427loPI   C3A 6825   4.821   1.043   8.403  0.2658 -0.3498 -0.0126
  427loPI   C4A 6826   4.670   1.357   8.056 -0.1153  0.1570 -0.0450
  427loPI   C5A 6827   4.409   1.738   8.301 -0.3176  0.1190  0.4564
  427loPI   C6A 6828   4.219   1.774   8.693 -0.1187 -0.1168 -0.0381
  427loPI   C1B 6829   5.211   0.567   9.229 -0.0906  0.1685 -0.2678
  427loPI   C2B 6830   5.214   0.538   8.735  0.1560  0.3557  0.1240
  427loPI   C3B 6831   5.242   0.771   8.337 -0.3245 -0.1962  0.4484
  427loPI   C4B 6832   5.231   0.890   7.897  0.3399 -0.0221 -0.0454
  428loPI    C1 6833   8.983   6.589   9.831 -0.1347 -0.0089  0.1733
  428loPI    C2 6834   9.358   6.463   9.892 -0.1296 -0.0606  0.0383
  428loPI    C3 6835   9.069   6.364  10.151 -0.1076 -0.2717 -0.0162
  428loPI   PO4 6836   8.989   6.529   9.446 -0.0609 -0.1566 -0.1820
  428loPI   GL1 6837   9.006   6.039   9.261  0.2276 -0.4804  0.0470
  428loPI   GL2 6838   8.600   5.994   9.184 -0.1977 -0.0461  0.1621
  428loPI   C1A 6839   9.196   5.970   8.790 -0.0430 -0.2597  0.1392
  428loPI   C2A 6840   9.215   5.822   8.314 -0.3416 -0.1135 -0.0775
  428loPI   C3A 6841   9.027   5.810   7.861  0.2106  0.3449 -0.3455
  428loPI   C4A 6842   8.678   5.824   7.541  0.1504  0.0345  0.1121
  428loPI   C5A 6843   8.636   6.049   7.226 -0.0684 -0.1510 -0.2342
  428loPI   C6A 6844   8.662   6.053   6.724 -0.0469  0.1015 -0.2194
  428loPI   C1B 6845   8.696   5.653   8.890 -0.0632 -0.3372 -0.2079
  428loPI   C2B 6846   8.656   5.251   8.744  0.3057  0.0719 -0.2025
  428loPI   C3B 6847   8.442   5.062   8.373  0.2371 -0.1599 -0.0383
  428loPI   C4B 6848   8.208   5.183   7.975  0.4551 -0.0305  0.4503
  429loPI    C1 6849   4.255  11.193   9.946  0.2562 -0.1533 -0.0296
  429loPI    C2 6850   4.534  11.032  10.183  0.2702 -0.1199 -0.0232
  429loPI    C3 6851   4.156  11.061  10.311  0.2911 -0.0403  0.0211
  429loPI   PO4 6852   4.356  11.147   9.725 -0.0273 -0.0754  0.0833
  429loPI   GL1 6853   4.445  11.085   9.240  0.0326 -0.2233 -0.2038
  429loPI   GL2 6854   4.360  11.483   9.179  0.0175  0.1108  0.0675
  429loPI   C1A 6855   4.547  11.066   8.786  0.0703 -0.0636 -0.0718
  429loPI   C2A 6856   4.290  10.976   8.453  0.0866  0.2066 -0.0644
  429loPI   C3A 6857   4.306  10.904   8.025  0.1107  0.1016  0.0139
  429loPI   C4A 6858   4.162  10.974   7.663  0.2470  0.1649  0.1252
  429loPI   C5A 6859   4.019  10.883   7.322  0.2423  0.3565  0.0901
  429loPI   C6A 6860   3.880  10.737   7.018 -0.3192 -0.3071 -0.0575
  429loPI   C1B 6861   4.381  11.536   8.778 -0.0197 -0.0098 -0.0762
  429loPI   C2B 6862   4.367  11.703   8.453 -0.3235  0.0278 -0.0662
  429loPI   C3B 6863   4.283  11.850   8.019  0.0358 -0.1427  0.0336
  429loPI   C4B 6864   4.406  12.065   7.608  0.0512  0.0798 -0.1483
  430loPI    C1 6865   9.445   2.961  10.415 -0.0498 -0.2169 -0.2269
  430loPI    C2 6866   9.666   2.812  10.713 -0.1567  0.2623  0.1035
  430loPI    C3 6867   9.267   2.810  10.739 -0.1724  0.1501 -0.1187
  430loPI   PO4 6868   9.534   2.783  10.243 -0.1158  0.1213 -0.2134
  430loPI   GL1 6869   9.491   2.871   9.811 -0.0640 -0.0196 -0.0713
  430loPI   GL2 6870   9.511   2.637   9.665 -0.0047 -0.0711 -0.0068
  430loPI   C1A 6871   9.345   3.228   9.595 -0.0975  0.0164  0.2247
  430loPI   C2A 6872   9.389   3.535   9.282 -0.1637  0.0877 -0.0085
  430loPI   C3A 6873   9.180   3.593   8.818 -0.2850  0.2586  0.0663
  430loPI   C4A 6874   9.286   3.539   8.433 -0.0846 -0.0254 -0.1561
  430loPI   C5A 6875   9.155   3.779   8.044 -0.0560  0.2334  0.1774
  430loPI   C6A 6876   9.203   4.042   7.664 -0.1609  0.0290  0.2524
  430loPI   C1B 6877   9.828   2.563   9.348  0.1935  0.1805  0.2597
  430loPI   C2B 6878  10.020   2.703   8.866  0.4265  0.0059 -0.1659
  430loPI   C3B 6879   9.967   2.845   8.359  0.2138  0.0692 -0.0750
  430loPI   C4B 6880   9.990   2.963   7.870 -0.2209 -0.1588 -0.0722
  431loPI    C1 6881   5.003   3.768  10.063 -0.0419 -0.4861  0.0761
  431loPI    C2 6882   5.388   3.869  10.104 -0.1018 -0.1242 -0.1996
  431loPI    C3 6883   5.151   3.852  10.425  0.1133 -0.2298 -0.0439
  431loPI   PO4 6884   4.943   3.837   9.808 -0.0179 -0.0189  0.1861
  431loPI   GL1 6885   4.971   3.667   9.400  0.0025 -0.1573  0.2047
  431loPI   GL2 6886   5.260   3.793   9.238 -0.5003 -0.0779  0.1252
  431loPI   C1A 6887   4.828   3.649   9.050  0.1571  0.0118 -0.1180
  431loPI   C2A 6888   4.993   3.648   8.642  0.0699  0.4615 -0.0838
  431loPI   C3A 6889   4.708   3.692   8.379 -0.3186 -0.1318  0.1458
  431loPI   C4A 6890   4.674   3.544   7.888 -0.2863  0.1282  0.2829
  431loPI   C5A 6891   4.425   3.227   7.602  0.1919  0.2926 -0.2380
  431loPI   C6A 6892   4.400   2.726   7.462 -0.1386  0.1289 -0.1013
  431loPI   C1B 6893   5.405   3.811   8.848  0.1488 -0.0612  0.0688
  431loPI   C2B 6894   5.256   4.034   8.406 -0.2921  0.1208  0.0369
  431loPI   C3B 6895   5.013   4.135   8.152 -0.3224  0.2426 -0.0961
  431loPI   C4B 6896   4.591   4.050   7.998  0.0143 -0.2009  0.3876
  432loPI    C1 6897   3.542   3.815   9.808  0.2188  0.2518 -0.0997
  432loPI    C2 6898   3.702   4.114  10.019 -0.1249  0.2767  0.1337
  432loPI    C3 6899   3.350   3.959  10.128  0.0565 -0.2277  0.0282
  432loPI   PO4 6900   3.502   3.881   9.518  0.2018 -0.1537  0.0121
  432loPI   GL1 6901   3.390   3.895   9.189 -0.2188  0.0715 -0.0391
  432loPI   GL2 6902   3.321   4.210   9.168 -0.4094 -0.2896  0.1157
  432loPI   C1A 6903   3.231   3.968   8.717 -0.1485 -0.1580 -0.0451
  432loPI   C2A 6904   3.372   3.920   8.291 -0.0960 -0.3100  0.1327
  432loPI   C3A 6905   3.210   4.032   7.929  0.3664  0.0532  0.0469
  432loPI   C4A 6906   3.002   4.291   7.645 -0.2414  0.0150  0.4230
  432loPI   C5A 6907   2.734   4.188   7.266  0.2207 -0.2134 -0.2614
  432loPI   C6A 6908   2.636   4.267   6.855 -0.1187 -0.0036  0.0746
  432loPI   C1B 6909   3.585   4.264   8.778 -0.1555 -0.0501  0.1290
  432loPI   C2B 6910   3.686   4.275   8.375  0.2607  0.0238  0.3631
  432loPI   C3B 6911   3.614   4.354   7.956  0.0308 -0.0493  0.0040
  432loPI   C4B 6912   3.837   4.235   7.534  0.0971 -0.0232  0.1980
  433loPI    C1 6913  16.205   2.511   9.960  0.0316  0.0547  0.1690
  433loPI    C2 6914  16.226   2.137   9.819  0.0352  0.1175  0.0015
  433loPI    C3 6915  16.310   2.211  10.203  0.2500 -0.0223 -0.0169
  433loPI   PO4 6916  16.327   2.676   9.867  0.0977  0.1525 -0.1184
  433loPI   GL1 6917  16.668   2.627   9.621 -0.1098  0.2232 -0.4050
  433loPI   GL2 6918  16.463   2.449   9.429  0.0594 -0.0474  0.2411
  433loPI   C1A 6919  16.606   2.956   9.316 -0.3761 -0.0419 -0.1852
  433loPI   C2A 6920  16.453   3.110   8.943  0.1281  0.1353  0.1635
  433loPI   C3A 6921  16.515   3.203   8.552  0.1041 -0.0295  0.1185
  433loPI   C4A 6922  16.137   3.281   8.269 -0.1341  0.4034  0.1515
  433loPI   C5A 6923  15.944   3.471   8.033  0.0245  0.3006  0.1008
  433loPI   C6A 6924  15.755   3.658   7.797  0.0554 -0.1125 -0.0843
  433loPI   C1B 6925  16.617   2.453   9.029 -0.2504 -0.0036  0.1203
  433loPI   C2B 6926  16.796   2.471   8.616 -0.2762 -0.1615  0.1016
  433loPI   C3B 6927  16.972   2.595   8.276 -0.0263  0.1911  0.4242
  433loPI   C4B 6928  17.303   2.820   7.985  0.3687 -0.0349  0.0347
  434loPI    C1 6929   5.863   0.688   9.995 -0.0616  0.1093 -0.0388
  434loPI    C2 6930   6.106   0.840  10.275 -0.0121  0.1060 -0.0799
  434loPI    C3 6931   5.775   0.642  10.383 -0.0057  0.1256 -0.0241
  434loPI   PO4 6932   5.953   0.541   9.816  0.0430 -0.1050  0.0113
  434loPI   GL1 6933   6.102   0.696   9.467 -0.1467 -0.1509  0.2550
  434loPI   GL2 6934   6.001   0.973   9.591 -0.0363 -0.0710  0.0731
  434loPI   C1A 6935   6.056   0.678   8.964 -0.0326 -0.2035  0.2290
  434loPI   C2A 6936   6.099   0.649   8.541  0.0460  0.2118  0.0211
  434loPI   C3A 6937   6.240   0.725   8.219 -0.3949  0.1278  0.3124
  434loPI   C4A 6938   6.199   0.909   7.861 -0.0797 -0.3337  0.1775
  434loPI   C5A 6939   6.036   0.794   7.532  0.2647  0.2478  0.1319
  434loPI   C6A 6940   5.797   0.891   7.159 -0.1903  0.2748 -0.0955
  434loPI   C1B 6941   6.014   1.122   9.180 -0.2103 -0.0741 -0.0769
  434loPI   C2B 6942   6.168   1.149   8.689  0.0230 -0.1936 -0.1298
  434loPI   C3B 6943   6.314   1.243   8.254 -0.2442 -0.3554 -0.3277
  434loPI   C4B 6944   6.592   1.275   7.978  0.1758  0.1786 -0.0338
  435loPI    C1 6945   0.075  18.617   9.926  0.1417  0.4239  0.1245
  435loPI    C2 6946   0.469  18.547   9.932  0.0794  0.0514  0.1240
  435loPI    C3 6947   0.229  18.363  10.194 -0.1577 -0.1444 -0.2224
  435loPI   PO4 6948  -0.017  18.803   9.780  0.0266 -0.0333 -0.0018
  435loPI   GL1 6949  -0.276  18.829   9.450  0.0023 -0.0373 -0.1326
  435loPI   GL2 6950  -0.572  19.094   9.584 -0.0052  0.1148  0.0180
  435loPI   C1A 6951  -0.550  18.699   9.050 -0.0067  0.1147 -0.0002
  435loPI   C2A 6952  -0.488  18.829   8.704  0.0922 -0.1939 -0.1535
  435loPI   C3A 6953  -0.584  19.015   8.341  0.1811 -0.0883  0.0571
  435loPI   C4A 6954  -0.521  19.089   7.956 -0.0548 -0.3322  0.0633
  435loPI   C5A 6955  -0.304  19.076   7.572  0.1897 -0.0907  0.0849
  435loPI   C6A 6956  -0.381  19.021   7.272  0.1351 -0.2817  0.0423
  435loPI   C1B 6957  -0.402  19.204   9.254  0.3152 -0.3810  0.2165
  435loPI   C2B 6958  -0.287  19.295   8.847  0.0656  0.0450 -0.0504
  435loPI   C3B 6959  -0.215  19.509   8.503  0.1338  0.2216  0.0111
  435loPI   C4B 6960  -0.159  19.536   8.077  0.0411 -0.1688 -0.0190
  436loPI    C1 6961  13.530   3.212   9.893 -0.0335 -0.1002  0.1349
  436loPI    C2 6962  13.322   3.544   9.971 -0.0442 -0.1411  0.2828
  436loPI    C3 6963  13.711   3.527  10.061  0.0257 -0.0634  0.0038
  436loPI   PO4 6964  13.440   2.963   9.879 -0.1020  0.1340  0.0027
  436loPI   GL1 6965  13.413   2.795   9.485  0.2093 -0.1355  0.0640
  436loPI   GL2 6966  13.740   2.731   9.353  0.0386  0.0009  0.0719
  436loPI   C1A 6967  13.263   2.861   9.027 -0.1110  0.0225  0.0824
  436loPI   C2A 6968  13.273   2.872   8.512 -0.0192 -0.0400  0.1623
  436loPI   C3A 6969  13.184   2.799   8.049 -0.1084 -0.2138  0.0374
  436loPI   C4A 6970  13.182   2.821   7.619 -0.1220 -0.2104 -0.3022
  436loPI   C5A 6971  13.481   2.636   7.349 -0.0498 -0.0643  0.3267
  436loPI   C6A 6972  13.742   2.696   7.038  0.2630 -0.0697  0.0223
  436loPI   C1B 6973  13.584   2.539   9.005  0.1245 -0.0252  0.0011
  436loPI   C2B 6974  13.576   2.467   8.518  0.0987  0.1762 -0.0739
  436loPI   C3B 6975  13.514   2.370   8.097  0.0755 -0.3982 -0.4432
  436loPI   C4B 6976  13.396   2.301   7.748  0.4274 -0.0327  0.0527
  437loPI    C1 6977   9.291   7.375  10.372  0.0049  0.1229 -0.2010
  437loPI    C2 6978   9.024   7.491  10.647  0.1018  0.3145 -0.1855
  437loPI    C3 6979   9.412   7.469  10.742  0.0973  0.0688 -0.2172
  437loPI   PO4 6980   9.232   7.410  10.025  0.0522  0.2665  0.1836
  437loPI   GL1 6981   9.401   7.248   9.707 -0.3535  0.1387  0.1471
  437loPI   GL2 6982   9.403   6.857   9.597 -0.3812 -0.0288 -0.3964
  437loPI   C1A 6983   9.441   7.476   9.290  0.0222  0.1427 -0.2615
  437loPI   C2A 6984   9.359   7.556   8.856  0.1193  0.1184 -0.1464
  437loPI   C3A 6985   9.198   7.476   8.489 -0.0495  0.1631  0.1613
  437loPI   C4A 6986   9.121   7.268   8.099 -0.0479 -0.1487 -0.1267
  437loPI   C5A 6987   9.117   7.403   7.694 -0.1527 -0.2791  0.1233
  437loPI   C6A 6988   9.411   7.614   7.497 -0.1356  0.0153 -0.0050
  437loPI   C1B 6989   9.571   6.996   9.188 -0.5109  0.0923  0.1858
  437loPI   C2B 6990   9.618   7.140   8.763  0.0841 -0.1895  0.4413
  437loPI   C3B 6991   9.685   7.300   8.394  0.0542 -0.1832 -0.2118
  437loPI   C4B 6992   9.830   7.169   7.997  0.1203 -0.4403 -0.0087
  438loPI    C1 6993  11.608  11.800  10.090  0.1396  0.2884 -0.2384
  438loPI    C2 6994  11.950  11.778  10.297  0.0132 -0.1993 -0.0688
  438loPI    C3 6995  11.699  12.082  10.359  0.1757 -0.1136  0.1847
  438loPI   PO4 6996  11.674  11.753   9.871  0.2865  0.3126  0.2992
  438loPI   GL1 6997  11.559  12.009   9.611 -0.6131 -0.0702  0.0071
  438loPI   GL2 6998  11.811  12.162   9.460  0.2844 -0.2831  0.4448
  438loPI   C1A 6999  11.214  12.091   9.257 -0.3240  0.0669  0.0537
  438loPI   C2A 7000  11.132  12.256   8.884  0.5833 -0.0106 -0.0678
  438loPI   C3A 7001  11.075  12.086   8.403  0.0711 -0.0221  0.0841
  438loPI   C4A 7002  10.945  11.889   7.958  0.1563  0.1254  0.1329
  438loPI   C5A 7003  10.752  11.867   7.617  0.1417  0.0985  0.0006
  438loPI   C6A 7004  10.453  12.058   7.302  0.1116 -0.3122  0.1268
  438loPI   C1B 7005  11.601  12.409   9.086 -0.1697 -0.0324  0.0562
  438loPI   C2B 7006  11.515  12.586   8.741 -0.2013  0.1850 -0.1094
  438loPI   C3B 7007  11.316  12.522   8.362  0.0051 -0.1060 -0.0130
  438loPI   C4B 7008  11.361  12.633   8.028 -0.2846  0.3536  0.1397
  439loPI    C1 7009   7.777  13.123  10.100  0.1175  0.0908  0.0792
  439loPI    C2 7010   7.837  12.770  10.278 -0.0304  0.1987  0.3501
  439loPI    C3 7011   7.703  13.081  10.491 -0.2012  0.3353  0.0500
  439loPI   PO4 7012   7.738  13.049   9.812 -0.0776 -0.0248  0.0877
  439loPI   GL1 7013   7.948  13.240   9.482  0.1083 -0.2747  0.1628
  439loPI   GL2 7014   7.620  13.225   9.320 -0.3450  0.0281 -0.0557
  439loPI   C1A 7015   8.346  13.129   9.314 -0.1257  0.1653  0.1510
  439loPI   C2A 7016   8.507  13.231   8.971  0.0644  0.1113  0.4905
  439loPI   C3A 7017   8.736  13.091   8.672 -0.0253 -0.2357 -0.3738
  439loPI   C4A 7018   8.929  13.005   8.362 -0.1697  0.4417 -0.1491
  439loPI   C5A 7019   8.752  12.988   7.867 -0.0264  0.2904  0.0070
  439loPI   C6A 7020   8.913  13.045   7.407 -0.1858 -0.1861 -0.0558
  439loPI   C1B 7021   7.621  13.286   8.940  0.2581 -0.0872 -0.3920
  439loPI   C2B 7022   7.748  13.602   8.602 -0.0745 -0.1579 -0.2081
  439loPI   C3B 7023   7.996  13.532   8.204 -0.1975  0.1911 -0.1181
  439loPI   C4B 7024   8.207  13.475   7.832  0.0125 -0.4795  0.4958
  440loPI    C1 7025  10.097  15.935  10.054  0.2054 -0.1776 -0.1067
  440loPI    C2 7026   9.898  15.892  10.398 -0.0200  0.3973 -0.1552
  440loPI    C3 7027  10.286  15.990  10.402  0.1409 -0.2057 -0.0671
  440loPI   PO4 7028   9.952  15.762   9.866  0.1084 -0.1675  0.3076
  440loPI   GL1 7029   9.676  15.567   9.518  0.3848 -0.3147 -0.2207
  440loPI   GL2 7030  10.003  15.669   9.353 -0.1705 -0.1226  0.1083
  440loPI   C1A 7031   9.523  15.696   9.185 -0.1317 -0.1194  0.1298
  440loPI   C2A 7032   9.476  16.063   8.855  0.3848 -0.0214  0.0365
  440loPI   C3A 7033   9.670  16.248   8.458  0.0043 -0.1456 -0.0954
  440loPI   C4A 7034   9.678  16.135   7.973  0.2912  0.4629  0.1478
  440loPI   C5A 7035   9.631  16.020   7.542 -0.1368 -0.0056  0.0681
  440loPI   C6A 7036   9.877  16.194   7.281 -0.3959 -0.1248  0.4385
  440loPI   C1B 7037  10.047  15.815   9.001 -0.2647 -0.1579  0.0746
  440loPI   C2B 7038   9.914  15.858   8.690  0.4321  0.1193 -0.0650
  440loPI   C3B 7039   9.900  15.759   8.278  0.0300  0.3260  0.3321
  440loPI   C4B 7040   9.974  15.761   7.901 -0.2049  0.0430  0.2384
  441loPI    C1 7041  15.481   3.319  10.181 -0.0252 -0.0484  0.0240
  441loPI    C2 7042  15.788   3.514  10.016  0.0262 -0.0508  0.1156
  441loPI    C3 7043  15.612   3.660  10.344 -0.0644 -0.0548  0.0692
  441loPI   PO4 7044  15.314   3.209  10.049 -0.2229  0.3005 -0.0448
  441loPI   GL1 7045  15.487   2.977   9.728  0.1306 -0.0325 -0.0170
  441loPI   GL2 7046  15.169   3.079   9.485 -0.0126 -0.0707 -0.2161
  441loPI   C1A 7047  15.638   3.136   9.395  0.0293  0.5767 -0.0867
  441loPI   C2A 7048  15.482   3.102   9.003  0.0924  0.0155  0.1304
  441loPI   C3A 7049  15.488   3.191   8.577  0.3332  0.1637 -0.0278
  441loPI   C4A 7050  15.535   3.249   8.228  0.1424  0.0168  0.1735
  441loPI   C5A 7051  15.528   3.217   7.775  0.3389  0.1782  0.0637
  441loPI   C6A 7052  15.260   2.980   7.486 -0.0669  0.0020  0.1563
  441loPI   C1B 7053  14.977   3.182   9.130 -0.2148  0.0518  0.0496
  441loPI   C2B 7054  14.898   3.175   8.722 -0.3802 -0.1420 -0.0709
  441loPI   C3B 7055  14.987   3.251   8.380  0.1427  0.1444 -0.0442
  441loPI   C4B 7056  15.005   3.282   7.839  0.2684  0.0434  0.3522
  442loPI    C1 7057   9.240   9.132   9.827  0.1514  0.1292 -0.1770
  442loPI    C2 7058   9.263   8.977  10.195 -0.0571  0.1362 -0.1598
  442loPI    C3 7059   9.582   8.966   9.953  0.0446  0.0240 -0.0226
  442loPI   PO4 7060   9.097   9.003   9.722 -0.3178 -0.1185  0.0708
  442loPI   GL1 7061   9.366   8.759   9.415 -0.1483  0.3909 -0.2862
  442loPI   GL2 7062   9.721   8.633   9.473  0.0856 -0.3678  0.0507
  442loPI   C1A 7063   9.116   8.860   9.046 -0.7006  0.1367  0.0016
  442loPI   C2A 7064   9.194   8.937   8.596  0.1766  0.0617  0.1267
  442loPI   C3A 7065   9.559   9.156   8.421 -0.0251  0.1542  0.0299
  442loPI   C4A 7066   9.726   9.192   7.995  0.0380 -0.3264 -0.0649
  442loPI   C5A 7067   9.800   9.405   7.604  0.2076  0.0705 -0.1024
  442loPI   C6A 7068   9.818   9.776   7.406 -0.2605  0.1275  0.4449
  442loPI   C1B 7069   9.740   8.658   9.121  0.0439 -0.2318 -0.0703
  442loPI   C2B 7070   9.697   8.709   8.674  0.4379 -0.1457  0.0857
  442loPI   C3B 7071   9.822   8.616   8.256 -0.0781  0.1961 -0.2071
  442loPI   C4B 7072   9.767   8.655   7.838  0.1040 -0.0799 -0.0778
  443loPI    C1 7073  16.534   1.061  10.265  0.0404  0.0348 -0.0250
  443loPI    C2 7074  16.764   0.763  10.401  0.1864  0.0481 -0.2387
  443loPI    C3 7075  16.901   1.009  10.117 -0.0580  0.1137 -0.3026
  443loPI   PO4 7076  16.387   1.012  10.085 -0.1510  0.2512  0.1348
  443loPI   GL1 7077  16.498   0.856   9.721  0.1282 -0.0983 -0.0624
  443loPI   GL2 7078  16.220   0.718   9.662  0.0053  0.5673  0.3564
  443loPI   C1A 7079  16.445   1.057   9.381  0.0144 -0.1544  0.2120
  443loPI   C2A 7080  16.306   1.081   8.951 -0.2438  0.1787  0.2510
  443loPI   C3A 7081  16.312   1.180   8.522  0.2708  0.0356  0.0384
  443loPI   C4A 7082  16.361   1.201   8.051 -0.0441  0.1026  0.0255
  443loPI   C5A 7083  16.030   1.110   7.783  0.0674 -0.0613 -0.1670
  443loPI   C6A 7084  15.814   1.235   7.486  0.1384  0.4017 -0.2926
  443loPI   C1B 7085  16.113   0.580   9.248  0.0520 -0.0898  0.3051
  443loPI   C2B 7086  16.046   0.697   8.940  0.0593  0.0439  0.2474
  443loPI   C3B 7087  16.029   0.735   8.530  0.1812 -0.1116  0.1470
  443loPI   C4B 7088  16.121   0.742   8.111  0.2397  0.0877  0.0469
  444loPI    C1 7089  12.686  14.653   9.939  0.0024  0.1701  0.0772
  444loPI    C2 7090  12.820  14.752  10.303  0.1688  0.1653  0.0183
  444loPI    C3 7091  12.580  14.435  10.258  0.0151  0.2619  0.1445
  444loPI   PO4 7092  12.594  14.855   9.803  0.0182 -0.1974  0.0064
  444loPI   GL1 7093  12.571  14.991   9.420 -0.3246 -0.1902 -0.0789
  444loPI   GL2 7094  12.935  14.802   9.446  0.2214 -0.0162  0.0104
  444loPI   C1A 7095  12.445  15.127   8.944 -0.2289 -0.2938 -0.1778
  444loPI   C2A 7096  12.646  15.409   8.716  0.1055  0.1302  0.2658
  444loPI   C3A 7097  12.679  15.315   8.303  0.0288  0.0003  0.0055
  444loPI   C4A 7098  12.872  15.272   7.819  0.1360 -0.0008  0.4436
  444loPI   C5A 7099  12.985  14.802   7.620  0.0903  0.1774  0.0275
  444loPI   C6A 7100  13.277  14.883   7.308 -0.0200 -0.0077 -0.2340
  444loPI   C1B 7101  12.884  14.851   9.029 -0.0508 -0.3112  0.0365
  444loPI   C2B 7102  12.786  14.857   8.572 -0.2596 -0.0100 -0.1939
  444loPI   C3B 7103  12.383  14.912   8.341 -0.0511 -0.4787  0.5946
  444loPI   C4B 7104  12.072  14.986   7.990  0.3099  0.1679  0.0101
  445loPI    C1 7105   4.492   8.840   9.811  0.0674 -0.1867  0.0097
  445loPI    C2 7106   4.672   8.932  10.157  0.0321  0.0324 -0.0290
  445loPI    C3 7107   4.571   8.553  10.079 -0.0699 -0.0005  0.2535
  445loPI   PO4 7108   4.315   9.119   9.715 -0.1264  0.1128  0.3369
  445loPI   GL1 7109   4.397   9.302   9.332 -0.1732  0.2226 -0.1685
  445loPI   GL2 7110   4.476   9.577   9.307  0.1269 -0.0872 -0.0248
  445loPI   C1A 7111   4.285   9.368   8.890  0.1075 -0.0370  0.0347
  445loPI   C2A 7112   4.349   9.637   8.571 -0.3095 -0.2318 -0.0710
  445loPI   C3A 7113   4.454   9.572   8.169 -0.1016 -0.1657 -0.1598
  445loPI   C4A 7114   4.627   9.707   7.852 -0.1383  0.0188  0.0818
  445loPI   C5A 7115   4.931   9.817   7.558 -0.2725  0.0225 -0.0392
  445loPI   C6A 7116   5.033   9.780   7.194  0.1450  0.1427  0.1649
  445loPI   C1B 7117   4.702   9.563   8.923  0.0228 -0.0568 -0.1013
  445loPI   C2B 7118   4.620   9.181   8.523  0.3331 -0.1101 -0.2702
  445loPI   C3B 7119   4.830   9.010   8.129 -0.1299  0.1270 -0.2441
  445loPI   C4B 7120   5.039   8.926   7.717 -0.0682  0.2183  0.0772
  446loPI    C1 7121  16.184   6.196  10.146 -0.0940  0.3525 -0.0879
  446loPI    C2 7122  16.134   6.095   9.762  0.1108 -0.1252  0.0040
  446loPI    C3 7123  15.959   5.880  10.050  0.2592  0.0044  0.1938
  446loPI   PO4 7124  16.538   6.222  10.161  0.2111  0.0667 -0.1430
  446loPI   GL1 7125  16.813   6.572   9.868 -0.2289  0.0517 -0.0122
  446loPI   GL2 7126  16.658   6.251   9.721  0.0213 -0.1538  0.0770
  446loPI   C1A 7127  16.743   6.639   9.467 -0.2173 -0.0597 -0.0891
  446loPI   C2A 7128  16.771   6.691   8.995 -0.1083  0.2575 -0.0848
  446loPI   C3A 7129  16.681   6.725   8.503  0.0308 -0.0481  0.0003
  446loPI   C4A 7130  16.731   6.894   8.061 -0.0544  0.0780  0.1129
  446loPI   C5A 7131  17.105   6.929   7.891  0.0306  0.2704 -0.0397
  446loPI   C6A 7132  17.322   6.746   7.551 -0.1957 -0.1842  0.3774
  446loPI   C1B 7133  16.551   6.112   9.413 -0.1065 -0.1486  0.1042
  446loPI   C2B 7134  16.374   6.044   9.056 -0.0924 -0.1150 -0.1921
  446loPI   C3B 7135  16.465   5.728   8.714 -0.3218  0.5269 -0.1763
  446loPI   C4B 7136  16.536   5.573   8.294 -0.1901 -0.2722  0.0932
  447loPI    C1 7137  16.265  17.944  10.210  0.3053  0.0119 -0.0901
  447loPI    C2 7138  16.419  18.169  10.503  0.0330  0.1996 -0.0863
  447loPI    C3 7139  16.120  17.916  10.582  0.1039  0.0916 -0.1611
  447loPI   PO4 7140  16.144  18.100  10.081 -0.3306 -0.3536  0.1766
  447loPI   GL1 7141  16.104  18.266   9.735  0.0674  0.1991 -0.1932
  447loPI   GL2 7142  15.918  17.879   9.699 -0.1043  0.1309  0.0058
  447loPI   C1A 7143  16.117  18.429   9.307 -0.0255  0.1385  0.0485
  447loPI   C2A 7144  16.126  18.497   8.893  0.3767  0.2246 -0.2897
  447loPI   C3A 7145  16.287  18.403   8.463 -0.0521  0.0116 -0.3246
  447loPI   C4A 7146  16.596  18.290   8.203 -0.1965 -0.0570  0.1221
  447loPI   C5A 7147  16.834  18.284   7.814 -0.0778 -0.0611  0.1439
  447loPI   C6A 7148  17.252  18.605   7.726 -0.0170 -0.0027  0.1109
  447loPI   C1B 7149  16.120  17.954   9.346  0.1329  0.0416 -0.0381
  447loPI   C2B 7150  16.210  18.024   8.934  0.0057  0.0089  0.1056
  447loPI   C3B 7151  16.466  17.957   8.542 -0.0499  0.0875 -0.0884
  447loPI   C4B 7152  16.603  17.569   8.462 -0.3157  0.2266 -0.1646
  448loPI    C1 7153   7.613  15.698  10.359  0.0104 -0.0320 -0.1413
  448loPI    C2 7154   7.736  15.734  10.738 -0.2546  0.0313 -0.0595
  448loPI    C3 7155   7.440  15.966  10.601 -0.2885 -0.1223 -0.2506
  448loPI   PO4 7156   7.862  15.484  10.195  0.1204  0.1242 -0.5208
  448loPI   GL1 7157   7.867  15.565   9.736  0.1355  0.2499  0.0720
  448loPI   GL2 7158   8.017  15.266   9.816  0.0545  0.1474 -0.0253
  448loPI   C1A 7159   7.717  15.556   9.270 -0.1859  0.0426 -0.2290
  448loPI   C2A 7160   7.704  15.477   8.787  0.1290 -0.2277 -0.6056
  448loPI   C3A 7161   7.778  15.476   8.334 -0.1102 -0.0506  0.0841
  448loPI   C4A 7162   8.066  15.451   8.037 -0.1462  0.0882  0.2121
  448loPI   C5A 7163   8.066  15.670   7.594  0.0490  0.3729 -0.1265
  448loPI   C6A 7164   8.148  16.025   7.294 -0.0946  0.2852 -0.2245
  448loPI   C1B 7165   8.239  15.593   9.436 -0.0637  0.5750 -0.1600
  448loPI   C2B 7166   8.490  15.506   9.077  0.0697 -0.0297  0.2732
  448loPI   C3B 7167   8.660  15.571   8.599 -0.0947  0.0575  0.0888
  448loPI   C4B 7168   8.896  15.647   8.191  0.1388 -0.0330  0.0673
  449loPI    C1 7169   3.238  11.652   9.790 -0.1468  0.2453 -0.0365
  449loPI    C2 7170   3.050  11.532  10.122  0.0775 -0.2388 -0.0752
  449loPI    C3 7171   3.427  11.664  10.142  0.1038 -0.3037 -0.1416
  449loPI   PO4 7172   2.971  11.716   9.629  0.1231  0.0239  0.0048
  449loPI   GL1 7173   3.000  11.545   9.299  0.1650 -0.3153  0.3764
  449loPI   GL2 7174   2.867  11.232   9.239  0.0624 -0.0211 -0.0420
  449loPI   C1A 7175   2.965  11.782   8.816  0.1090 -0.2068  0.0066
  449loPI   C2A 7176   2.712  11.814   8.435 -0.0079 -0.1135 -0.1912
  449loPI   C3A 7177   2.779  12.049   8.157  0.0179 -0.1021 -0.2176
  449loPI   C4A 7178   3.025  12.004   7.805 -0.2915  0.2283 -0.0694
  449loPI   C5A 7179   3.164  11.712   7.488  0.1303 -0.2392  0.2677
  449loPI   C6A 7180   3.284  11.373   7.140  0.2302 -0.1759 -0.2884
  449loPI   C1B 7181   3.008  11.214   8.874 -0.1567 -0.0730  0.0318
  449loPI   C2B 7182   2.854  11.274   8.514  0.1476  0.0759  0.1404
  449loPI   C3B 7183   2.914  11.416   8.089  0.0177 -0.1477 -0.3382
  449loPI   C4B 7184   3.289  11.501   7.969  0.0528 -0.1334  0.1093
  450loPI    C1 7185   0.596  12.124  10.223  0.3229 -0.1836  0.0856
  450loPI    C2 7186   0.334  12.380  10.386  0.2062 -0.2558  0.0132
  450loPI    C3 7187   0.592  12.182  10.619 -0.0093 -0.4143  0.1203
  450loPI   PO4 7188   0.535  12.208   9.954 -0.0493 -0.0664  0.1673
  450loPI   GL1 7189   0.312  12.189   9.576  0.0382  0.2559 -0.0614
  450loPI   GL2 7190   0.563  12.479   9.508  0.1609  0.3369  0.0470
  450loPI   C1A 7191   0.162  12.104   9.147 -0.1323 -0.0812 -0.0724
  450loPI   C2A 7192   0.042  11.825   8.934 -0.1170  0.1849  0.0227
  450loPI   C3A 7193  -0.057  11.621   8.592 -0.1776 -0.1603  0.2255
  450loPI   C4A 7194  -0.287  11.529   8.216  0.0868 -0.0255  0.2443
  450loPI   C5A 7195  -0.680  11.685   8.013  0.2133 -0.2848 -0.1401
  450loPI   C6A 7196  -0.692  11.841   7.590 -0.0902  0.2685  0.0309
  450loPI   C1B 7197   0.754  12.267   9.156  0.0085 -0.0941 -0.1423
  450loPI   C2B 7198   0.855  12.183   8.750  0.1802 -0.0311 -0.5704
  450loPI   C3B 7199   0.877  12.096   8.364  0.2867 -0.1319 -0.1278
  450loPI   C4B 7200   0.916  12.029   7.955 -0.1819 -0.0523  0.1579
  451loPI    C1 7201  17.480   4.292   9.966  0.2063  0.1884  0.1508
  451loPI    C2 7202  17.266   4.255  10.302 -0.0035 -0.0499 -0.0060
  451loPI    C3 7203  17.563   3.999  10.225  0.2047  0.1530  0.1113
  451loPI   PO4 7204  17.351   4.348   9.811  0.0586 -0.0886  0.0139
  451loPI   GL1 7205  17.237   4.104   9.452 -0.2972  0.1660  0.3550
  451loPI   GL2 7206  16.928   4.009   9.474 -0.1795 -0.0872  0.4602
  451loPI   C1A 7207  17.114   4.242   9.031  0.0239 -0.2472 -0.4399
  451loPI   C2A 7208  17.206   4.477   8.667  0.0984 -0.0098 -0.2246
  451loPI   C3A 7209  17.300   4.589   8.242 -0.1170  0.4071 -0.0065
  451loPI   C4A 7210  17.077   4.597   7.886 -0.2566 -0.1267  0.0733
  451loPI   C5A 7211  16.771   4.388   7.566 -0.0716  0.2906 -0.0489
  451loPI   C6A 7212  16.527   4.457   7.308 -0.1968 -0.0105 -0.1594
  451loPI   C1B 7213  16.843   3.840   8.984 -0.1766 -0.3501  0.0267
  451loPI   C2B 7214  17.044   4.005   8.594  0.0823  0.2224  0.0743
  451loPI   C3B 7215  17.165   4.131   8.215 -0.4094 -0.0502  0.0368
  451loPI   C4B 7216  17.274   4.109   7.856 -0.1024  0.0972  0.1076
  452loPI    C1 7217   2.841   1.980   9.655  0.1266 -0.2196 -0.1863
  452loPI    C2 7218   2.538   1.768   9.807  0.0034  0.1622  0.1180
  452loPI    C3 7219   2.850   1.866  10.038  0.1612  0.1315 -0.0788
  452loPI   PO4 7220   2.633   2.140   9.522  0.0578 -0.1288  0.1907
  452loPI   GL1 7221   2.631   2.271   9.143  0.0243  0.0896  0.0508
  452loPI   GL2 7222   2.882   2.445   9.155  0.0756  0.4192 -0.0682
  452loPI   C1A 7223   2.745   2.254   8.740  0.1623  0.4435  0.0878
  452loPI   C2A 7224   2.809   2.277   8.429 -0.2275  0.3701  0.0683
  452loPI   C3A 7225   2.697   2.156   7.999  0.0524  0.0868 -0.0637
  452loPI   C4A 7226   2.483   2.343   7.702  0.1594 -0.0799  0.4897
  452loPI   C5A 7227   2.362   2.473   7.280  0.1111  0.1117  0.0009
  452loPI   C6A 7228   2.436   2.261   6.732 -0.2139 -0.3101  0.2451
  452loPI   C1B 7229   2.565   2.733   8.953  0.1728  0.0416 -0.2026
  452loPI   C2B 7230   2.638   2.726   8.492 -0.0076 -0.4203  0.1067
  452loPI   C3B 7231   2.524   2.696   8.105 -0.0113  0.2486  0.0153
  452loPI   C4B 7232   2.605   2.809   7.678  0.1421 -0.0784  0.1243
  453loPI    C1 7233   7.914   3.500  10.559 -0.0697  0.1911 -0.0515
  453loPI    C2 7234   7.727   3.852  10.595 -0.3100  0.0646 -0.0429
  453loPI    C3 7235   7.517   3.512  10.607 -0.0505 -0.0906  0.2025
  453loPI   PO4 7236   8.048   3.571  10.409  0.1992  0.0380 -0.2905
  453loPI   GL1 7237   8.184   3.373  10.032  0.0380  0.0986  0.0804
  453loPI   GL2 7238   8.021   3.629   9.798 -0.1193  0.0801  0.1796
  453loPI   C1A 7239   8.258   3.008   9.793  0.0395 -0.3065 -0.2747
  453loPI   C2A 7240   8.293   3.000   9.426 -0.1153  0.2614 -0.1620
  453loPI   C3A 7241   8.481   2.875   9.138 -0.2221  0.0551  0.1499
  453loPI   C4A 7242   8.647   2.778   8.658  0.1677  0.0267 -0.1282
  453loPI   C5A 7243   8.791   2.712   8.257 -0.2462  0.0963 -0.0110
  453loPI   C6A 7244   8.838   2.879   7.799 -0.0989  0.2670 -0.0141
  453loPI   C1B 7245   8.291   3.534   9.459 -0.1658  0.2272 -0.1207
  453loPI   C2B 7246   8.446   3.501   9.190  0.2198  0.1759 -0.0354
  453loPI   C3B 7247   8.599   3.589   8.803  0.1486  0.2542  0.0786
  453loPI   C4B 7248   8.774   3.564   8.405  0.0231 -0.1696  0.1802
  454loPI    C1 7249  10.956  13.810  10.204  0.0673 -0.1891 -0.0119
  454loPI    C2 7250  10.904  13.442  10.353 -0.2726 -0.0857  0.1347
  454loPI    C3 7251  10.688  13.748  10.495 -0.1888  0.1214 -0.1751
  454loPI   PO4 7252  11.092  13.760   9.950  0.0892  0.0430  0.2130
  454loPI   GL1 7253  11.048  13.811   9.544 -0.1836 -0.4150 -0.0812
  454loPI   GL2 7254  10.728  13.671   9.489  0.1507  0.2890  0.1545
  454loPI   C1A 7255  11.117  13.711   9.039 -0.2120 -0.3481  0.1327
  454loPI   C2A 7256  11.295  13.527   8.619 -0.1885 -0.1677  0.0672
  454loPI   C3A 7257  11.500  13.773   8.233  0.0870  0.1978  0.0686
  454loPI   C4A 7258  11.456  13.856   7.819  0.0831  0.0916 -0.2905
  454loPI   C5A 7259  11.507  13.591   7.440  0.1127  0.2464  0.0859
  454loPI   C6A 7260  11.688  13.656   7.158  0.1146  0.2292  0.0067
  454loPI   C1B 7261  10.754  13.951   9.196 -0.0283  0.2783 -0.0980
  454loPI   C2B 7262  10.610  13.939   8.758 -0.2194 -0.1732 -0.0796
  454loPI   C3B 7263  10.957  13.890   8.329  0.2407 -0.0670  0.2234
  454loPI   C4B 7264  10.883  13.750   7.929  0.0898 -0.4938  0.2193
  455loPI    C1 7265  13.650   5.965  10.506  0.1351 -0.2865  0.0875
  455loPI    C2 7266  13.329   5.930  10.269  0.1719  0.0999 -0.0273
  455loPI    C3 7267  13.282   5.984  10.663  0.0930  0.2473 -0.0566
  455loPI   PO4 7268  13.814   6.122  10.297  0.0124  0.3186  0.0718
  455loPI   GL1 7269  13.898   5.855   9.937  0.0009  0.4714  0.1004
  455loPI   GL2 7270  13.706   6.046   9.840 -0.2718 -0.0129 -0.5049
  455loPI   C1A 7271  14.012   5.644   9.525 -0.1313 -0.1356 -0.2989
  455loPI   C2A 7272  13.870   5.591   9.071  0.0880  0.0200 -0.2565
  455loPI   C3A 7273  13.945   5.598   8.724  0.2687 -0.0329 -0.0730
  455loPI   C4A 7274  13.963   5.474   8.278  0.0792 -0.1549 -0.0167
  455loPI   C5A 7275  13.977   5.688   7.870 -0.1431 -0.0246  0.1741
  455loPI   C6A 7276  14.129   5.926   7.624  0.5500 -0.3280  0.0330
  455loPI   C1B 7277  13.980   6.137   9.440  0.3191 -0.1288  0.0333
  455loPI   C2B 7278  13.880   6.106   9.001  0.2528  0.0080  0.1455
  455loPI   C3B 7279  13.970   6.065   8.530  0.0732  0.3162 -0.0615
  455loPI   C4B 7280  14.014   6.125   8.084 -0.0492 -0.0202 -0.2054
  456loPI    C1 7281   5.418   6.528   9.846 -0.0990  0.1878  0.0947
  456loPI    C2 7282   5.339   6.286  10.154 -0.0498  0.0630  0.0101
  456loPI    C3 7283   5.529   6.633  10.215 -0.1572  0.1003  0.1374
  456loPI   PO4 7284   5.311   6.220   9.626  0.1731 -0.0582 -0.3031
  456loPI   GL1 7285   5.085   6.313   9.292  0.0305 -0.3268 -0.3402
  456loPI   GL2 7286   5.235   6.510   9.181  0.2163 -0.0273 -0.0219
  456loPI   C1A 7287   4.973   6.150   8.877 -0.1192 -0.0266  0.1620
  456loPI   C2A 7288   4.940   6.194   8.421  0.1542  0.0441 -0.1109
  456loPI   C3A 7289   4.795   6.066   7.955  0.0760 -0.1185  0.1836
  456loPI   C4A 7290   4.955   5.886   7.464  0.1415 -0.0302 -0.2220
  456loPI   C5A 7291   4.870   5.541   7.181 -0.1167  0.2310  0.1018
  456loPI   C6A 7292   5.022   5.323   6.696 -0.0841 -0.1078  0.2637
  456loPI   C1B 7293   5.091   6.625   8.731  0.1872 -0.0012 -0.0310
  456loPI   C2B 7294   5.281   6.520   8.299 -0.2988 -0.0944  0.0571
  456loPI   C3B 7295   5.329   6.268   8.040  0.1855  0.1699  0.0656
  456loPI   C4B 7296   5.317   6.267   7.518 -0.2157  0.3015  0.2346
  457loPI    C1 7297  18.402   6.660  10.417  0.0435  0.1870  0.0446
  457loPI    C2 7298  18.079   6.497  10.588  0.1868 -0.1590 -0.0051
  457loPI    C3 7299  18.151   6.889  10.629 -0.0905 -0.1290  0.2346
  457loPI   PO4 7300  18.443   6.549  10.108  0.0341 -0.0228 -0.2200
  457loPI   GL1 7301  18.260   6.480   9.752  0.0934 -0.0239 -0.1388
  457loPI   GL2 7302  18.169   6.873   9.762  0.1775 -0.0196  0.0895
  457loPI   C1A 7303  18.444   6.330   9.406  0.2947  0.0872 -0.1484
  457loPI   C2A 7304  18.552   6.144   8.999  0.0192 -0.2226 -0.2320
  457loPI   C3A 7305  18.447   6.191   8.494  0.0082 -0.1117  0.0250
  457loPI   C4A 7306  18.294   6.351   8.227 -0.1779 -0.0441 -0.0352
  457loPI   C5A 7307  18.118   6.634   7.896  0.0833  0.2543 -0.1803
  457loPI   C6A 7308  17.825   6.914   7.722  0.3730 -0.1209  0.0879
  457loPI   C1B 7309  18.169   6.939   9.326 -0.0646  0.0939  0.0267
  457loPI   C2B 7310  18.220   6.958   8.927 -0.1120  0.0817 -0.0665
  457loPI   C3B 7311  18.386   7.116   8.565  0.0161 -0.2133  0.0556
  457loPI   C4B 7312  18.440   6.990   8.132  0.4188 -0.6966  0.2007
  458loPI    C1 7313  14.987   7.094  10.168 -0.0112 -0.0189 -0.0580
  458loPI    C2 7314  14.821   6.753  10.295  0.1292 -0.0477  0.0509
  458loPI    C3 7315  14.688   7.104  10.433  0.1626 -0.0709  0.1428
  458loPI   PO4 7316  14.938   7.113   9.914 -0.0450 -0.6154 -0.1586
  458loPI   GL1 7317  14.876   7.439   9.736 -0.2556 -0.2795  0.0191
  458loPI   GL2 7318  15.021   7.719   9.701  0.0322  0.1804 -0.0056
  458loPI   C1A 7319  14.597   7.542   9.405 -0.1670 -0.2096  0.1166
  458loPI   C2A 7320  14.595   7.405   9.087 -0.0492  0.0931  0.1321
  458loPI   C3A 7321  14.579   7.535   8.680  0.0843  0.0261 -0.0236
  458loPI   C4A 7322  14.617   7.613   8.277 -0.0159  0.2156 -0.1052
  458loPI   C5A 7323  14.455   7.782   7.882  0.0101  0.0252 -0.0548
  458loPI   C6A 7324  14.520   8.045   7.567 -0.1520 -0.3531  0.1246
  458loPI   C1B 7325  15.404   7.895   9.475 -0.1703  0.2519 -0.1268
  458loPI   C2B 7326  15.300   8.003   9.026  0.1965  0.2906 -0.2925
  458loPI   C3B 7327  15.414   8.154   8.577  0.1889  0.2676  0.2092
  458loPI   C4B 7328  15.464   8.072   8.111  0.2920  0.2078 -0.3472
  459loPI    C1 7329   0.723  15.570  10.080  0.0612 -0.1344 -0.1546
  459loPI    C2 7330   0.412  15.388  10.254 -0.1569  0.4450  0.0863
  459loPI    C3 7331   0.765  15.401  10.440 -0.0767  0.0870 -0.0324
  459loPI   PO4 7332   0.700  15.536   9.782  0.0946  0.1116  0.0583
  459loPI   GL1 7333   0.669  15.339   9.296 -0.0496 -0.2870  0.2226
  459loPI   GL2 7334   0.734  15.630   9.293 -0.0763  0.2468 -0.0362
  459loPI   C1A 7335   0.814  15.076   9.004  0.1907  0.2240 -0.1246
  459loPI   C2A 7336   1.048  15.155   8.589  0.1303  0.1605 -0.4805
  459loPI   C3A 7337   1.050  15.338   8.110 -0.5334 -0.3163 -0.2806
  459loPI   C4A 7338   0.838  15.287   7.721  0.2388  0.2918  0.0378
  459loPI   C5A 7339   0.770  14.863   7.603  0.1709 -0.3517  0.5022
  459loPI   C6A 7340   0.938  14.401   7.699 -0.0314 -0.0318  0.2585
  459loPI   C1B 7341   0.578  15.446   8.855 -0.1994 -0.1943 -0.1934
  459loPI   C2B 7342   0.560  15.391   8.545 -0.0210  0.0387 -0.2060
  459loPI   C3B 7343   0.443  15.506   8.119 -0.0260  0.0465  0.0718
  459loPI   C4B 7344   0.273  15.568   7.764 -0.1459  0.0985 -0.0165
  460loPI    C1 7345   5.601  16.883   9.406  0.0804  0.1100  0.1467
  460loPI    C2 7346   5.560  16.762   9.785 -0.1456 -0.0829  0.0629
  460loPI    C3 7347   5.487  16.508   9.484  0.1130  0.0443 -0.1110
  460loPI   PO4 7348   5.906  16.993   9.446 -0.0342  0.0904 -0.1830
  460loPI   GL1 7349   6.059  17.043   9.053 -0.2632 -0.2243 -0.3910
  460loPI   GL2 7350   6.103  17.306   8.915  0.2983  0.2713  0.0836
  460loPI   C1A 7351   5.819  16.790   8.696  0.1453 -0.3444  0.0760
  460loPI   C2A 7352   5.916  16.791   8.333 -0.0774 -0.1367 -0.0724
  460loPI   C3A 7353   5.943  17.004   7.862 -0.1467 -0.0754  0.1562
  460loPI   C4A 7354   5.911  17.377   7.646 -0.0308  0.0407  0.2277
  460loPI   C5A 7355   5.523  17.342   7.445 -0.2327  0.2974 -0.0533
  460loPI   C6A 7356   5.146  17.031   7.489 -0.2695  0.1652  0.0090
  460loPI   C1B 7357   6.003  17.301   8.491  0.1599  0.0071 -0.0803
  460loPI   C2B 7358   6.170  17.337   8.123  0.0247 -0.0287 -0.2378
  460loPI   C3B 7359   6.351  17.172   7.724 -0.2464  0.1312  0.0328
  460loPI   C4B 7360   6.732  17.343   7.435 -0.0989 -0.1122 -0.3122
  461loPI    C1 7361   6.668  15.563  10.207 -0.0771  0.2898 -0.0463
  461loPI    C2 7362   6.385  15.347  10.389  0.1499  0.0938  0.0798
  461loPI    C3 7363   6.312  15.728  10.289 -0.1773  0.0282  0.0551
  461loPI   PO4 7364   6.784  15.466  10.027 -0.0455 -0.0392  0.0089
  461loPI   GL1 7365   6.606  15.513   9.546 -0.2219  0.4164  0.0086
  461loPI   GL2 7366   6.515  15.714   9.342 -0.0269 -0.0208  0.1258
  461loPI   C1A 7367   6.890  15.219   9.304 -0.3769 -0.0409 -0.0087
  461loPI   C2A 7368   6.915  15.133   8.930 -0.0347 -0.0255  0.2585
  461loPI   C3A 7369   6.877  15.180   8.497  0.1804 -0.1895 -0.1693
  461loPI   C4A 7370   6.982  15.330   8.189  0.3717  0.2606 -0.0980
  461loPI   C5A 7371   6.793  15.367   7.805  0.0709  0.2945 -0.3674
  461loPI   C6A 7372   6.834  15.488   7.427 -0.2405  0.0201  0.0872
  461loPI   C1B 7373   6.750  15.624   8.991 -0.2496 -0.2153 -0.0461
  461loPI   C2B 7374   6.765  15.758   8.542 -0.1113  0.0461  0.1641
  461loPI   C3B 7375   6.851  15.850   8.087  0.3484  0.2266  0.0433
  461loPI   C4B 7376   6.887  16.048   7.625  0.3968 -0.1380  0.1619
  462loPI    C1 7377   3.973  11.348   9.470 -0.0424  0.1211  0.0040
  462loPI    C2 7378   3.844  11.078   9.735 -0.0547  0.1971  0.0756
  462loPI    C3 7379   3.732  11.461   9.769  0.1291  0.2501  0.0952
  462loPI   PO4 7380   3.889  11.257   9.183  0.0043  0.0163  0.5649
  462loPI   GL1 7381   3.519  11.195   8.938  0.2487  0.2966 -0.1736
  462loPI   GL2 7382   3.501  11.494   8.913  0.2387  0.2062  0.0558
  462loPI   C1A 7383   3.878  11.311   8.526  0.0761 -0.0973  0.1845
  462loPI   C2A 7384   3.849  11.233   8.115  0.2077  0.2723  0.2738
  462loPI   C3A 7385   3.596  11.133   7.842 -0.2639  0.0777 -0.3449
  462loPI   C4A 7386   3.565  10.844   7.508 -0.2035 -0.4424  0.1585
  462loPI   C5A 7387   3.358  10.862   7.091 -0.2151 -0.2340 -0.3046
  462loPI   C6A 7388   2.913  10.801   6.911  0.0466  0.2879  0.1306
  462loPI   C1B 7389   3.321  11.518   8.482  0.1144  0.0902  0.1058
  462loPI   C2B 7390   3.320  11.100   8.256 -0.0249  0.0391 -0.2816
  462loPI   C3B 7391   3.242  10.828   7.872 -0.0678 -0.4638  0.1999
  462loPI   C4B 7392   3.028  10.652   7.539  0.1958  0.2763  0.2662
  463loPI    C1 7393   8.553  16.252  10.157 -0.0371 -0.2814  0.3373
  463loPI    C2 7394   8.785  16.491  10.378  0.0026 -0.0633  0.0658
  463loPI    C3 7395   8.933  16.150  10.229  0.0490 -0.0872  0.1658
  463loPI   PO4 7396   8.521  16.426  10.007 -0.0591  0.0621  0.0005
  463loPI   GL1 7397   8.420  16.350   9.564  0.2458 -0.1505  0.3017
  463loPI   GL2 7398   8.469  16.066   9.481  0.3005 -0.4677  0.1256
  463loPI   C1A 7399   8.588  16.493   9.148 -0.2023  0.5665  0.2356
  463loPI   C2A 7400   8.646  16.574   8.722 -0.0335 -0.2134  0.3152
  463loPI   C3A 7401   8.825  16.513   8.349 -0.0273  0.1389 -0.2872
  463loPI   C4A 7402   8.756  16.583   7.920 -0.1821  0.4786  0.2145
  463loPI   C5A 7403   8.686  16.824   7.545  0.1759  0.2042 -0.1764
  463loPI   C6A 7404   8.275  16.932   7.186  0.1267  0.2626  0.0107
  463loPI   C1B 7405   8.623  15.966   9.078  0.1281  0.2100 -0.0703
  463loPI   C2B 7406   8.597  16.039   8.581  0.0037  0.0668  0.1598
  463loPI   C3B 7407   8.666  16.147   8.094 -0.0931 -0.0481 -0.1096
  463loPI   C4B 7408   8.798  15.822   7.667  0.0487  0.0970 -0.1789
  464loPI    C1 7409  17.966  11.816   9.980 -0.1540 -0.2320 -0.0131
  464loPI    C2 7410  17.990  11.997  10.336  0.0741 -0.2022 -0.0419
  464loPI    C3 7411  18.072  11.607  10.305 -0.0481 -0.2283 -0.0451
  464loPI   PO4 7412  17.795  11.902   9.851 -0.0762 -0.0037 -0.1644
  464loPI   GL1 7413  17.705  11.714   9.439 -0.1053 -0.0762 -0.0563
  464loPI   GL2 7414  17.948  11.553   9.527  0.0857  0.3433  0.0667
  464loPI   C1A 7415  17.815  11.606   9.037 -0.1813 -0.2641  0.0552
  464loPI   C2A 7416  17.892  11.658   8.653 -0.2207 -0.2123  0.0710
  464loPI   C3A 7417  17.801  11.567   8.239  0.1215 -0.2564  0.4268
  464loPI   C4A 7418  17.607  11.678   7.933 -0.0109 -0.0412  0.2918
  464loPI   C5A 7419  17.806  11.963   7.766 -0.0152 -0.0034  0.1545
  464loPI   C6A 7420  17.629  12.333   7.614  0.1430 -0.0180 -0.2549
  464loPI   C1B 7421  18.274  11.711   9.294  0.2453 -0.2165 -0.1271
  464loPI   C2B 7422  18.359  11.691   8.954  0.0750 -0.2712  0.1108
  464loPI   C3B 7423  18.393  11.885   8.499  0.1567  0.1514  0.3218
  464loPI   C4B 7424  17.990  12.089   8.467  0.1664 -0.1349 -0.4550
  465loPI    C1 7425  15.546   6.624  10.545 -0.0045 -0.0163  0.0344
  465loPI    C2 7426  15.693   6.350  10.796 -0.0613 -0.0975 -0.0208
  465loPI    C3 7427  15.931   6.518  10.522 -0.0496 -0.1636 -0.0515
  465loPI   PO4 7428  15.253   6.501  10.425 -0.0136  0.2344  0.1930
  465loPI   GL1 7429  15.153   6.291   9.955 -0.1014  0.1299 -0.2385
  465loPI   GL2 7430  15.347   6.433   9.662  0.0404  0.4220  0.0320
  465loPI   C1A 7431  14.859   6.252   9.601  0.1485 -0.2317 -0.1337
  465loPI   C2A 7432  14.768   6.278   9.182 -0.2154 -0.6186 -0.0838
  465loPI   C3A 7433  14.818   6.386   8.784 -0.1408  0.0054 -0.0491
  465loPI   C4A 7434  14.731   6.505   8.403  0.1440  0.1707  0.0180
  465loPI   C5A 7435  14.882   6.715   8.056 -0.0369 -0.1109  0.0619
  465loPI   C6A 7436  15.002   6.889   7.718  0.0008 -0.2535 -0.0779
  465loPI   C1B 7437  15.290   6.607   9.231 -0.1664  0.2633  0.3589
  465loPI   C2B 7438  15.329   6.628   8.786  0.2996 -0.0257  0.0671
  465loPI   C3B 7439  15.230   6.615   8.362 -0.0052 -0.2683 -0.0054
  465loPI   C4B 7440  15.233   6.425   7.916 -0.0444 -0.2103  0.0677
  466loPI    C1 7441  15.521  15.654  10.261 -0.0788  0.1605 -0.0550
  466loPI    C2 7442  15.190  15.674  10.485 -0.0236  0.0149  0.0403
  466loPI    C3 7443  15.550  15.703  10.657  0.0174 -0.0261 -0.0380
  466loPI   PO4 7444  15.473  15.403  10.058 -0.1656  0.0093  0.2945
  466loPI   GL1 7445  15.287  15.293   9.602 -0.0706  0.0341  0.0614
  466loPI   GL2 7446  15.566  15.121   9.590  0.1256 -0.0218  0.0425
  466loPI   C1A 7447  15.419  15.560   9.221  0.0988 -0.1607 -0.2890
  466loPI   C2A 7448  15.456  15.616   8.868 -0.2577  0.1427 -0.1796
  466loPI   C3A 7449  15.471  15.582   8.409 -0.0132 -0.2438 -0.0555
  466loPI   C4A 7450  15.659  15.952   8.074 -0.1950 -0.2655  0.1237
  466loPI   C5A 7451  15.596  16.039   7.636 -0.3786  0.0423  0.2027
  466loPI   C6A 7452  15.330  16.313   7.384  0.1268 -0.1909  0.0669
  466loPI   C1B 7453  15.370  15.044   9.134  0.1770  0.0793  0.1888
  466loPI   C2B 7454  15.196  15.136   8.792  0.0572 -0.1976  0.2041
  466loPI   C3B 7455  15.438  15.014   8.369 -0.1731 -0.0478  0.0020
  466loPI   C4B 7456  15.608  15.188   7.929 -0.2629  0.0365  0.1574
  467loPI    C1 7457  11.794  11.291  10.251  0.3336  0.0847 -0.3122
  467loPI    C2 7458  11.984  10.946  10.324 -0.0664 -0.0944 -0.0853
  467loPI    C3 7459  12.150  11.292  10.435  0.2574 -0.2228 -0.1560
  467loPI   PO4 7460  11.736  11.197   9.912  0.2340 -0.1608 -0.1611
  467loPI   GL1 7461  11.533  11.363   9.567  0.1531 -0.0119  0.0222
  467loPI   GL2 7462  11.781  11.574   9.438 -0.0865  0.4253  0.0282
  467loPI   C1A 7463  11.586  11.260   9.158 -0.0019 -0.0628  0.1409
  467loPI   C2A 7464  11.753  11.009   8.709  0.0392  0.2426  0.1925
  467loPI   C3A 7465  11.687  11.098   8.298 -0.2135 -0.0939 -0.1343
  467loPI   C4A 7466  11.537  11.233   7.954 -0.3011  0.2098 -0.0670
  467loPI   C5A 7467  11.517  11.670   7.809 -0.1979 -0.2396  0.0361
  467loPI   C6A 7468  11.209  11.801   7.521  0.2227 -0.2816  0.0874
  467loPI   C1B 7469  11.727  11.822   9.085  0.0117  0.0698 -0.1992
  467loPI   C2B 7470  11.723  11.653   8.556 -0.0606  0.5428 -0.0857
  467loPI   C3B 7471  11.912  11.561   8.162  0.1499 -0.1383  0.1188
  467loPI   C4B 7472  11.995  11.332   7.887 -0.2827 -0.1659  0.0427
  468loPI    C1 7473   2.098   9.150  10.070 -0.2527 -0.0660 -0.0005
  468loPI    C2 7474   2.101   9.550  10.060 -0.0610 -0.0689 -0.1175
  468loPI    C3 7475   2.363   9.354  10.289  0.0705 -0.1326 -0.3198
  468loPI   PO4 7476   1.889   9.146   9.791 -0.0872  0.0234  0.1149
  468loPI   GL1 7477   1.873   9.386   9.541 -0.2185  0.1750  0.1949
  468loPI   GL2 7478   2.100   9.634   9.565  0.2516  0.2123 -0.2097
  468loPI   C1A 7479   1.664   9.431   9.132  0.0751 -0.3238 -0.1175
  468loPI   C2A 7480   1.691   9.333   8.782  0.0219  0.2511  0.0984
  468loPI   C3A 7481   1.722   9.547   8.358  0.1061  0.1846 -0.1858
  468loPI   C4A 7482   1.568   9.681   8.069  0.0616 -0.1278  0.0365
  468loPI   C5A 7483   1.631   9.837   7.632  0.0951  0.0375  0.0322
  468loPI   C6A 7484   1.633   9.750   7.258 -0.1924 -0.4067  0.0050
  468loPI   C1B 7485   2.127   9.604   9.130  0.0960  0.0625 -0.0210
  468loPI   C2B 7486   2.037   9.811   8.722 -0.3723 -0.0606 -0.0943
  468loPI   C3B 7487   2.081   9.880   8.314  0.0447  0.0139  0.2723
  468loPI   C4B 7488   2.047   9.819   7.872 -0.2518  0.0174 -0.1328
  469loPI    C1 7489   0.020   9.697  10.403 -0.2389  0.3339 -0.0540
  469loPI    C2 7490  -0.296   9.519  10.235 -0.0185 -0.1213  0.0000
  469loPI    C3 7491  -0.301   9.608  10.625 -0.1030 -0.0709 -0.0122
  469loPI   PO4 7492   0.190   9.539  10.269  0.0313  0.0186  0.0971
  469loPI   GL1 7493   0.058   9.556   9.847  0.0779  0.0881 -0.4065
  469loPI   GL2 7494   0.063   9.237   9.588 -0.1706 -0.1498  0.3970
  469loPI   C1A 7495  -0.117   9.710   9.444  0.1676 -0.2562 -0.0270
  469loPI   C2A 7496  -0.287   9.751   9.035  0.2341 -0.0955  0.0305
  469loPI   C3A 7497  -0.438   9.856   8.707  0.0851 -0.1733 -0.4970
  469loPI   C4A 7498  -0.486  10.019   8.275 -0.1414  0.0890  0.1313
  469loPI   C5A 7499  -0.119  10.194   8.004 -0.1404  0.4067  0.1501
  469loPI   C6A 7500  -0.227  10.171   7.649 -0.2882 -0.0570 -0.4186
  469loPI   C1B 7501  -0.038   9.284   9.101  0.0767 -0.3428  0.0738
  469loPI   C2B 7502   0.044   9.501   8.734 -0.0052 -0.0844 -0.1586
  469loPI   C3B 7503   0.109   9.852   8.518 -0.0674 -0.1296 -0.0597
  469loPI   C4B 7504   0.079  10.253   8.457 -0.5912 -0.0593  0.0022
  470loPI    C1 7505   4.921  16.163  10.206 -0.0248 -0.1270  0.1070
  470loPI    C2 7506   5.216  15.902  10.274  0.2082  0.1010 -0.0148
  470loPI    C3 7507   5.172  16.220  10.512  0.1042  0.1047 -0.0388
  470loPI   PO4 7508   4.949  16.169   9.926  0.0656  0.1432 -0.0425
  470loPI   GL1 7509   5.259  16.029   9.543  0.2899 -0.0193  0.1025
  470loPI   GL2 7510   5.081  16.244   9.420 -0.3480 -0.2570 -0.0539
  470loPI   C1A 7511   5.522  16.009   9.198  0.1309 -0.1977 -0.0524
  470loPI   C2A 7512   5.525  15.949   8.768 -0.1644 -0.0963 -0.1938
  470loPI   C3A 7513   5.497  15.850   8.322  0.1682  0.1283  0.4376
  470loPI   C4A 7514   5.673  15.622   7.973 -0.1389 -0.1775  0.1509
  470loPI   C5A 7515   6.067  15.447   7.899  0.0628 -0.1837 -0.4118
  470loPI   C6A 7516   6.343  15.170   7.810  0.0595  0.1443 -0.0056
  470loPI   C1B 7517   5.088  16.033   8.963  0.0015  0.3186 -0.0137
  470loPI   C2B 7518   5.108  15.618   8.656  0.0105  0.0991 -0.3152
  470loPI   C3B 7519   5.197  15.367   8.376 -0.2236  0.1025  0.1288
  470loPI   C4B 7520   5.074  15.527   8.067 -0.3625  0.0744  0.0944
  471loPI    C1 7521   6.083   8.426   9.881  0.0269 -0.0701  0.0520
  471loPI    C2 7522   6.092   8.823   9.833 -0.1620 -0.0636  0.0613
  471loPI    C3 7523   6.078   8.667  10.201 -0.0221 -0.0815  0.0598
  471loPI   PO4 7524   6.224   8.336   9.751 -0.0404 -0.3092 -0.1772
  471loPI   GL1 7525   6.316   8.281   9.369 -0.3181 -0.2708  0.1725
  471loPI   GL2 7526   6.099   7.986   9.385 -0.0180  0.2212  0.1894
  471loPI   C1A 7527   6.261   8.040   8.962  0.2314  0.1079 -0.2813
  471loPI   C2A 7528   6.215   7.961   8.596 -0.0842 -0.1782 -0.0750
  471loPI   C3A 7529   6.106   7.881   8.145 -0.2046  0.1300 -0.1662
  471loPI   C4A 7530   6.212   7.903   7.725 -0.0118 -0.0044 -0.1882
  471loPI   C5A 7531   5.985   8.237   7.553  0.0994 -0.2143  0.2049
  471loPI   C6A 7532   5.832   8.618   7.673  0.1172  0.3082  0.2140
  471loPI   C1B 7533   5.973   7.617   9.108 -0.0994 -0.0747  0.2937
  471loPI   C2B 7534   5.909   7.567   8.560 -0.0507 -0.2619  0.2484
  471loPI   C3B 7535   5.739   7.503   8.218  0.0208 -0.0196  0.1856
  471loPI   C4B 7536   5.981   7.495   7.835  0.1588  0.2469 -0.0380
  472loPI    C1 7537   1.109  13.632   9.694 -0.1544  0.2298 -0.0896
  472loPI    C2 7538   1.363  13.440   9.936 -0.2389  0.0880 -0.1124
  472loPI    C3 7539   1.338  13.839   9.948 -0.3407  0.0745  0.2101
  472loPI   PO4 7540   0.989  13.336   9.600 -0.1088 -0.1368  0.1104
  472loPI   GL1 7541   0.841  13.077   9.188 -0.2766 -0.1336  0.1733
  472loPI   GL2 7542   1.070  13.083   9.096 -0.1364  0.2606  0.1627
  472loPI   C1A 7543   0.702  13.092   8.812 -0.3115  0.0738  0.2211
  472loPI   C2A 7544   0.585  13.049   8.409 -0.0258  0.1288  0.0942
  472loPI   C3A 7545   0.518  12.993   7.976 -0.1064  0.0654 -0.1174
  472loPI   C4A 7546   0.072  12.873   7.839  0.0065 -0.0047  0.0181
  472loPI   C5A 7547  -0.197  12.570   7.929  0.2095 -0.0338  0.0031
  472loPI   C6A 7548  -0.552  12.200   7.971  0.0242 -0.0792  0.2175
  472loPI   C1B 7549   1.214  13.173   8.655 -0.1172 -0.0717  0.2228
  472loPI   C2B 7550   1.060  13.152   8.300 -0.2183  0.2040  0.4415
  472loPI   C3B 7551   1.006  13.105   7.950  0.2617  0.1217  0.2962
  472loPI   C4B 7552   0.820  13.107   7.526 -0.2880  0.0633 -0.1439
  473loPI    C1 7553  12.773   3.407  10.003 -0.0585  0.1693 -0.1905
  473loPI    C2 7554  13.004   3.497  10.317  0.0793  0.1573 -0.2876
  473loPI    C3 7555  13.033   3.138  10.143 -0.0350  0.1445 -0.2811
  473loPI   PO4 7556  12.841   3.511   9.817  0.0322 -0.3923  0.2427
  473loPI   GL1 7557  12.699   3.542   9.414  0.1778  0.0207 -0.0171
  473loPI   GL2 7558  12.508   3.298   9.479 -0.1064  0.2389 -0.0624
  473loPI   C1A 7559  13.049   3.586   9.066  0.0698  0.1203  0.0763
  473loPI   C2A 7560  13.168   3.851   8.737  0.3818  0.0502 -0.0665
  473loPI   C3A 7561  12.929   4.232   8.580 -0.0112  0.4960 -0.2460
  473loPI   C4A 7562  12.933   4.673   8.611 -0.2780 -0.0871 -0.0817
  473loPI   C5A 7563  12.732   4.983   8.352  0.0415  0.0060 -0.1504
  473loPI   C6A 7564  12.947   5.297   8.080  0.0786  0.1802  0.0215
  473loPI   C1B 7565  12.675   3.204   8.982 -0.1193  0.1188  0.0763
  473loPI   C2B 7566  12.967   3.214   8.725 -0.1723  0.0566  0.2038
  473loPI   C3B 7567  12.979   3.266   8.290  0.0834  0.5108  0.1179
  473loPI   C4B 7568  12.647   3.369   8.004  0.0790 -0.3532 -0.2578
  474POPI    C1 7569  18.582   1.696   9.952 -0.0011  0.1905  0.1870
  474POPI    C2 7570  18.186   1.676   9.896  0.0305  0.0105  0.0177
  474POPI    C3 7571  18.333   1.777  10.254 -0.1673 -0.1007  0.1319
  474POPI   PO4 7572  18.727   1.422   9.742 -0.1410 -0.2356  0.0847
  474POPI   GL1 7573  18.650   1.165   9.469 -0.1561 -0.0612  0.0482
  474POPI   GL2 7574  18.439   1.431   9.374  0.1455 -0.3607 -0.1906
  474POPI   C1A 7575  18.812   0.910   9.059 -0.0996  0.1982 -0.2513
  474POPI   D2A 7576  18.888   1.006   8.651 -0.0573 -0.0666  0.3664
  474POPI   C3A 7577  18.909   1.080   8.153 -0.1442 -0.0072  0.2645
  474POPI   C4A 7578  18.912   1.270   7.683  0.0476  0.1883 -0.1009
  474POPI   C1B 7579  18.517   1.371   8.918  0.0879 -0.0558  0.1431
  474POPI   C2B 7580  18.447   1.483   8.510 -0.0361 -0.1678 -0.1641
  474POPI   C3B 7581  18.601   1.506   8.120  0.0706  0.1095 -0.1193
  474POPI   C4B 7582  18.469   1.552   7.642  0.0114  0.3024  0.0725
  475POPI    C1 7583   1.565  16.985   9.729 -0.0770 -0.0080 -0.0631
  475POPI    C2 7584   1.539  16.606   9.852  0.0786 -0.0345 -0.1101
  475POPI    C3 7585   1.879  16.810   9.906  0.0566  0.0400 -0.2497
  475POPI   PO4 7586   1.495  16.999   9.497  0.0867  0.0562 -0.0820
  475POPI   GL1 7587   1.537  17.063   9.055 -0.1047  0.0109 -0.2422
  475POPI   GL2 7588   1.286  17.234   9.108 -0.0605 -0.0400  0.1700
  475POPI   C1A 7589   1.586  17.322   8.742 -0.0185  0.3309  0.0164
  475POPI   D2A 7590   1.501  17.356   8.287  0.0412  0.1681  0.0257
  475POPI   C3A 7591   1.071  17.633   8.123  0.3234  0.1704 -0.0116
  475POPI   C4A 7592   0.772  17.709   7.783 -0.1382 -0.2029  0.1578
  475POPI   C1B 7593   1.070  17.490   8.876 -0.1952  0.1846  0.1889
  475POPI   C2B 7594   0.830  17.697   8.563  0.0531  0.0051  0.1146
  475POPI   C3B 7595   0.599  17.874   8.192 -0.1748  0.1024  0.0921
  475POPI   C4B 7596   0.622  18.258   7.821 -0.0877 -0.1051  0.0068
  476POPI    C1 7597   2.987  13.483   9.665 -0.0673  0.1279 -0.1427
  476POPI    C2 7598   2.789  13.736   9.902  0.0892  0.1485 -0.0327
  476POPI    C3 7599   2.651  13.365   9.847 -0.0015  0.1754  0.0109
  476POPI   PO4 7600   3.000  13.580   9.404 -0.1126  0.0368  0.0260
  476POPI   GL1 7601   3.116  13.638   9.057 -0.0734  0.0394  0.0648
  476POPI   GL2 7602   3.389  13.487   9.061 -0.0303  0.3433  0.2520
  476POPI   C1A 7603   3.148  13.875   8.692  0.0029  0.3539  0.0647
  476POPI   D2A 7604   3.207  13.961   8.213  0.1000  0.0484 -0.1173
  476POPI   C3A 7605   3.088  14.182   7.925  0.3314  0.1432  0.0996
  476POPI   C4A 7606   2.785  14.347   7.706 -0.0483  0.0527 -0.0545
  476POPI   C1B 7607   3.305  13.410   8.653  0.1358  0.1460 -0.0269
  476POPI   C2B 7608   3.463  13.548   8.281 -0.0060 -0.0980  0.0123
  476POPI   C3B 7609   3.815  13.570   8.065  0.1949  0.0921 -0.0197
  476POPI   C4B 7610   4.064  13.605   7.789  0.0890 -0.1317  0.1521
  477POPI    C1 7611  11.817   9.308  10.324 -0.0014 -0.1421 -0.0399
  477POPI    C2 7612  11.695   8.940  10.422 -0.1981 -0.0852 -0.0659
  477POPI    C3 7613  11.885   9.167  10.691 -0.0895 -0.1999 -0.0453
  477POPI   PO4 7614  11.790   9.317  10.079 -0.1813  0.2898 -0.0884
  477POPI   GL1 7615  11.794   9.466   9.661 -0.0317  0.1227 -0.0517
  477POPI   GL2 7616  11.754   9.888   9.529 -0.0600 -0.1273 -0.1157
  477POPI   C1A 7617  11.876   9.513   9.269  0.3948  0.3179 -0.0061
  477POPI   D2A 7618  11.723   9.613   8.858  0.3098  0.0014 -0.1573
  477POPI   C3A 7619  11.954   9.505   8.509  0.2880 -0.1936  0.2540
  477POPI   C4A 7620  12.021   9.234   8.109  0.0028  0.0749  0.1092
  477POPI   C1B 7621  11.776  10.077   9.178 -0.1895 -0.1728 -0.2870
  477POPI   C2B 7622  11.583  10.148   8.811 -0.4083  0.1742  0.0729
  477POPI   C3B 7623  11.666  10.133   8.463 -0.1639  0.1532 -0.1614
  477POPI   C4B 7624  11.678  10.128   8.062 -0.1537 -0.2169 -0.1260
  478POPI    C1 7625   4.757  15.330   9.819 -0.0954  0.0819 -0.1403
  478POPI    C2 7626   4.977  15.357  10.152 -0.1588 -0.2442 -0.0683
  478POPI    C3 7627   4.765  15.672  10.026  0.1390 -0.0089  0.0050
  478POPI   PO4 7628   4.867  15.307   9.608  0.0249  0.0319 -0.0422
  478POPI   GL1 7629   4.855  15.574   9.182  0.1342 -0.0236 -0.1746
  478POPI   GL2 7630   4.559  15.166   9.156  0.1303  0.2506  0.0411
  478POPI   C1A 7631   4.666  15.404   8.769 -0.0479 -0.0192  0.1823
  478POPI   D2A 7632   4.650  15.419   8.326 -0.1273  0.1367 -0.2205
  478POPI   C3A 7633   4.382  15.532   8.048  0.0193  0.2878 -0.0409
  478POPI   C4A 7634   4.332  15.647   7.572  0.2460 -0.1039  0.1133
  478POPI   C1B 7635   4.689  14.877   8.877  0.1588 -0.1641  0.0993
  478POPI   C2B 7636   4.726  14.953   8.456  0.0271  0.1615 -0.1252
  478POPI   C3B 7637   4.790  15.096   7.960  0.0652  0.1879 -0.0501
  478POPI   C4B 7638   4.789  15.490   7.615 -0.3687  0.1293 -0.0421
  479POPI    C1 7639   1.551   0.779   9.868 -0.0613 -0.0486 -0.2098
  479POPI    C2 7640   1.690   0.841  10.238 -0.2213 -0.5963 -0.0482
  479POPI    C3 7641   1.891   0.982   9.922 -0.1276 -0.0487  0.2439
  479POPI   PO4 7642   1.318   0.817   9.847  0.0699  0.1847  0.2433
  479POPI   GL1 7643   1.209   0.859   9.420 -0.1421 -0.0161  0.2020
  479POPI   GL2 7644   1.505   0.945   9.176  0.0996  0.2740  0.2683
  479POPI   C1A 7645   1.051   0.899   8.954 -0.0426 -0.1425  0.0909
  479POPI   D2A 7646   0.766   0.738   8.592  0.2098  0.1848  0.2732
  479POPI   C3A 7647   0.842   0.784   8.126 -0.2186  0.1527 -0.0310
  479POPI   C4A 7648   0.765   0.788   7.687  0.4102  0.0391 -0.5245
  479POPI   C1B 7649   1.647   1.026   8.728 -0.1961  0.3145  0.1313
  479POPI   C2B 7650   1.769   0.903   8.354  0.2096 -0.0681  0.0038
  479POPI   C3B 7651   1.764   0.784   7.960 -0.0005 -0.0891  0.1665
  479POPI   C4B 7652   1.907   0.382   7.722  0.1219 -0.5024  0.1677
  480POPI    C1 7653   1.696   4.112  10.285 -0.1154  0.2903  0.2252
  480POPI    C2 7654   1.340   4.218  10.433 -0.1423  0.1778  0.2424
  480POPI    C3 7655   1.627   4.087  10.678 -0.2255 -0.1189  0.1848
  480POPI   PO4 7656   1.639   4.064  10.035 -0.0049 -0.1117  0.3811
  480POPI   GL1 7657   1.761   4.142   9.604 -0.2151  0.3790 -0.0243
  480POPI   GL2 7658   2.060   4.320   9.507 -0.1002 -0.2328 -0.0517
  480POPI   C1A 7659   1.683   4.294   9.170  0.1391  0.2689  0.1571
  480POPI   D2A 7660   1.510   4.239   8.738  0.2287  0.1621 -0.0381
  480POPI   C3A 7661   1.314   4.579   8.471  0.0157  0.2762 -0.4270
  480POPI   C4A 7662   1.109   4.463   7.969 -0.1346 -0.0055 -0.0062
  480POPI   C1B 7663   2.125   4.660   9.188  0.0535 -0.2119  0.1584
  480POPI   C2B 7664   1.777   4.699   8.951  0.0991  0.4821  0.1087
  480POPI   C3B 7665   1.673   4.861   8.591 -0.1932 -0.1474 -0.0399
  480POPI   C4B 7666   1.792   5.264   8.314 -0.3166 -0.0109  0.2898
  481POPI    C1 7667   4.003   5.960   9.763 -0.1381 -0.1078  0.0857
  481POPI    C2 7668   3.946   6.260  10.020 -0.1211 -0.0512  0.0237
  481POPI    C3 7669   4.136   5.929  10.139  0.1374  0.0884  0.0074
  481POPI   PO4 7670   3.855   6.062   9.521  0.1025  0.0097 -0.2464
  481POPI   GL1 7671   3.937   6.053   9.150 -0.0584  0.0479 -0.0518
  481POPI   GL2 7672   3.848   6.318   9.010  0.2100 -0.1117  0.0439
  481POPI   C1A 7673   3.841   5.888   8.750 -0.1495 -0.0398 -0.1046
  481POPI   D2A 7674   3.667   5.580   8.436  0.2892 -0.2594 -0.4810
  481POPI   C3A 7675   3.443   5.407   7.972 -0.1535  0.0594 -0.2595
  481POPI   C4A 7676   3.134   5.347   7.646 -0.2772  0.4552 -0.0076
  481POPI   C1B 7677   4.081   6.430   8.725  0.2772  0.2256  0.0555
  481POPI   C2B 7678   4.186   6.616   8.293  0.1967 -0.1545  0.0513
  481POPI   C3B 7679   4.276   6.834   7.988  0.2294 -0.1328 -0.0056
  481POPI   C4B 7680   4.585   6.859   7.717 -0.0606 -0.2566 -0.2143
  482POPI    C1 7681   1.598   8.225   9.910  0.2270  0.2167  0.0507
  482POPI    C2 7682   1.439   8.298  10.270  0.1150  0.1769  0.0095
  482POPI    C3 7683   1.587   7.936  10.186 -0.0524  0.1227 -0.0560
  482POPI   PO4 7684   1.461   8.212   9.752  0.0233 -0.0969  0.2680
  482POPI   GL1 7685   1.152   8.259   9.469 -0.3117 -0.1116 -0.0437
  482POPI   GL2 7686   1.383   8.557   9.413  0.3748 -0.0389 -0.1184
  482POPI   C1A 7687   1.174   8.266   8.919  0.2632 -0.0750 -0.3829
  482POPI   D2A 7688   0.944   8.220   8.470 -0.0795 -0.1195 -0.2905
  482POPI   C3A 7689   0.969   8.169   7.981 -0.1298 -0.5752 -0.3718
  482POPI   C4A 7690   0.768   8.045   7.666 -0.0904 -0.2566  0.1241
  482POPI   C1B 7691   1.516   8.564   9.112 -0.0900  0.1480  0.2099
  482POPI   C2B 7692   1.687   8.711   8.857  0.1333 -0.1984 -0.1351
  482POPI   C3B 7693   1.677   8.870   8.415  0.1808  0.2490  0.1422
  482POPI   C4B 7694   1.635   8.869   7.977  0.0409  0.2091 -0.2721
  483POPI    C1 7695   7.074  17.695   9.894  0.0525 -0.0226 -0.1510
  483POPI    C2 7696   6.991  18.086   9.922 -0.0026 -0.0400 -0.0695
  483POPI    C3 7697   6.704  17.815   9.990  0.0035 -0.0929 -0.2510
  483POPI   PO4 7698   7.214  17.610   9.671  0.0549 -0.1666 -0.1186
  483POPI   GL1 7699   7.318  17.413   9.411  0.1555  0.0275  0.1285
  483POPI   GL2 7700   7.184  17.160   9.398  0.0334  0.0095 -0.1013
  483POPI   C1A 7701   7.410  17.475   8.974 -0.0608  0.0545  0.0766
  483POPI   D2A 7702   7.555  17.312   8.595 -0.1926 -0.2052  0.0396
  483POPI   C3A 7703   7.608  17.213   8.140  0.3061 -0.0963  0.1253
  483POPI   C4A 7704   7.584  17.256   7.717 -0.2706 -0.0333  0.3077
  483POPI   C1B 7705   7.289  17.046   8.962  0.0605  0.0586 -0.2287
  483POPI   C2B 7706   7.322  16.864   8.557 -0.3794 -0.2726  0.1446
  483POPI   C3B 7707   7.276  16.715   8.094 -0.1405 -0.0490 -0.0113
  483POPI   C4B 7708   7.247  16.651   7.726 -0.0851 -0.0929  0.0315
  484POPI    C1 7709  10.583   0.121  10.088  0.2030 -0.1017 -0.0032
  484POPI    C2 7710  10.329  -0.034  10.357  0.1320  0.0987  0.0466
  484POPI    C3 7711  10.577   0.262  10.463  0.3291 -0.0394 -0.0245
  484POPI   PO4 7712  10.441   0.160   9.867  0.1910  0.1962 -0.2417
  484POPI   GL1 7713  10.223   0.369   9.465 -0.2398 -0.2027  0.0169
  484POPI   GL2 7714  10.331   0.656   9.322  0.0575  0.4698  0.0687
  484POPI   C1A 7715  10.001   0.187   9.035 -0.1322  0.0020  0.1326
  484POPI   D2A 7716   9.983   0.124   8.598 -0.4096  0.1616 -0.0348
  484POPI   C3A 7717   9.575   0.161   8.331 -0.0830 -0.0982 -0.3947
  484POPI   C4A 7718   9.502   0.266   7.914 -0.0672 -0.0630 -0.1094
  484POPI   C1B 7719  10.153   0.597   8.910 -0.1648 -0.2274 -0.0558
  484POPI   C2B 7720  10.211   0.581   8.474  0.4955  0.2916 -0.3059
  484POPI   C3B 7721  10.313   0.383   8.085 -0.4561  0.0252  0.2904
  484POPI   C4B 7722  10.422   0.039   7.774  0.0591  0.0940 -0.1342
  485POPI    C1 7723  15.407   8.903  10.255  0.0605  0.2315  0.1000
  485POPI    C2 7724  15.765   9.074  10.203  0.0898  0.0844 -0.1995
  485POPI    C3 7725  15.735   8.729  10.403  0.0864  0.2068  0.0140
  485POPI   PO4 7726  15.276   9.098  10.054  0.0814  0.1658  0.2612
  485POPI   GL1 7727  15.112   8.958   9.682 -0.1276  0.2255 -0.1337
  485POPI   GL2 7728  15.238   8.990   9.459  0.0903  0.0616  0.0795
  485POPI   C1A 7729  14.787   8.712   9.374  0.0437  0.4403 -0.1532
  485POPI   D2A 7730  14.654   8.486   9.069 -0.2463  0.2034 -0.1845
  485POPI   C3A 7731  14.291   8.377   8.788 -0.1297 -0.0703 -0.1133
  485POPI   C4A 7732  14.202   8.432   8.376  0.2075 -0.0655 -0.3910
  485POPI   C1B 7733  15.151   8.983   8.990 -0.1224  0.1663 -0.0581
  485POPI   C2B 7734  14.867   8.910   8.857  0.1173 -0.2737  0.2172
  485POPI   C3B 7735  14.820   8.906   8.397  0.0534 -0.2315 -0.3163
  485POPI   C4B 7736  14.535   8.972   8.090  0.1668 -0.1976 -0.1387
  486POPI    C1 7737   6.782   8.920   9.793  0.0687  0.0774  0.0716
  486POPI    C2 7738   6.583   8.736  10.087  0.1089 -0.1459 -0.0396
  486POPI    C3 7739   6.970   8.828  10.135  0.1154 -0.1819 -0.0216
  486POPI   PO4 7740   6.636   8.821   9.529 -0.1618 -0.3243  0.1366
  486POPI   GL1 7741   6.605   8.932   9.102 -0.1717  0.0138 -0.2307
  486POPI   GL2 7742   6.878   9.053   9.090 -0.0273  0.1239 -0.4350
  486POPI   C1A 7743   6.663   9.048   8.548 -0.2184 -0.0669  0.0728
  486POPI   D2A 7744   6.658   9.322   8.123  0.1873  0.0200 -0.0089
  486POPI   C3A 7745   6.659   9.031   7.703  0.1729  0.3466 -0.0097
  486POPI   C4A 7746   6.524   9.174   7.261  0.1689  0.0062 -0.1375
  486POPI   C1B 7747   7.086   9.132   8.745  0.2209 -0.1822 -0.1438
  486POPI   C2B 7748   7.197   9.353   8.340  0.0617  0.1844  0.0508
  486POPI   C3B 7749   7.147   9.423   7.847  0.3123 -0.0665  0.0206
  486POPI   C4B 7750   7.016   9.381   7.394  0.0474  0.2944 -0.2479
  487POPI    C1 7751  13.567   1.150  10.034  0.3114  0.1395  0.1658
  487POPI    C2 7752  13.428   1.314  10.371 -0.1047  0.0670  0.0358
  487POPI    C3 7753  13.609   0.958  10.382 -0.4482 -0.1087  0.1401
  487POPI   PO4 7754  13.684   1.357   9.906  0.2202 -0.2777 -0.0985
  487POPI   GL1 7755  13.806   1.583   9.581  0.0008  0.1384 -0.0179
  487POPI   GL2 7756  13.473   1.411   9.448 -0.0145  0.1389 -0.0747
  487POPI   C1A 7757  14.069   1.497   9.337 -0.0298 -0.0346 -0.2645
  487POPI   D2A 7758  14.071   1.472   8.988 -0.0405 -0.0809 -0.2801
  487POPI   C3A 7759  14.137   1.384   8.517 -0.1901 -0.2453 -0.2855
  487POPI   C4A 7760  14.007   1.564   8.166 -0.1615 -0.1417  0.1648
  487POPI   C1B 7761  13.577   1.563   9.111  0.2490  0.1548  0.0857
  487POPI   C2B 7762  13.492   1.511   8.695 -0.1594 -0.0463  0.2926
  487POPI   C3B 7763  13.453   1.537   8.229  0.0306 -0.2528  0.2027
  487POPI   C4B 7764  13.251   1.457   7.834 -0.1181  0.3012 -0.1192
  488POPI    C1 7765   2.714   8.141   9.725 -0.1647 -0.1867  0.1566
  488POPI    C2 7766   2.967   8.143  10.034  0.0292 -0.1021 -0.0002
  488POPI    C3 7767   2.612   8.323  10.066  0.1123  0.0434  0.1215
  488POPI   PO4 7768   2.776   7.985   9.568  0.1865 -0.1980 -0.0012
  488POPI   GL1 7769   2.767   7.914   9.174 -0.1327  0.1617 -0.0442
  488POPI   GL2 7770   2.997   7.673   9.155 -0.1016  0.0537  0.0102
  488POPI   C1A 7771   2.907   7.892   8.620 -0.1299  0.0093 -0.1251
  488POPI   D2A 7772   2.899   7.841   8.257  0.1696 -0.1698  0.0613
  488POPI   C3A 7773   2.775   8.051   8.097  0.0194 -0.2023 -0.3227
  488POPI   C4A 7774   3.116   8.306   7.936 -0.0050 -0.0707 -0.2264
  488POPI   C1B 7775   2.937   7.445   8.830  0.0164 -0.0667 -0.1802
  488POPI   C2B 7776   2.846   7.306   8.498 -0.2274 -0.1724 -0.2327
  488POPI   C3B 7777   2.984   7.207   8.197 -0.0849  0.0516 -0.0645
  488POPI   C4B 7778   2.874   7.316   7.728 -0.1025  0.0909  0.1040
  489POPI    C1 7779  15.721  12.607   9.913 -0.1598 -0.0619  0.0136
  489POPI    C2 7780  15.524  12.627  10.261 -0.0853 -0.1729  0.0625
  489POPI    C3 7781  15.802  12.345  10.204 -0.1510 -0.2031 -0.1149
  489POPI   PO4 7782  15.545  12.588   9.778  0.1834  0.0644  0.0174
  489POPI   GL1 7783  15.147  12.449   9.514 -0.0151  0.2734 -0.1138
  489POPI   GL2 7784  14.967  12.656   9.558 -0.2458  0.0376 -0.0295
  489POPI   C1A 7785  15.164  12.435   9.094  0.1672  0.4584 -0.0452
  489POPI   D2A 7786  14.931  12.566   8.802  0.4053  0.1410  0.0922
  489POPI   C3A 7787  15.044  12.429   8.331  0.1845 -0.0852 -0.0765
  489POPI   C4A 7788  15.071  12.206   7.942 -0.0250  0.2134  0.0602
  489POPI   C1B 7789  14.640  12.660   9.204 -0.2340  0.2794  0.0743
  489POPI   C2B 7790  14.444  12.645   8.761  0.1246 -0.1715 -0.4740
  489POPI   C3B 7791  14.444  12.429   8.375 -0.1111  0.0330  0.0651
  489POPI   C4B 7792  14.602  12.329   8.009  0.3023 -0.0077 -0.1642
  490POPI    C1 7793  10.759   6.422  10.031 -0.2645 -0.1506  0.0691
  490POPI    C2 7794  10.966   6.540  10.351  0.0919 -0.1203 -0.1666
  490POPI    C3 7795  10.567   6.553  10.356  0.0948 -0.0364  0.2409
  490POPI   PO4 7796  10.997   6.229   9.950  0.0367 -0.0900  0.2992
  490POPI   GL1 7797  11.239   6.276   9.635 -0.4696 -0.3149  0.1886
  490POPI   GL2 7798  11.411   6.318   9.396 -0.6322  0.0006  0.1370
  490POPI   C1A 7799  10.957   6.400   9.237 -0.0581 -0.0598 -0.0509
  490POPI   D2A 7800  10.771   6.308   8.850 -0.2102  0.2827 -0.0907
  490POPI   C3A 7801  10.913   6.486   8.500 -0.0790 -0.0425 -0.1911
  490POPI   C4A 7802  11.040   6.618   7.992  0.2208 -0.1705  0.1695
  490POPI   C1B 7803  11.360   6.415   8.905 -0.0141  0.2096  0.2169
  490POPI   C2B 7804  11.395   6.443   8.520 -0.1257  0.1235  0.0516
  490POPI   C3B 7805  11.388   6.246   8.107 -0.2018  0.0681  0.0117
  490POPI   C4B 7806  11.415   6.133   7.736 -0.0079  0.0926  0.3611
  491POPI    C1 7807  18.630  13.669   9.936  0.3817 -0.1645  0.0799
  491POPI    C2 7808  18.486  13.563  10.294  0.1195 -0.1193 -0.0101
  491POPI    C3 7809  18.740  13.871  10.263 -0.0947  0.0711  0.1025
  491POPI   PO4 7810  18.372  13.645   9.816  0.1483 -0.1170  0.0966
  491POPI   GL1 7811  18.271  13.477   9.536  0.0018 -0.0943 -0.0161
  491POPI   GL2 7812  18.068  13.501   9.289 -0.0102 -0.2943  0.1794
  491POPI   C1A 7813  18.564  13.363   9.209 -0.1328  0.3525  0.0111
  491POPI   D2A 7814  18.889  13.157   9.149  0.3671  0.1979  0.0653
  491POPI   C3A 7815  19.113  12.960   8.754  0.1715  0.2619  0.3641
  491POPI   C4A 7816  19.056  12.881   8.349  0.0800  0.5559 -0.0319
  491POPI   C1B 7817  18.241  13.647   8.895 -0.0017  0.2306  0.1083
  491POPI   C2B 7818  18.148  13.541   8.521 -0.2282 -0.0134 -0.0117
  491POPI   C3B 7819  18.204  13.704   8.186  0.3427 -0.1390  0.0863
  491POPI   C4B 7820  18.404  13.651   7.864 -0.0632  0.0391 -0.1663
  492POPI    C1 7821   5.905   9.086   9.439 -0.0539 -0.2528 -0.0342
  492POPI    C2 7822   5.518   9.012   9.510 -0.0216 -0.4331 -0.0432
  492POPI    C3 7823   5.741   9.194   9.788 -0.1638 -0.1325 -0.1217
  492POPI   PO4 7824   6.034   8.821   9.361 -0.0841  0.0174  0.1603
  492POPI   GL1 7825   6.114   8.691   8.939  0.0464 -0.1628 -0.1969
  492POPI   GL2 7826   5.940   8.453   8.965  0.0244  0.3301 -0.0622
  492POPI   C1A 7827   6.238   8.769   8.544  0.0080  0.1579  0.1376
  492POPI   D2A 7828   6.458   8.813   8.163 -0.1337 -0.0612  0.2010
  492POPI   C3A 7829   6.817   8.820   8.113 -0.2062  0.0787  0.0440
  492POPI   C4A 7830   7.022   8.534   7.864 -0.0085  0.0097 -0.0316
  492POPI   C1B 7831   5.911   8.344   8.570 -0.1253  0.0396  0.3078
  492POPI   C2B 7832   6.009   8.385   8.164 -0.0341 -0.2119 -0.0215
  492POPI   C3B 7833   6.379   8.497   7.774 -0.2568  0.1027  0.1997
  492POPI   C4B 7834   6.266   8.755   7.394  0.0337  0.2005 -0.1717
  493POPI    C1 7835  16.029   3.937  10.190  0.2954 -0.1429 -0.1538
  493POPI    C2 7836  16.283   3.926  10.499  0.0340  0.0838  0.0750
  493POPI    C3 7837  16.073   3.600  10.401 -0.1572  0.1127  0.3756
  493POPI   PO4 7838  16.148   3.952   9.974 -0.0867  0.2012  0.2148
  493POPI   GL1 7839  16.029   3.919   9.538  0.1378  0.0704  0.0527
  493POPI   GL2 7840  15.973   3.597   9.541 -0.2591  0.0283  0.2038
  493POPI   C1A 7841  16.040   4.132   9.181 -0.0588 -0.0007 -0.1698
  493POPI   D2A 7842  16.114   4.347   8.791  0.2867 -0.1536 -0.1536
  493POPI   C3A 7843  15.994   4.201   8.489 -0.1026 -0.0464  0.3754
  493POPI   C4A 7844  16.100   4.201   8.048 -0.3126 -0.1558 -0.3534
  493POPI   C1B 7845  15.694   3.647   9.278  0.0911 -0.0824  0.1263
  493POPI   C2B 7846  15.648   3.587   8.886  0.1117 -0.2261 -0.4526
  493POPI   C3B 7847  15.776   3.641   8.461  0.1348  0.0608  0.0743
  493POPI   C4B 7848  15.679   3.983   8.174  0.2718 -0.1234  0.0785
  494POPI    C1 7849   7.166  15.915  10.086  0.2327  0.0177  0.0522
  494POPI    C2 7850   7.015  16.106  10.403  0.1656 -0.0895  0.0856
  494POPI    C3 7851   7.074  15.711  10.417  0.0958 -0.1056 -0.0602
  494POPI   PO4 7852   7.102  15.933   9.870 -0.0041  0.0537  0.2449
  494POPI   GL1 7853   6.986  15.905   9.477 -0.4261  0.0886  0.1239
  494POPI   GL2 7854   7.321  15.882   9.443 -0.0360  0.2128 -0.3075
  494POPI   C1A 7855   6.946  16.177   9.071 -0.1378  0.3027  0.2097
  494POPI   D2A 7856   7.178  16.124   8.757 -0.0895 -0.2767 -0.0301
  494POPI   C3A 7857   7.210  16.144   8.309 -0.2136 -0.2909 -0.0389
  494POPI   C4A 7858   7.268  16.128   7.971 -0.2249  0.1737 -0.2535
  494POPI   C1B 7859   7.265  15.550   9.149 -0.0814  0.2115  0.1914
  494POPI   C2B 7860   7.238  15.482   8.709 -0.0671 -0.1096 -0.2432
  494POPI   C3B 7861   7.296  15.659   8.291 -0.2174  0.0479 -0.0216
  494POPI   C4B 7862   7.198  15.629   7.827  0.1454 -0.0477  0.0042
  495POPI    C1 7863  18.452   3.899  10.499 -0.0986  0.0169  0.0094
  495POPI    C2 7864  18.661   4.231  10.577  0.1541 -0.1627  0.1096
  495POPI    C3 7865  18.466   4.044  10.871  0.0413 -0.1238  0.0599
  495POPI   PO4 7866  18.585   3.783  10.288  0.0779 -0.0277 -0.1230
  495POPI   GL1 7867  18.626   3.681   9.845  0.0207  0.2093 -0.0932
  495POPI   GL2 7868  18.261   3.772   9.839  0.0539  0.1403 -0.1793
  495POPI   C1A 7869  18.725   3.880   9.436 -0.0287  0.0968  0.1068
  495POPI   D2A 7870  18.725   4.224   9.232  0.2054  0.0047 -0.1789
  495POPI   C3A 7871  18.573   4.461   8.896 -0.2491 -0.0045  0.1068
  495POPI   C4A 7872  18.548   4.731   8.521  0.1131  0.0229 -0.1640
  495POPI   C1B 7873  18.160   3.980   9.522 -0.2414  0.0840 -0.0435
  495POPI   C2B 7874  18.196   4.162   9.002  0.0716 -0.3913 -0.1065
  495POPI   C3B 7875  18.296   4.018   8.644 -0.0621  0.1094 -0.1912
  495POPI   C4B 7876  18.671   4.001   8.361  0.0147  0.0962 -0.2166
  496POPI    C1 7877  13.311   6.822  10.459  0.0522 -0.1714  0.1321
  496POPI    C2 7878  13.516   6.921  10.788  0.0259 -0.1249  0.1346
  496POPI    C3 7879  13.456   6.536  10.697  0.1833 -0.1397  0.0912
  496POPI   PO4 7880  13.440   6.924  10.260  0.0214 -0.3266  0.0831
  496POPI   GL1 7881  13.532   6.823   9.922  0.1872 -0.2267 -0.0805
  496POPI   GL2 7882  13.316   6.900   9.724  0.2634  0.0885  0.3348
  496POPI   C1A 7883  13.789   6.658   9.551  0.2001 -0.1192 -0.3564
  496POPI   D2A 7884  13.903   6.579   9.180  0.0851 -0.0770 -0.1943
  496POPI   C3A 7885  13.791   6.694   8.798  0.0098 -0.3996  0.1254
  496POPI   C4A 7886  13.729   6.487   8.359  0.0934 -0.1354  0.1270
  496POPI   C1B 7887  13.386   6.853   9.333 -0.0384  0.0738 -0.3143
  496POPI   C2B 7888  13.355   6.774   8.957 -0.1521  0.0497 -0.1149
  496POPI   C3B 7889  13.334   6.811   8.528 -0.0705  0.0333  0.0932
  496POPI   C4B 7890  13.267   6.630   8.115 -0.3256 -0.1787 -0.2192
  497POPI    C1 7891  16.844  12.390   9.897  0.0237 -0.2647 -0.0454
  497POPI    C2 7892  17.217  12.474   9.779 -0.0234 -0.0846 -0.0682
  497POPI    C3 7893  17.148  12.353  10.154  0.0741 -0.2495 -0.1027
  497POPI   PO4 7894  16.764  12.121   9.758  0.1372 -0.0602 -0.4052
  497POPI   GL1 7895  16.453  12.253   9.511  0.2489  0.4534  0.4492
  497POPI   GL2 7896  16.678  12.445   9.372  0.0083 -0.0596 -0.1285
  497POPI   C1A 7897  16.147  12.436   9.307 -0.0156 -0.1751 -0.1849
  497POPI   D2A 7898  15.717  12.395   9.274  0.1378  0.3098 -0.0155
  497POPI   C3A 7899  15.657  12.308   8.908  0.0664  0.0443 -0.0372
  497POPI   C4A 7900  15.930  12.092   8.716 -0.2036 -0.0413 -0.1501
  497POPI   C1B 7901  17.060  12.594   9.245  0.0082  0.0342 -0.0720
  497POPI   C2B 7902  17.128  12.429   8.851 -0.0256  0.0038 -0.0692
  497POPI   C3B 7903  17.129  12.451   8.339  0.1767  0.2027  0.0237
  497POPI   C4B 7904  17.391  12.560   7.971 -0.1226  0.0968  0.2249
  498POPI    C1 7905   2.943  17.532   9.710 -0.2199  0.1586 -0.0768
  498POPI    C2 7906   2.674  17.529   9.415 -0.0659  0.0311 -0.2183
  498POPI    C3 7907   2.842  17.187   9.535  0.0522  0.1131 -0.1486
  498POPI   PO4 7908   3.065  17.763   9.705  0.2640 -0.1142 -0.0846
  498POPI   GL1 7909   3.330  17.983   9.431 -0.2173  0.3488 -0.0003
  498POPI   GL2 7910   3.604  18.152   9.426 -0.0193  0.0776  0.0788
  498POPI   C1A 7911   3.125  17.992   8.954 -0.2865  0.3008  0.1312
  498POPI   D2A 7912   2.878  17.972   8.571 -0.1966  0.1008 -0.2353
  498POPI   C3A 7913   2.559  18.418   8.463  0.2549  0.1434 -0.1993
  498POPI   C4A 7914   2.204  18.522   8.482 -0.1080 -0.1381 -0.1178
  498POPI   C1B 7915   3.679  18.132   8.995  0.0346  0.1405  0.2610
  498POPI   C2B 7916   3.444  18.077   8.563  0.1797  0.2546 -0.1829
  498POPI   C3B 7917   3.123  18.289   8.284  0.4276 -0.0312  0.3215
  498POPI   C4B 7918   2.900  18.543   8.101 -0.4589 -0.2780 -0.1333
  499POPI    C1 7919  18.397   5.558  10.637  0.0004  0.1671  0.1313
  499POPI    C2 7920  18.777   5.467  10.724  0.1074  0.1214 -0.3554
  499POPI    C3 7921  18.483   5.217  10.828  0.2193  0.1017 -0.0784
  499POPI   PO4 7922  18.440   5.662  10.315 -0.0803  0.0602 -0.0375
  499POPI   GL1 7923  18.535   5.439   9.928  0.3056  0.2394 -0.0614
  499POPI   GL2 7924  18.353   5.137   9.757 -0.3172 -0.2235 -0.2043
  499POPI   C1A 7925  18.835   5.206   9.669 -0.2135  0.0943 -0.0062
  499POPI   D2A 7926  19.167   4.973   9.419 -0.1671 -0.0580  0.0208
  499POPI   C3A 7927  19.273   5.116   9.026  0.4176 -0.0203 -0.1711
  499POPI   C4A 7928  19.156   5.176   8.605 -0.1916 -0.0911 -0.3149
  499POPI   C1B 7929  18.389   5.400   9.425  0.1053 -0.4050 -0.3535
  499POPI   C2B 7930  18.343   5.537   8.987  0.3809 -0.0159 -0.0486
  499POPI   C3B 7931  18.312   5.577   8.486  0.2165 -0.0982 -0.0234
  499POPI   C4B 7932  18.383   5.885   8.088 -0.1501 -0.5143 -0.0365
  500POPI    C1 7933  13.949   4.078   9.974 -0.1005  0.0559 -0.0053
  500POPI    C2 7934  13.977   4.318  10.293  0.3022 -0.0843  0.0700
  500POPI    C3 7935  13.972   3.921  10.342  0.1228 -0.1023 -0.0846
  500POPI   PO4 7936  14.178   4.247   9.766  0.2461 -0.0886 -0.1626
  500POPI   GL1 7937  14.386   4.258   9.343  0.0311  0.3364  0.2551
  500POPI   GL2 7938  14.419   3.979   9.201 -0.2850 -0.3464  0.1959
  500POPI   C1A 7939  14.655   4.438   9.081  0.0964 -0.3014  0.1070
  500POPI   D2A 7940  14.898   4.425   8.704  0.0842  0.0845  0.0522
  500POPI   C3A 7941  14.762   4.420   8.263 -0.0732  0.2827  0.1417
  500POPI   C4A 7942  14.695   4.695   8.008 -0.3063 -0.2770 -0.0646
  500POPI   C1B 7943  14.315   4.046   8.690  0.1168 -0.2684 -0.0941
  500POPI   C2B 7944  14.308   3.961   8.237 -0.2649  0.1250  0.0607
  500POPI   C3B 7945  14.192   3.853   7.819 -0.0922 -0.0673 -0.0258
  500POPI   C4B 7946  13.724   3.997   7.575  0.1785 -0.0886  0.1765
  501POPI    C1 7947  11.057   3.554  10.226  0.1924 -0.0009  0.1161
  501POPI    C2 7948  10.859   3.902  10.238  0.2494  0.0365 -0.0075
  501POPI    C3 7949  10.711   3.580  10.425  0.0296  0.0428 -0.1670
  501POPI   PO4 7950  11.114   3.496   9.993  0.2549  0.0038  0.0795
  501POPI   GL1 7951  11.316   3.475   9.616  0.2085 -0.2255 -0.1752
  501POPI   GL2 7952  11.389   3.756   9.536 -0.1249 -0.0477 -0.2925
  501POPI   C1A 7953  11.107   3.498   9.157  0.1708 -0.3149 -0.0849
  501POPI   D2A 7954  11.119   3.628   8.754  0.2558 -0.0649 -0.1915
  501POPI   C3A 7955  11.232   3.774   8.415  0.0376 -0.0331 -0.2332
  501POPI   C4A 7956  11.028   3.906   8.072  0.2107 -0.3790  0.3713
  501POPI   C1B 7957  11.446   3.937   9.096  0.1445 -0.0409  0.3139
  501POPI   C2B 7958  11.593   4.097   8.702  0.0322  0.4932  0.0661
  501POPI   C3B 7959  11.449   4.226   8.253  0.0369 -0.1021  0.0072
  501POPI   C4B 7960  11.332   4.426   7.882 -0.3110  0.0887  0.0623
  502POPI    C1 7961  12.639  12.135  10.037 -0.1780 -0.0468  0.1152
  502POPI    C2 7962  12.425  11.860  10.235 -0.0332 -0.1145  0.1794
  502POPI    C3 7963  12.824  11.836  10.228 -0.0195  0.0940  0.1839
  502POPI   PO4 7964  12.605  12.160   9.778  0.2339  0.3426 -0.1182
  502POPI   GL1 7965  12.675  12.003   9.336 -0.3656  0.3683  0.0427
  502POPI   GL2 7966  12.918  12.173   9.312  0.3469  0.0801  0.0216
  502POPI   C1A 7967  12.764  11.831   8.960  0.1784  0.3320  0.1229
  502POPI   D2A 7968  12.651  11.751   8.605 -0.3335  0.3331  0.2995
  502POPI   C3A 7969  12.967  11.760   8.253  0.6211  0.1915 -0.1565
  502POPI   C4A 7970  12.937  11.786   7.894 -0.1319  0.1532 -0.3688
  502POPI   C1B 7971  13.235  12.065   9.060 -0.0825 -0.0988 -0.0664
  502POPI   C2B 7972  13.206  12.082   8.621  0.2856 -0.0843  0.1907
  502POPI   C3B 7973  13.225  12.128   8.126  0.0691 -0.0504 -0.0112
  502POPI   C4B 7974  13.294  12.088   7.696  0.0024 -0.2742  0.0178
  503POPI    C1 7975   1.385   8.740  10.092 -0.0223  0.1178  0.0093
  503POPI    C2 7976   1.457   9.132  10.122  0.2711  0.0659  0.0188
  503POPI    C3 7977   1.722   8.869  10.266  0.2903 -0.1421 -0.3826
  503POPI   PO4 7978   1.224   8.785   9.853 -0.1316  0.1603 -0.0131
  503POPI   GL1 7979   1.443   9.029   9.580 -0.0427 -0.2142  0.1034
  503POPI   GL2 7980   1.665   8.982   9.342 -0.1422  0.1257  0.0289
  503POPI   C1A 7981   1.197   9.441   9.384 -0.3543  0.0665  0.1487
  503POPI   D2A 7982   1.099   9.599   8.973  0.2135  0.2860  0.1412
  503POPI   C3A 7983   1.239   9.365   8.586  0.0793 -0.2524  0.2223
  503POPI   C4A 7984   1.302   9.285   8.182 -0.1719 -0.1709  0.1491
  503POPI   C1B 7985   1.238   9.011   9.071 -0.1142  0.0704  0.1113
  503POPI   C2B 7986   1.213   8.819   8.603  0.0571 -0.0447  0.0663
  503POPI   C3B 7987   1.181   8.646   8.165  0.0080 -0.2784  0.0627
  503POPI   C4B 7988   1.086   8.598   7.729  0.1058 -0.0858 -0.0463
  504POPI    C1 7989   2.680   6.390   9.952  0.2257  0.0252 -0.1570
  504POPI    C2 7990   2.538   6.491  10.312 -0.0786 -0.2606 -0.1924
  504POPI    C3 7991   2.912   6.356  10.276  0.1483  0.3068 -0.0686
  504POPI   PO4 7992   2.454   6.295   9.777 -0.1302  0.0377 -0.1895
  504POPI   GL1 7993   2.229   6.355   9.449  0.3529  0.3518 -0.0073
  504POPI   GL2 7994   2.051   6.479   9.547  0.0671 -0.1553  0.1655
  504POPI   C1A 7995   2.404   6.409   9.060  0.0434 -0.2409  0.1969
  504POPI   D2A 7996   2.481   6.530   8.694 -0.0826 -0.0639  0.0915
  504POPI   C3A 7997   2.489   6.364   8.323 -0.3621 -0.0462 -0.1709
  504POPI   C4A 7998   2.730   6.543   7.979  0.0135 -0.1380 -0.1818
  504POPI   C1B 7999   2.018   6.845   9.397 -0.2569  0.1733 -0.4269
  504POPI   C2B 8000   1.989   7.130   9.005 -0.3434  0.1659  0.0827
  504POPI   C3B 8001   1.824   7.410   8.724  0.3608  0.1316  0.3281
  504POPI   C4B 8002   1.718   7.571   8.345 -0.0555  0.0826  0.0462
  505POPI    C1 8003  11.351  13.305  10.134  0.2580 -0.0825 -0.1565
  505POPI    C2 8004  11.746  13.364  10.134  0.2561 -0.0514  0.1841
  505POPI    C3 8005  11.506  13.616  10.331  0.0729 -0.1185  0.0497
  505POPI   PO4 8006  11.258  13.282   9.931  0.0880 -0.0146  0.0781
  505POPI   GL1 8007  11.065  13.282   9.407  0.3019 -0.1273 -0.1555
  505POPI   GL2 8008  11.065  12.909   9.568  0.0033  0.3120 -0.0106
  505POPI   C1A 8009  11.381  13.279   9.175  0.1265 -0.0252 -0.1306
  505POPI   D2A 8010  11.662  13.566   9.134 -0.2008  0.3712  0.1754
  505POPI   C3A 8011  11.804  13.695   8.694  0.2967  0.2347  0.0164
  505POPI   C4A 8012  11.910  13.569   8.361  0.0777 -0.2598 -0.0596
  505POPI   C1B 8013  11.176  12.816   9.135  0.1236 -0.2064 -0.0866
  505POPI   C2B 8014  11.136  13.041   8.789  0.5309  0.1707 -0.0444
  505POPI   C3B 8015  11.147  13.114   8.341 -0.0172  0.1461  0.0487
  505POPI   C4B 8016  11.144  13.381   8.078  0.0341 -0.1812  0.0492
  506POPI    C1 8017   3.083  14.917   9.821 -0.0110 -0.0668  0.2724
  506POPI    C2 8018   2.756  15.098   9.965 -0.0783  0.1238 -0.1081
  506POPI    C3 8019   3.001  15.294   9.716  0.2465 -0.0687  0.0522
  506POPI   PO4 8020   2.979  14.756   9.688  0.1079 -0.1182 -0.0541
  506POPI   GL1 8021   3.067  14.781   9.304 -0.1316 -0.1634 -0.0248
  506POPI   GL2 8022   3.141  15.124   9.269  0.2814 -0.0090  0.2550
  506POPI   C1A 8023   3.312  14.673   9.010  0.2548  0.1016  0.0651
  506POPI   D2A 8024   2.961  14.491   8.872 -0.0764  0.0968 -0.1359
  506POPI   C3A 8025   2.967  14.404   8.417 -0.3515 -0.0594  0.3112
  506POPI   C4A 8026   3.203  14.786   8.188  0.0354 -0.0434 -0.1765
  506POPI   C1B 8027   3.280  15.165   8.860 -0.1341 -0.4934  0.0839
  506POPI   C2B 8028   3.375  15.170   8.475  0.0401 -0.5093 -0.2130
  506POPI   C3B 8029   3.567  15.041   8.097 -0.4131  0.1710 -0.0555
  506POPI   C4B 8030   3.613  14.843   7.702  0.1576 -0.3580 -0.1955
  507POPI    C1 8031   0.090   1.812  10.231 -0.0615  0.2085 -0.0331
  507POPI    C2 8032   0.181   2.201  10.209  0.1657  0.1589  0.0033
  507POPI    C3 8033  -0.199   2.087  10.255  0.1350  0.3894  0.3622
  507POPI   PO4 8034   0.190   1.710  10.036  0.0839  0.0584  0.0385
  507POPI   GL1 8035   0.198   1.663   9.635 -0.1900  0.4231  0.1739
  507POPI   GL2 8036  -0.039   1.813   9.458  0.1236  0.0536 -0.0541
  507POPI   C1A 8037   0.126   1.470   9.111  0.0901  0.0079  0.0490
  507POPI   D2A 8038  -0.016   1.576   8.728 -0.2859 -0.2474  0.2247
  507POPI   C3A 8039   0.181   1.619   8.312 -0.0314  0.0312  0.0595
  507POPI   C4A 8040   0.120   1.711   7.859  0.1609  0.0892  0.1943
  507POPI   C1B 8041  -0.233   1.871   9.088 -0.4196 -0.0220  0.0031
  507POPI   C2B 8042  -0.296   1.965   8.614 -0.0703 -0.1315 -0.1854
  507POPI   C3B 8043  -0.241   2.015   8.236 -0.0330  0.2972 -0.2211
  507POPI   C4B 8044  -0.383   1.960   7.839  0.1238  0.0047  0.1798
  508POPI    C1 8045  14.637   7.677  10.650  0.2745  0.0668  0.0704
  508POPI    C2 8046  14.710   7.675  11.043 -0.0910  0.2508  0.1438
  508POPI    C3 8047  14.347   7.577  10.907  0.0481  0.1368 -0.1531
  508POPI   PO4 8048  15.010   7.924  10.632  0.2275  0.0087  0.0101
  508POPI   GL1 8049  15.026   8.087  10.281  0.0387  0.1831  0.3173
  508POPI   GL2 8050  15.296   8.085   9.930 -0.0122  0.1734  0.2802
  508POPI   C1A 8051  14.806   8.159   9.895  0.0038  0.1110 -0.2769
  508POPI   D2A 8052  14.775   8.246   9.495 -0.1181  0.2236 -0.3602
  508POPI   C3A 8053  14.852   7.905   9.237  0.0717 -0.2228 -0.3063
  508POPI   C4A 8054  14.766   8.054   8.825 -0.1277 -0.0248  0.4316
  508POPI   C1B 8055  15.309   8.329   9.577  0.1956  0.2130 -0.4204
  508POPI   C2B 8056  15.209   8.510   9.237 -0.0428 -0.1467  0.0639
  508POPI   C3B 8057  15.161   8.477   8.800 -0.1469 -0.1184 -0.0355
  508POPI   C4B 8058  14.955   8.459   8.436  0.0931 -0.2706  0.0644
  509POPI    C1 8059   9.047   0.989  10.071 -0.0091  0.2850  0.0836
  509POPI    C2 8060   8.754   1.230  10.199 -0.1857  0.0773  0.0771
  509POPI    C3 8061   9.075   1.165  10.429 -0.2180  0.1822  0.1525
  509POPI   PO4 8062   8.916   0.971   9.824 -0.0498  0.1989 -0.1365
  509POPI   GL1 8063   8.796   1.309   9.394 -0.2505  0.1036 -0.0078
  509POPI   GL2 8064   8.422   1.374   9.253 -0.0712  0.1523  0.1438
  509POPI   C1A 8065   8.949   1.265   9.062 -0.1254  0.2613  0.0995
  509POPI   D2A 8066   8.914   1.316   8.641  0.0661 -0.0815 -0.5133
  509POPI   C3A 8067   8.779   1.038   8.362  0.2048  0.2226 -0.1204
  509POPI   C4A 8068   8.574   0.747   8.040  0.1561 -0.2593 -0.0892
  509POPI   C1B 8069   8.438   1.395   8.867 -0.2861  0.0667  0.0541
  509POPI   C2B 8070   8.409   1.399   8.472 -0.3430 -0.1111  0.2568
  509POPI   C3B 8071   8.344   1.401   8.085  0.0242  0.4183 -0.0892
  509POPI   C4B 8072   8.409   1.351   7.674  0.0679 -0.0353  0.0137
  510POPI    C1 8073   5.511   1.535  10.314  0.0850  0.0905 -0.2998
  510POPI    C2 8074   5.741   1.792  10.517  0.0736 -0.1075 -0.0304
  510POPI    C3 8075   5.877   1.425  10.434 -0.1866 -0.2697  0.2402
  510POPI   PO4 8076   5.408   1.622  10.071 -0.1404  0.1122 -0.1559
  510POPI   GL1 8077   5.381   1.682   9.671 -0.0101  0.0116  0.2656
  510POPI   GL2 8078   5.051   1.550   9.515 -0.0153  0.0797  0.2216
  510POPI   C1A 8079   5.464   1.590   9.205 -0.2424 -0.1689  0.2537
  510POPI   D2A 8080   5.681   1.401   8.910  0.3280  0.5600  0.0323
  510POPI   C3A 8081   5.758   1.442   8.452 -0.0270  0.1525 -0.2175
  510POPI   C4A 8082   5.871   1.411   8.070 -0.1805 -0.1098  0.0412
  510POPI   C1B 8083   4.863   1.439   9.026  0.0737 -0.3313 -0.2438
  510POPI   C2B 8084   4.562   1.261   8.831 -0.1565 -0.3420 -0.2870
  510POPI   C3B 8085   4.306   1.293   8.435 -0.1237  0.0354 -0.0086
  510POPI   C4B 8086   4.072   1.015   8.134  0.0535  0.0362  0.1864
  511POPI    C1 8087  13.387   8.764  10.381 -0.2787 -0.0211  0.2134
  511POPI    C2 8088  13.569   8.912  10.705  0.0322  0.0721  0.0007
  511POPI    C3 8089  13.356   9.153  10.468  0.0419  0.0613 -0.0191
  511POPI   PO4 8090  13.620   8.607  10.293  0.0719 -0.1090  0.1078
  511POPI   GL1 8091  13.837   8.508   9.991 -0.2745  0.1175  0.0389
  511POPI   GL2 8092  13.620   8.444   9.809  0.0914 -0.1189  0.1376
  511POPI   C1A 8093  14.066   8.655   9.579  0.1445 -0.0876  0.0825
  511POPI   D2A 8094  14.262   8.736   9.175  0.3323  0.2684  0.3300
  511POPI   C3A 8095  14.433   9.123   9.126 -0.1630  0.3301 -0.0880
  511POPI   C4A 8096  14.475   9.555   9.054  0.0637  0.2549 -0.0778
  511POPI   C1B 8097  13.789   8.321   9.320  0.1436 -0.0864 -0.1101
  511POPI   C2B 8098  13.806   8.368   8.914  0.1260  0.0866  0.0280
  511POPI   C3B 8099  13.671   8.356   8.492 -0.1463 -0.0072  0.0520
  511POPI   C4B 8100  13.616   8.358   8.120 -0.1273 -0.2353 -0.4480
  512POPI    C1 8101  10.694  17.050  10.039 -0.3682 -0.1221  0.1881
  512POPI    C2 8102  10.505  17.389  10.133 -0.0158  0.0560  0.2697
  512POPI    C3 8103  10.837  17.284  10.330 -0.0191 -0.2450  0.1201
  512POPI   PO4 8104  10.751  17.084   9.824  0.1269  0.0392 -0.1697
  512POPI   GL1 8105  10.994  17.108   9.425 -0.0909 -0.0512 -0.1363
  512POPI   GL2 8106  11.172  17.371   9.439  0.3641 -0.0984 -0.1018
  512POPI   C1A 8107  10.981  17.020   9.023 -0.1697 -0.0538 -0.0168
  512POPI   D2A 8108  10.910  17.134   8.549 -0.1131 -0.2940 -0.4611
  512POPI   C3A 8109  10.832  16.869   8.252 -0.0847  0.0508 -0.0888
  512POPI   C4A 8110  10.834  16.822   7.778 -0.1706  0.0572 -0.1634
  512POPI   C1B 8111  11.301  17.489   9.084 -0.0233 -0.2344  0.2716
  512POPI   C2B 8112  11.221  17.577   8.728 -0.2757 -0.0729  0.2203
  512POPI   C3B 8113  11.227  17.452   8.323 -0.0781  0.0816  0.1109
  512POPI   C4B 8114  11.065  17.260   8.029  0.0193  0.2231  0.0846
  513POPI    C1 8115  16.720   2.506  10.113 -0.0954  0.1498 -0.0119
  513POPI    C2 8116  16.727   2.373  10.490  0.1516  0.1265 -0.0228
  513POPI    C3 8117  16.449   2.637  10.376 -0.0728 -0.0485  0.1117
  513POPI   PO4 8118  16.683   2.250   9.925  0.0941 -0.0776  0.2916
  513POPI   GL1 8119  16.803   2.096   9.532 -0.2484 -0.0963 -0.2651
  513POPI   GL2 8120  16.829   1.820   9.661 -0.0334 -0.0901 -0.1240
  513POPI   C1A 8121  16.857   2.074   9.093 -0.0375  0.1859 -0.0355
  513POPI   D2A 8122  17.138   2.320   8.867 -0.1855  0.1455 -0.2505
  513POPI   C3A 8123  17.246   2.222   8.506  0.2367 -0.0797  0.3832
  513POPI   C4A 8124  17.313   2.305   8.077  0.0348  0.1558  0.2449
  513POPI   C1B 8125  16.723   1.539   9.388 -0.0624  0.2913 -0.4853
  513POPI   C2B 8126  16.572   1.538   8.947 -0.2114 -0.3977 -0.2367
  513POPI   C3B 8127  16.555   1.706   8.488 -0.3426  0.1631 -0.1937
  513POPI   C4B 8128  16.411   1.726   8.033  0.1200 -0.1850  0.0930
  514POPI    C1 8129  11.740   8.504  10.141 -0.0294 -0.1988 -0.0190
  514POPI    C2 8130  11.511   8.429  10.461  0.1282  0.1163  0.1725
  514POPI    C3 8131  11.910   8.438  10.498  0.1403  0.3418  0.0099
  514POPI   PO4 8132  11.677   8.401   9.975 -0.2558 -0.0309  0.1609
  514POPI   GL1 8133  11.792   8.478   9.625  0.3179  0.0801 -0.0762
  514POPI   GL2 8134  11.454   8.685   9.535 -0.1039  0.2574  0.0833
  514POPI   C1A 8135  12.076   8.612   9.279  0.0620  0.1124  0.1467
  514POPI   D2A 8136  12.001   8.501   8.816  0.0193 -0.1523 -0.0649
  514POPI   C3A 8137  11.683   8.278   8.614 -0.1886  0.1916 -0.1830
  514POPI   C4A 8138  11.702   8.183   8.230  0.0015 -0.3907 -0.3015
  514POPI   C1B 8139  11.487   8.456   9.158 -0.0547  0.0623  0.0848
  514POPI   C2B 8140  11.288   8.398   8.787 -0.1175  0.0561 -0.1721
  514POPI   C3B 8141  11.290   8.420   8.320 -0.3243  0.1852  0.1079
  514POPI   C4B 8142  10.991   8.527   8.006  0.0916  0.1310  0.0707
  515POPI    C1 8143  10.949   8.348  10.128 -0.0869  0.0842  0.0645
  515POPI    C2 8144  10.943   8.324  10.527 -0.3106 -0.0817  0.0528
  515POPI    C3 8145  11.025   7.999  10.308  0.4596  0.1470 -0.0273
  515POPI   PO4 8146  11.108   8.504  10.019  0.0614  0.2318  0.1776
  515POPI   GL1 8147  10.985   8.577   9.546 -0.2711  0.0340 -0.1332
  515POPI   GL2 8148  10.988   8.912   9.589 -0.3444  0.1958 -0.0386
  515POPI   C1A 8149  11.029   8.321   9.215  0.0485  0.1963  0.0786
  515POPI   D2A 8150  11.041   7.975   8.998 -0.1087 -0.4151  0.2071
  515POPI   C3A 8151  11.251   7.889   8.831 -0.5636  0.2201  0.1157
  515POPI   C4A 8152  11.369   7.840   8.400  0.1401 -0.3012  0.0572
  515POPI   C1B 8153  11.050   8.969   9.173 -0.5053 -0.0771 -0.3997
  515POPI   C2B 8154  11.106   8.838   8.708 -0.0140 -0.1291  0.1644
  515POPI   C3B 8155  11.246   8.996   8.226  0.1901 -0.1752  0.1388
  515POPI   C4B 8156  11.556   9.205   7.920 -0.2393 -0.0760  0.3412
  516POPI    C1 8157   4.688   6.412   9.720 -0.0149 -0.0427 -0.1257
  516POPI    C2 8158   4.500   6.062   9.771  0.1021 -0.0690  0.1414
  516POPI    C3 8159   4.527   6.320  10.075  0.1360  0.1142 -0.0154
  516POPI   PO4 8160   4.626   6.493   9.371 -0.0152  0.1574 -0.1112
  516POPI   GL1 8161   4.493   6.233   9.153 -0.0668  0.0334 -0.1698
  516POPI   GL2 8162   4.451   6.051   8.905  0.0480 -0.1641  0.4203
  516POPI   C1A 8163   4.593   6.518   8.713 -0.1488 -0.0927  0.1963
  516POPI   D2A 8164   4.678   6.689   8.315 -0.1787 -0.2921  0.1023
  516POPI   C3A 8165   4.915   6.518   7.981  0.1302 -0.0694  0.1098
  516POPI   C4A 8166   4.765   6.371   7.555  0.2070  0.0461  0.1797
  516POPI   C1B 8167   4.395   6.174   8.424  0.2226  0.1609  0.0050
  516POPI   C2B 8168   4.401   6.374   7.893  0.2847  0.0754  0.2283
  516POPI   C3B 8169   4.135   6.596   7.555 -0.2378 -0.0222  0.2623
  516POPI   C4B 8170   3.802   6.566   7.196  0.0456 -0.1193 -0.2349
  517POPI    C1 8171   2.810   3.116  10.066  0.2444 -0.2169  0.0926
  517POPI    C2 8172   2.665   2.748  10.008 -0.2688  0.0121 -0.1399
  517POPI    C3 8173   2.526   2.972  10.309  0.1039 -0.0101  0.0540
  517POPI   PO4 8174   2.791   3.195   9.799 -0.0484 -0.1103 -0.1385
  517POPI   GL1 8175   2.900   3.237   9.306  0.1098 -0.3915 -0.2490
  517POPI   GL2 8176   3.114   2.881   9.256 -0.1693 -0.0150  0.0888
  517POPI   C1A 8177   2.929   3.089   8.845  0.2965 -0.1160 -0.0009
  517POPI   D2A 8178   3.117   2.954   8.500  0.1017 -0.2757  0.3473
  517POPI   C3A 8179   3.170   2.667   8.631 -0.0705  0.1911 -0.0613
  517POPI   C4A 8180   3.232   2.213   8.796 -0.1957  0.2086  0.0089
  517POPI   C1B 8181   3.421   2.844   8.988 -0.1829  0.0898  0.2512
  517POPI   C2B 8182   3.624   3.080   8.611 -0.2839  0.3794 -0.1417
  517POPI   C3B 8183   3.952   3.162   8.345  0.0830 -0.1835  0.2468
  517POPI   C4B 8184   4.328   3.128   8.086 -0.1123 -0.1558 -0.1537
  518POPI    C1 8185  16.371  17.502  10.535 -0.0538 -0.1816 -0.1307
  518POPI    C2 8186  16.418  17.231  10.826  0.0415  0.0242  0.0479
  518POPI    C3 8187  16.737  17.416  10.670 -0.0231  0.0375 -0.0699
  518POPI   PO4 8188  16.294  17.407  10.315 -0.3001 -0.1443 -0.1195
  518POPI   GL1 8189  16.236  17.531   9.921 -0.2254  0.0623  0.3890
  518POPI   GL2 8190  16.521  17.379   9.832  0.0222  0.2018 -0.0740
  518POPI   C1A 8191  16.151  17.379   9.477 -0.1559 -0.0515  0.2920
  518POPI   D2A 8192  16.312  17.574   9.186 -0.1211 -0.1401 -0.0253
  518POPI   C3A 8193  16.265  17.484   8.807 -0.2365  0.1093 -0.0991
  518POPI   C4A 8194  16.286  17.312   8.226 -0.2515  0.2998 -0.1751
  518POPI   C1B 8195  16.644  17.283   9.436 -0.0081 -0.1664  0.0356
  518POPI   C2B 8196  16.849  17.403   9.083  0.1336 -0.0218  0.0133
  518POPI   C3B 8197  16.701  17.195   8.735  0.0270  0.3115 -0.0590
  518POPI   C4B 8198  16.632  16.999   8.501 -0.0913  0.0559  0.0762
  519POPI    C1 8199   2.479  12.802   9.605  0.2335 -0.1592 -0.1131
  519POPI    C2 8200   2.151  12.879   9.821  0.0438 -0.2006 -0.3815
  519POPI    C3 8201   2.409  12.598   9.942  0.2435  0.1741  0.0944
  519POPI   PO4 8202   2.521  13.021   9.491 -0.0700 -0.0526  0.0843
  519POPI   GL1 8203   2.457  13.064   9.043  0.0484  0.3344  0.1426
  519POPI   GL2 8204   2.182  12.813   9.039  0.2920 -0.0295 -0.3750
  519POPI   C1A 8205   2.490  13.084   8.638  0.4601 -0.1535  0.0340
  519POPI   D2A 8206   2.617  13.050   8.209  0.3300 -0.4340 -0.0917
  519POPI   C3A 8207   2.775  12.996   7.860 -0.4278  0.0165 -0.0037
  519POPI   C4A 8208   3.082  13.234   7.569  0.3440  0.0619 -0.1968
  519POPI   C1B 8209   2.176  12.563   8.731 -0.0965 -0.0564  0.0667
  519POPI   C2B 8210   2.070  12.519   8.376  0.0252  0.0261 -0.1386
  519POPI   C3B 8211   1.996  12.306   7.975 -0.1915 -0.1704 -0.1787
  519POPI   C4B 8212   2.189  12.269   7.564 -0.2751 -0.2044  0.2990
  520POPI    C1 8213   3.504   5.137   9.632 -0.0891  0.0085 -0.0076
  520POPI    C2 8214   3.451   4.768   9.776 -0.2993  0.0461  0.0143
  520POPI    C3 8215   3.143   5.023   9.761 -0.1905  0.1702 -0.1438
  520POPI   PO4 8216   3.720   5.057   9.404  0.0243  0.0454  0.1219
  520POPI   GL1 8217   3.630   4.708   9.211  0.2458 -0.2433 -0.0768
  520POPI   GL2 8218   3.906   4.620   9.126 -0.0071 -0.2362  0.1528
  520POPI   C1A 8219   3.471   4.780   8.918 -0.1307 -0.0793  0.1683
  520POPI   D2A 8220   3.693   4.745   8.530 -0.0611  0.0929 -0.2673
  520POPI   C3A 8221   3.578   4.859   8.062  0.0638  0.1022  0.0819
  520POPI   C4A 8222   3.559   5.090   7.636  0.2714 -0.0844  0.2483
  520POPI   C1B 8223   4.077   4.375   8.742  0.0198 -0.0587  0.1622
  520POPI   C2B 8224   4.194   4.591   8.423 -0.0278  0.0003  0.1136
  520POPI   C3B 8225   4.042   4.712   8.000  0.0529 -0.2826 -0.4033
  520POPI   C4B 8226   3.951   4.738   7.533  0.4058  0.3193 -0.0478
  521POPI    C1 8227  12.175   5.214  10.545  0.0138 -0.1004  0.0248
  521POPI    C2 8228  12.465   5.150  10.813 -0.0480 -0.0576  0.1022
  521POPI    C3 8229  12.084   5.071  10.908 -0.0582 -0.1469 -0.0112
  521POPI   PO4 8230  12.173   5.095  10.331 -0.2375  0.0063 -0.0197
  521POPI   GL1 8231  12.145   5.259   9.936  0.1812 -0.1440  0.1670
  521POPI   GL2 8232  11.828   5.267   9.731  0.3393  0.0099 -0.2024
  521POPI   C1A 8233  12.247   5.254   9.433 -0.1752 -0.2503  0.1143
  521POPI   D2A 8234  12.433   5.434   9.136  0.0988 -0.2225 -0.0367
  521POPI   C3A 8235  12.545   5.808   8.895 -0.1542  0.3364 -0.1776
  521POPI   C4A 8236  12.529   6.318   8.683 -0.0671 -0.0364 -0.0149
  521POPI   C1B 8237  11.899   4.786   9.823 -0.2298  0.1122 -0.2167
  521POPI   C2B 8238  12.147   4.437   9.566  0.0333  0.1847 -0.1837
  521POPI   C3B 8239  12.430   4.062   9.439 -0.3454 -0.1218  0.1903
  521POPI   C4B 8240  12.433   3.715   9.120 -0.1522  0.0598  0.0325
  522POPI    C1 8241   9.622  11.923  10.372 -0.0444 -0.2134 -0.0981
  522POPI    C2 8242   9.586  11.869  10.767 -0.1501 -0.1997 -0.1058
  522POPI    C3 8243   9.913  12.045  10.618 -0.1950 -0.0311 -0.0081
  522POPI   PO4 8244   9.487  11.814  10.170  0.1750  0.2872  0.1209
  522POPI   GL1 8245   9.463  11.596   9.841  0.0234 -0.0509  0.0134
  522POPI   GL2 8246   9.739  11.449   9.681  0.2697 -0.1157 -0.0624
  522POPI   C1A 8247   9.346  11.533   9.353  0.0880  0.0272 -0.0499
  522POPI   D2A 8248   9.142  11.445   9.198 -0.1362  0.0104  0.4863
  522POPI   C3A 8249   9.319  11.581   8.713 -0.2086  0.1892 -0.3787
  522POPI   C4A 8250   9.358  11.415   8.395 -0.3113  0.3694 -0.0046
  522POPI   C1B 8251   9.932  11.210   9.275 -0.2458 -0.0014 -0.2800
  522POPI   C2B 8252  10.145  11.156   8.879 -0.3203 -0.3014 -0.3117
  522POPI   C3B 8253  10.322  10.982   8.553 -0.1936 -0.0680  0.0944
  522POPI   C4B 8254  10.341  11.041   8.103  0.2775  0.0023 -0.0251
  523POPI    C1 8255  16.789   4.726  10.270  0.0052  0.0130 -0.2066
  523POPI    C2 8256  16.745   4.406  10.506 -0.1602  0.2759  0.1270
  523POPI    C3 8257  17.060   4.647  10.553 -0.1216  0.2538 -0.0142
  523POPI   PO4 8258  16.605   4.907  10.260 -0.3113 -0.0501 -0.0645
  523POPI   GL1 8259  16.646   5.188   9.883  0.1741 -0.0444 -0.3684
  523POPI   GL2 8260  16.414   5.197   9.821  0.2470 -0.1434 -0.0843
  523POPI   C1A 8261  16.669   4.845   9.490  0.2775 -0.2875  0.0263
  523POPI   D2A 8262  16.732   4.416   9.352  0.0417  0.1276  0.2407
  523POPI   C3A 8263  16.567   4.283   8.981 -0.2944  0.3950  0.0536
  523POPI   C4A 8264  16.585   4.153   8.541 -0.2259  0.1343  0.0039
  523POPI   C1B 8265  16.242   5.126   9.486  0.0657  0.2023  0.4921
  523POPI   C2B 8266  15.982   5.120   9.082 -0.1318 -0.2778 -0.0670
  523POPI   C3B 8267  16.025   4.957   8.646  0.1769  0.0557  0.0868
  523POPI   C4B 8268  16.127   5.338   8.423  0.1013 -0.1038 -0.4053
  524DPPI    C1 8269  12.594   0.328  10.083  0.0123 -0.1180 -0.0621
  524DPPI    C2 8270  12.489   0.403  10.461 -0.1437  0.0277 -0.1326
  524DPPI    C3 8271  12.362   0.070  10.281 -0.1826  0.0251 -0.1006
  524DPPI   PO4 8272  12.576   0.499  10.002 -0.1921  0.0140  0.0062
  524DPPI   GL1 8273  12.810   0.690   9.623 -0.2618  0.1741  0.2769
  524DPPI   GL2 8274  12.512   0.835   9.614 -0.1467  0.2888 -0.0109
  524DPPI   C1A 8275  12.971   0.643   9.105 -0.1721 -0.0538 -0.4634
  524DPPI   C2A 8276  13.017   0.495   8.788 -0.2295 -0.0066 -0.1248
  524DPPI   C3A 8277  13.125   0.198   8.703 -0.1136  0.0335  0.1150
  524DPPI   C4A 8278  13.211  -0.019   8.321 -0.1417  0.0577 -0.0030
  524DPPI   C1B 8279  12.524   0.486   9.170 -0.1772  0.2353  0.2333
  524DPPI   C2B 8280  12.514   0.451   8.794 -0.1750  0.3084 -0.3149
  524DPPI   C3B 8281  12.722   0.389   8.392  0.0228 -0.2392 -0.2320
  524DPPI   C4B 8282  13.168   0.491   8.303 -0.1882 -0.2708  0.0889
  525DPPI    C1 8283  12.220  18.455  10.321  0.1724  0.1974 -0.0465
  525DPPI    C2 8284  11.963  18.761  10.335  0.3112  0.3143 -0.0215
  525DPPI    C3 8285  12.082  18.584  10.674 -0.0406 -0.0007 -0.0550
  525DPPI   PO4 8286  12.336  18.496  10.078  0.0244 -0.2363 -0.2303
  525DPPI   GL1 8287  12.240  18.263   9.680 -0.0294 -0.0081  0.0327
  525DPPI   GL2 8288  12.279  18.437   9.478 -0.2663  0.2840  0.4706
  525DPPI   C1A 8289  12.063  18.026   9.340  0.1513 -0.3052 -0.1079
  525DPPI   C2A 8290  12.020  17.952   8.906 -0.1814 -0.0973 -0.2108
  525DPPI   C3A 8291  11.954  17.894   8.450  0.1252 -0.2525 -0.4403
  525DPPI   C4A 8292  12.102  18.082   8.106  0.3303 -0.0116  0.1615
  525DPPI   C1B 8293  12.440  18.242   9.134  0.0175  0.0249  0.0369
  525DPPI   C2B 8294  12.559  18.420   8.718 -0.0198  0.0423  0.4764
  525DPPI   C3B 8295  12.557  18.276   8.277 -0.1581  0.0205 -0.2687
  525DPPI   C4B 8296  12.434  18.403   7.803 -0.0250 -0.0664 -0.0544
  526DPPI    C1 8297  17.447   2.077   9.915 -0.0040 -0.2214  0.1164
  526DPPI    C2 8298  17.120   2.138  10.136 -0.0761 -0.0265 -0.0411
  526DPPI    C3 8299  17.460   2.331  10.223 -0.0733 -0.0360 -0.0311
  526DPPI   PO4 8300  17.320   2.157   9.621 -0.2088 -0.0578  0.0006
  526DPPI   GL1 8301  17.389   2.139   9.259 -0.1298 -0.3067 -0.0359
  526DPPI   GL2 8302  17.750   2.186   9.277  0.1308  0.1363  0.0193
  526DPPI   C1A 8303  17.580   1.790   8.914  0.3247 -0.1296  0.1061
  526DPPI   C2A 8304  17.582   1.802   8.480  0.2830  0.0993  0.3175
  526DPPI   C3A 8305  17.629   1.920   8.046 -0.4113 -0.1200  0.2154
  526DPPI   C4A 8306  17.788   1.907   7.644  0.1574  0.0425 -0.1532
  526DPPI   C1B 8307  17.691   2.302   8.780  0.1373  0.1533 -0.1846
  526DPPI   C2B 8308  17.726   2.285   8.323 -0.3588  0.2266 -0.3604
  526DPPI   C3B 8309  17.697   2.479   7.863  0.1128 -0.2169 -0.2428
  526DPPI   C4B 8310  17.806   2.802   7.499 -0.2235 -0.0858  0.0849
  527DPPI    C1 8311  16.959   5.765  10.371 -0.1218 -0.0363  0.3024
  527DPPI    C2 8312  16.868   6.124  10.524  0.1301  0.1917 -0.0648
  527DPPI    C3 8313  17.232   5.968  10.581  0.1093  0.1171 -0.1321
  527DPPI   PO4 8314  16.848   5.819  10.035 -0.2261  0.0623  0.4009
  527DPPI   GL1 8315  16.915   5.595   9.642 -0.4070  0.1714 -0.2683
  527DPPI   GL2 8316  16.586   5.629   9.390  0.1554  0.0447  0.1705
  527DPPI   C1A 8317  17.298   5.570   9.315  0.1415 -0.0006  0.0536
  527DPPI   C2A 8318  17.401   5.320   9.039  0.0350  0.1656  0.2702
  527DPPI   C3A 8319  17.500   5.229   8.600  0.1043  0.0605  0.5081
  527DPPI   C4A 8320  17.329   5.106   8.168  0.1371  0.0220  0.1342
  527DPPI   C1B 8321  16.522   5.207   9.096  0.2274 -0.1075 -0.2311
  527DPPI   C2B 8322  16.452   5.254   8.773  0.0948 -0.0392  0.1833
  527DPPI   C3B 8323  16.497   5.047   8.451  0.1308  0.2392 -0.2284
  527DPPI   C4B 8324  16.257   4.671   8.339 -0.0613  0.1393  0.0455
  528DPPI    C1 8325   9.619   1.226   9.916  0.1233  0.2946 -0.1670
  528DPPI    C2 8326   9.537   1.371  10.280  0.0653  0.1588 -0.1254
  528DPPI    C3 8327   9.907   1.403  10.130  0.1687 -0.0630  0.0761
  528DPPI   PO4 8328   9.470   1.344   9.787 -0.2556 -0.1463  0.3341
  528DPPI   GL1 8329   9.652   1.643   9.460  0.1439 -0.3142  0.2119
  528DPPI   GL2 8330   9.308   1.678   9.473  0.0273 -0.3302 -0.0606
  528DPPI   C1A 8331   9.765   1.563   9.119  0.0002 -0.2607  0.1148
  528DPPI   C2A 8332   9.755   1.521   8.659  0.1740 -0.2366  0.2287
  528DPPI   C3A 8333   9.798   1.605   8.238  0.0438 -0.4011  0.2713
  528DPPI   C4A 8334   9.606   1.630   7.796  0.0387 -0.1496 -0.0131
  528DPPI   C1B 8335   9.193   1.695   9.027 -0.2295  0.0833 -0.0485
  528DPPI   C2B 8336   9.265   1.701   8.629  0.1080 -0.0951  0.0454
  528DPPI   C3B 8337   9.274   1.806   8.114 -0.1144 -0.3069  0.1062
  528DPPI   C4B 8338   9.029   1.852   7.848 -0.1061  0.2251  0.3173
  529DPPI    C1 8339   3.303  16.363   9.808  0.0816 -0.0451  0.0943
  529DPPI    C2 8340   3.573  16.077   9.878  0.0334 -0.0726  0.1679
  529DPPI    C3 8341   3.271  16.135  10.134 -0.1343 -0.1626 -0.0070
  529DPPI   PO4 8342   3.235  16.360   9.549 -0.0530 -0.2753 -0.1097
  529DPPI   GL1 8343   3.316  16.398   9.114  0.1319  0.0968  0.0193
  529DPPI   GL2 8344   3.082  16.554   8.847  0.1244 -0.0727 -0.0651
  529DPPI   C1A 8345   3.538  16.104   8.796 -0.0095 -0.0004  0.0462
  529DPPI   C2A 8346   3.392  15.869   8.443 -0.2308 -0.0938  0.1797
  529DPPI   C3A 8347   3.293  15.577   8.120  0.1793  0.0276  0.0905
  529DPPI   C4A 8348   3.146  15.211   7.814  0.0747  0.2046  0.0985
  529DPPI   C1B 8349   3.351  16.607   8.512  0.2899  0.1271 -0.0235
  529DPPI   C2B 8350   3.722  16.521   8.249  0.2110 -0.0258  0.1194
  529DPPI   C3B 8351   3.727  16.104   8.155  0.0059  0.2199 -0.1542
  529DPPI   C4B 8352   3.865  15.864   8.356 -0.1213  0.4393  0.0655
  530DPPI    C1 8353  12.575   2.910  10.092  0.4175 -0.2080  0.3127
  530DPPI    C2 8354  12.537   3.191  10.375 -0.1217 -0.1012  0.1452
  530DPPI    C3 8355  12.243   2.926  10.315 -0.0366 -0.0940 -0.3433
  530DPPI   PO4 8356  12.670   2.965   9.768 -0.1291  0.0882 -0.0607
  530DPPI   GL1 8357  12.629   2.687   9.327 -0.5963 -0.2636  0.1153
  530DPPI   GL2 8358  12.451   2.418   9.247 -0.0496 -0.1251  0.1094
  530DPPI   C1A 8359  12.809   2.740   8.902  0.3403  0.0883  0.0712
  530DPPI   C2A 8360  12.783   2.770   8.530  0.2654 -0.0307  0.2806
  530DPPI   C3A 8361  12.707   2.853   8.196  0.0910 -0.0407  0.0752
  530DPPI   C4A 8362  12.695   2.836   7.716 -0.0626  0.0414 -0.0150
  530DPPI   C1B 8363  12.326   2.387   8.787  0.3119 -0.0347  0.1891
  530DPPI   C2B 8364  12.403   2.434   8.391  0.1675  0.3069  0.3597
  530DPPI   C3B 8365  12.337   2.582   8.006 -0.0627 -0.3121  0.5758
  530DPPI   C4B 8366  12.241   2.611   7.644  0.1164 -0.3186 -0.0216
  531DPPI    C1 8367  15.044   2.565  10.062 -0.0897 -0.1536 -0.0324
  531DPPI    C2 8368  15.241   2.239  10.185 -0.0603 -0.1024  0.0569
  531DPPI    C3 8369  15.036   2.461  10.448  0.0550  0.0429  0.0253
  531DPPI   PO4 8370  15.227   2.591   9.815 -0.1914  0.1837 -0.1160
  531DPPI   GL1 8371  15.375   2.313   9.460 -0.0275 -0.1524 -0.5109
  531DPPI   GL2 8372  15.471   2.573   9.392 -0.1480 -0.0305  0.0630
  531DPPI   C1A 8373  15.344   1.930   9.332 -0.3597 -0.0912  0.0101
  531DPPI   C2A 8374  15.304   2.056   8.900 -0.0669 -0.0152 -0.0043
  531DPPI   C3A 8375  15.138   2.195   8.600 -0.2127  0.0373 -0.0956
  531DPPI   C4A 8376  15.137   2.358   8.213 -0.1632  0.1351  0.1766
  531DPPI   C1B 8377  15.337   2.605   9.101  0.1205 -0.1722  0.0330
  531DPPI   C2B 8378  15.351   2.675   8.747  0.1361 -0.2392 -0.4417
  531DPPI   C3B 8379  15.227   2.831   8.361  0.0606  0.1842  0.1180
  531DPPI   C4B 8380  15.203   2.781   7.923  0.2895  0.0890 -0.3556
  532DPPI    C1 8381  10.453   1.470  10.203  0.0675  0.0730 -0.0108
  532DPPI    C2 8382  10.416   1.626  10.569  0.0989 -0.1680  0.0972
  532DPPI    C3 8383  10.766   1.474  10.451  0.0071 -0.3686  0.0802
  532DPPI   PO4 8384  10.298   1.706  10.045 -0.6042  0.0815 -0.5109
  532DPPI   GL1 8385  10.068   1.658   9.722 -0.1383  0.2632  0.2007
  532DPPI   GL2 8386  10.186   1.583   9.385 -0.0114 -0.1251  0.2160
  532DPPI   C1A 8387   9.954   2.091   9.543  0.0468 -0.1831  0.2258
  532DPPI   C2A 8388  10.019   2.217   9.076  0.1637  0.2336  0.0114
  532DPPI   C3A 8389   9.996   2.311   8.524 -0.0591  0.0199 -0.2029
  532DPPI   C4A 8390   9.945   2.418   8.080  0.1164  0.1326  0.0850
  532DPPI   C1B 8391  10.263   1.724   9.004  0.0789  0.1534 -0.0258
  532DPPI   C2B 8392  10.219   1.838   8.697  0.0985 -0.3113 -0.1563
  532DPPI   C3B 8393  10.164   1.898   8.262 -0.2499  0.1684  0.1688
  532DPPI   C4B 8394  10.161   1.923   7.796  0.1393 -0.1633  0.2178
  533DPPI    C1 8395  10.832  10.992  10.423  0.1448  0.2940 -0.0490
  533DPPI    C2 8396  10.803  10.593  10.431  0.1529  0.2939 -0.0219
  533DPPI    C3 8397  10.959  10.788  10.743 -0.0905  0.3380  0.0750
  533DPPI   PO4 8398  10.860  11.123  10.135  0.1505  0.0623  0.0685
  533DPPI   GL1 8399  10.965  11.078   9.724  0.1059 -0.0639  0.1073
  533DPPI   GL2 8400  10.761  11.392   9.588  0.1379 -0.3218 -0.2513
  533DPPI   C1A 8401  11.001  11.131   9.253 -0.0740  0.2234 -0.3331
  533DPPI   C2A 8402  11.131  11.014   8.880 -0.2674  0.0250  0.2500
  533DPPI   C3A 8403  11.314  11.325   8.565  0.0946 -0.3154 -0.2208
  533DPPI   C4A 8404  11.303  11.633   8.248 -0.1002  0.0249  0.2583
  533DPPI   C1B 8405  10.756  11.556   9.206 -0.3434 -0.0445 -0.0494
  533DPPI   C2B 8406  10.931  11.548   8.830  0.2498  0.0927 -0.1184
  533DPPI   C3B 8407  10.861  11.640   8.409 -0.1579 -0.0225 -0.0178
  533DPPI   C4B 8408  10.684  11.465   8.044 -0.0177 -0.0861  0.0691
  534DPPI    C1 8409  16.459   0.415  10.002  0.0151 -0.1808  0.0069
  534DPPI    C2 8410  16.570   0.036   9.942 -0.1973 -0.2655  0.1390
  534DPPI    C3 8411  16.304   0.124  10.228  0.0452  0.0136  0.2830
  534DPPI   PO4 8412  16.785   0.503  10.006  0.2803 -0.0689 -0.0592
  534DPPI   GL1 8413  16.838   0.230   9.600 -0.4425  0.0648  0.1028
  534DPPI   GL2 8414  16.584   0.444   9.485  0.0447  0.0884 -0.1571
  534DPPI   C1A 8415  17.042   0.290   9.202 -0.1624  0.0294  0.1697
  534DPPI   C2A 8416  17.012   0.514   8.902 -0.0813 -0.0533  0.2750
  534DPPI   C3A 8417  16.930   0.376   8.478  0.3149  0.0155 -0.0703
  534DPPI   C4A 8418  16.890   0.330   7.979 -0.1705  0.0367 -0.1449
  534DPPI   C1B 8419  16.560   0.675   9.046  0.1951  0.1034  0.1334
  534DPPI   C2B 8420  16.526   0.747   8.639  0.1548 -0.1820 -0.1039
  534DPPI   C3B 8421  16.622   0.788   8.186 -0.0203  0.1128  0.0067
  534DPPI   C4B 8422  16.491   0.779   7.770  0.0531 -0.1781  0.2198
  535DPPI    C1 8423  15.569   5.338  10.174  0.1098 -0.3220 -0.1243
  535DPPI    C2 8424  15.406   5.222  10.521 -0.0766  0.0732 -0.0749
  535DPPI    C3 8425  15.727   5.461  10.521 -0.0310  0.0127 -0.1754
  535DPPI   PO4 8426  15.307   5.367  10.004  0.5755 -0.0853  0.2014
  535DPPI   GL1 8427  15.149   5.584   9.720 -0.5870 -0.0862 -0.3746
  535DPPI   GL2 8428  15.248   5.903   9.696 -0.0126  0.0635  0.2089
  535DPPI   C1A 8429  14.797   5.743   9.409  0.0240  0.2034 -0.0567
  535DPPI   C2A 8430  14.829   5.838   9.027 -0.1144  0.1122  0.3862
  535DPPI   C3A 8431  14.870   5.873   8.603 -0.0333 -0.1252  0.0376
  535DPPI   C4A 8432  14.911   5.826   8.142 -0.0882  0.0599 -0.0917
  535DPPI   C1B 8433  15.213   6.088   9.261 -0.2480  0.1280  0.0262
  535DPPI   C2B 8434  15.285   6.034   8.824  0.3242 -0.2833 -0.0232
  535DPPI   C3B 8435  15.282   6.104   8.337 -0.1070  0.1914 -0.2684
  535DPPI   C4B 8436  15.383   5.919   8.024 -0.2084  0.2714 -0.1448
  536DPPI    C1 8437  13.381  15.994  10.400 -0.0975  0.0338 -0.1221
  536DPPI    C2 8438  13.503  16.352  10.530  0.4532 -0.1169 -0.2018
  536DPPI    C3 8439  13.504  16.039  10.778  0.0976 -0.0950 -0.1689
  536DPPI   PO4 8440  13.150  16.072  10.152 -0.2660  0.1068 -0.0428
  536DPPI   GL1 8441  13.059  16.207   9.683 -0.0224  0.1126 -0.0172
  536DPPI   GL2 8442  13.067  15.904   9.711 -0.0476 -0.1028 -0.1768
  536DPPI   C1A 8443  12.986  16.332   9.265  0.0356  0.1090  0.2158
  536DPPI   C2A 8444  12.845  16.354   8.857 -0.0307 -0.2705 -0.4929
  536DPPI   C3A 8445  12.975  16.286   8.502 -0.0456  0.0340  0.0675
  536DPPI   C4A 8446  13.048  16.341   8.112  0.0526  0.1046  0.0701
  536DPPI   C1B 8447  12.881  15.845   9.393  0.3729 -0.1789  0.0222
  536DPPI   C2B 8448  12.969  15.880   8.953  0.3087 -0.0025  0.2771
  536DPPI   C3B 8449  12.955  15.721   8.498  0.0634  0.0645 -0.1998
  536DPPI   C4B 8450  12.891  15.734   8.042  0.0513 -0.0245  0.0865
  537DPPI    C1 8451   7.586   7.938   9.841 -0.0015  0.1295  0.0188
  537DPPI    C2 8452   7.604   7.543   9.904  0.0523  0.1004 -0.1732
  537DPPI    C3 8453   7.356   7.769  10.121 -0.1989 -0.0820 -0.2647
  537DPPI   PO4 8454   7.603   7.945   9.542  0.0120  0.1459 -0.0554
  537DPPI   GL1 8455   7.868   8.246   9.317 -0.0148  0.2313 -0.0648
  537DPPI   GL2 8456   7.902   8.512   9.209  0.1110 -0.3133  0.1579
  537DPPI   C1A 8457   8.048   7.845   9.022  0.0130  0.4824  0.1348
  537DPPI   C2A 8458   8.409   7.987   8.784  0.4899  0.0535  0.2394
  537DPPI   C3A 8459   8.580   8.286   8.519  0.0836 -0.1360 -0.2536
  537DPPI   C4A 8460   8.515   8.507   8.183 -0.1240 -0.0028  0.0921
  537DPPI   C1B 8461   7.822   8.278   8.842  0.3424 -0.3254 -0.0606
  537DPPI   C2B 8462   7.647   8.307   8.448 -0.2812 -0.0784  0.1398
  537DPPI   C3B 8463   7.527   8.462   7.936  0.3288  0.0448  0.0183
  537DPPI   C4B 8464   7.623   8.697   7.689  0.0994  0.3010 -0.1225
  538DPPI    C1 8465   4.580   6.899  10.151 -0.0504  0.2114 -0.0062
  538DPPI    C2 8466   4.842   7.170  10.283  0.1476  0.0976 -0.1605
  538DPPI    C3 8467   4.787   6.830  10.486  0.0846  0.1415 -0.1035
  538DPPI   PO4 8468   4.505   6.876   9.860  0.0977 -0.0066  0.0714
  538DPPI   GL1 8469   4.518   6.994   9.442  0.0381 -0.1672  0.2443
  538DPPI   GL2 8470   4.526   7.348   9.412  0.2593 -0.1281 -0.1493
  538DPPI   C1A 8471   4.732   7.025   8.971 -0.0828 -0.0811 -0.2797
  538DPPI   C2A 8472   4.803   7.211   8.540 -0.1107  0.0606  0.0589
  538DPPI   C3A 8473   5.070   6.990   8.171  0.1056 -0.0873  0.1518
  538DPPI   C4A 8474   5.151   7.169   7.796  0.2975 -0.2378 -0.1431
  538DPPI   C1B 8475   4.455   7.399   8.947 -0.0454 -0.2643  0.0894
  538DPPI   C2B 8476   4.391   7.614   8.626 -0.0894 -0.1774 -0.0524
  538DPPI   C3B 8477   4.292   7.673   8.183 -0.1174  0.1136 -0.0854
  538DPPI   C4B 8478   4.313   7.717   7.686 -0.3238  0.2907 -0.0974
  539DPPI    C1 8479   5.251  18.701  10.203 -0.2084 -0.1983  0.0056
  539DPPI    C2 8480   4.861  18.715  10.290 -0.1805 -0.1143  0.1190
  539DPPI    C3 8481   5.129  18.660  10.582 -0.0847  0.1835  0.0903
  539DPPI   PO4 8482   5.272  18.626   9.968  0.1230 -0.0834 -0.1081
  539DPPI   GL1 8483   5.190  18.766   9.583 -0.0081  0.0226  0.3427
  539DPPI   GL2 8484   5.374  19.082   9.560  0.1126  0.1174 -0.1084
  539DPPI   C1A 8485   5.238  18.886   9.115  0.0026  0.0062  0.2138
  539DPPI   C2A 8486   5.268  18.964   8.690 -0.0541 -0.1738 -0.0395
  539DPPI   C3A 8487   5.261  19.113   8.210 -0.1884  0.1033 -0.1545
  539DPPI   C4A 8488   5.313  19.312   7.832  0.1324 -0.1854 -0.3334
  539DPPI   C1B 8489   5.733  19.164   9.244 -0.2429 -0.1777 -0.1874
  539DPPI   C2B 8490   5.666  19.301   8.802 -0.0306  0.0500  0.0900
  539DPPI   C3B 8491   5.658  19.361   8.410  0.0831  0.0288 -0.3996
  539DPPI   C4B 8492   5.830  19.490   7.961  0.1883 -0.0472 -0.1393
  540DPPI    C1 8493   3.203   1.660   9.787  0.1474 -0.0914  0.3082
  540DPPI    C2 8494   3.371   1.800  10.122  0.0167  0.0091  0.3328
  540DPPI    C3 8495   3.315   2.043   9.809  0.2341 -0.1098  0.1982
  540DPPI   PO4 8496   3.316   1.372   9.712  0.0980 -0.1961 -0.0067
  540DPPI   GL1 8497   3.438   1.268   9.370  0.0453  0.6630  0.1215
  540DPPI   GL2 8498   3.795   1.313   9.374  0.1835  0.2387  0.0577
  540DPPI   C1A 8499   3.468   1.104   8.898  0.3423 -0.0402 -0.1038
  540DPPI   C2A 8500   3.508   1.146   8.391 -0.0910 -0.2854  0.3110
  540DPPI   C3A 8501   3.585   1.275   8.060  0.2114  0.1247  0.0476
  540DPPI   C4A 8502   3.708   1.413   7.698  0.0172 -0.2105  0.1652
  540DPPI   C1B 8503   3.934   1.370   8.879 -0.2144  0.0742 -0.1250
  540DPPI   C2B 8504   3.834   1.525   8.494 -0.2577 -0.2651 -0.0008
  540DPPI   C3B 8505   3.693   1.813   8.036  0.0749  0.2418 -0.2873
  540DPPI   C4B 8506   3.737   2.159   7.903  0.0675 -0.1039 -0.0478
  541DPPI    C1 8507  16.095  14.171   9.784  0.0414 -0.0491  0.0349
  541DPPI    C2 8508  16.370  14.440   9.674  0.0296 -0.1291 -0.1943
  541DPPI    C3 8509  16.429  14.217  10.000  0.0581  0.1207 -0.0251
  541DPPI   PO4 8510  15.898  14.241   9.575  0.2663 -0.1120  0.2765
  541DPPI   GL1 8511  15.992  14.273   9.144 -0.0318 -0.1237 -0.1667
  541DPPI   GL2 8512  16.215  14.430   9.128  0.1586  0.0817  0.0605
  541DPPI   C1A 8513  15.921  14.297   8.734 -0.0403 -0.0237 -0.0163
  541DPPI   C2A 8514  16.078  14.101   8.436  0.1930 -0.1637  0.1401
  541DPPI   C3A 8515  15.969  13.995   7.974 -0.0316 -0.2637  0.0381
  541DPPI   C4A 8516  16.037  13.599   7.794 -0.0331  0.0273 -0.0864
  541DPPI   C1B 8517  16.492  14.297   8.799  0.2363 -0.1591  0.1097
  541DPPI   C2B 8518  16.705  14.023   8.504 -0.2200 -0.0653  0.0994
  541DPPI   C3B 8519  16.952  14.223   8.161  0.1657  0.0077 -0.2778
  541DPPI   C4B 8520  16.958  14.507   7.960  0.0018  0.3242 -0.0716
  542DPPI    C1 8521  10.006   4.810   9.959 -0.0629  0.1055  0.0523
  542DPPI    C2 8522  10.380   4.856  10.094 -0.0085  0.2420 -0.1405
  542DPPI    C3 8523  10.074   5.018  10.294  0.0333  0.1221  0.0230
  542DPPI   PO4 8524   9.975   4.840   9.692  0.4437 -0.0702 -0.4573
  542DPPI   GL1 8525  10.248   4.715   9.377  0.2871  0.1340 -0.3177
  542DPPI   GL2 8526  10.070   4.727   9.143 -0.0503 -0.2715 -0.3221
  542DPPI   C1A 8527  10.385   5.104   9.155  0.0205  0.1083  0.3175
  542DPPI   C2A 8528  10.411   5.158   8.745 -0.0973  0.2436 -0.0515
  542DPPI   C3A 8529  10.287   5.113   8.376  0.0750  0.0027  0.0313
  542DPPI   C4A 8530  10.304   5.130   7.893 -0.1836 -0.2250 -0.3485
  542DPPI   C1B 8531   9.858   4.559   8.911  0.4766  0.0954  0.0194
  542DPPI   C2B 8532   9.811   4.617   8.503  0.1415  0.1652  0.1611
  542DPPI   C3B 8533   9.945   4.734   8.161 -0.0302  0.0359  0.1917
  542DPPI   C4B 8534   9.880   4.741   7.738 -0.1794 -0.3227  0.2739
  543DPPI    C1 8535  16.348   7.935  10.710  0.1235  0.0674 -0.0162
  543DPPI    C2 8536  16.474   8.308  10.783 -0.1079  0.1082  0.1893
  543DPPI    C3 8537  16.231   8.125  11.042 -0.1582 -0.1122 -0.0102
  543DPPI   PO4 8538  16.237   7.889  10.516 -0.1006 -0.1611  0.3299
  543DPPI   GL1 8539  16.184   8.056  10.108 -0.3622  0.0865  0.1717
  543DPPI   GL2 8540  16.454   8.258   9.985 -0.1016  0.2557 -0.0092
  543DPPI   C1A 8541  16.087   7.779   9.707 -0.0261 -0.4512  0.1182
  543DPPI   C2A 8542  15.835   7.481   9.337  0.1547  0.1411 -0.1461
  543DPPI   C3A 8543  15.588   7.554   9.043 -0.0261  0.1004 -0.1614
  543DPPI   C4A 8544  15.597   7.719   8.637  0.2019 -0.0321 -0.3233
  543DPPI   C1B 8545  16.399   8.283   9.604 -0.1082 -0.2660  0.2036
  543DPPI   C2B 8546  16.341   8.197   9.146 -0.0868 -0.0660 -0.2372
  543DPPI   C3B 8547  16.184   8.183   8.722 -0.1746 -0.2767 -0.0377
  543DPPI   C4B 8548  15.888   8.093   8.451  0.1485  0.1303 -0.1805
  544DPPI    C1 8549  17.390  15.912  10.380 -0.0862  0.1288 -0.3132
  544DPPI    C2 8550  17.127  16.082  10.629  0.0229  0.0131 -0.1166
  544DPPI    C3 8551  17.424  16.300  10.472 -0.0808  0.1003 -0.1931
  544DPPI   PO4 8552  17.227  15.802  10.177  0.0190  0.0229 -0.0824
  544DPPI   GL1 8553  17.273  15.892   9.726  0.0399  0.0004  0.1887
  544DPPI   GL2 8554  16.999  15.859   9.642  0.1058 -0.2326 -0.0211
  544DPPI   C1A 8555  17.309  16.201   9.428 -0.1479 -0.0870 -0.0025
  544DPPI   C2A 8556  17.000  16.405   9.158  0.0365  0.1417 -0.3433
  544DPPI   C3A 8557  17.060  16.496   8.722  0.3538  0.1687 -0.2971
  544DPPI   C4A 8558  17.064  16.803   8.310 -0.1336  0.1784  0.0304
  544DPPI   C1B 8559  16.834  15.919   9.270 -0.0282 -0.0442 -0.2558
  544DPPI   C2B 8560  16.620  16.049   8.966 -0.0850  0.0027 -0.0897
  544DPPI   C3B 8561  16.367  16.075   8.622  0.3098  0.2768 -0.0704
  544DPPI   C4B 8562  16.238  16.100   8.195  0.0536 -0.1051 -0.0877
  545DPPI    C1 8563   9.475   3.873   9.977  0.3905  0.0126  0.0790
  545DPPI    C2 8564   9.344   4.162   9.734  0.1416 -0.2230 -0.0729
  545DPPI    C3 8565   9.422   4.243  10.118 -0.0714  0.0116 -0.0768
  545DPPI   PO4 8566   9.819   3.745   9.871  0.1510  0.1773 -0.1838
  545DPPI   GL1 8567   9.762   3.927   9.471 -0.1454 -0.0716  0.2269
  545DPPI   GL2 8568   9.643   4.375   9.392  0.2009 -0.1902 -0.0395
  545DPPI   C1A 8569   9.806   4.041   8.970  0.2627 -0.2352 -0.0222
  545DPPI   C2A 8570   9.888   4.122   8.503  0.0375 -0.1151 -0.2983
  545DPPI   C3A 8571  10.010   4.272   8.123  0.0678  0.0993  0.0621
  545DPPI   C4A 8572  10.153   4.212   7.707  0.0024  0.0294  0.2527
  545DPPI   C1B 8573   9.359   4.121   9.059  0.1173  0.2255 -0.2657
  545DPPI   C2B 8574   9.387   4.042   8.617 -0.0504 -0.2128 -0.4720
  545DPPI   C3B 8575   9.510   4.142   8.219 -0.3237 -0.0832 -0.0230
  545DPPI   C4B 8576   9.567   4.407   7.961 -0.0782 -0.2000  0.1719
  546DPPI    C1 8577  11.971  15.082  10.175 -0.0141  0.1879  0.0852
  546DPPI    C2 8578  11.663  14.876  10.326 -0.0263  0.0461 -0.1282
  546DPPI    C3 8579  11.672  15.275  10.356 -0.0434  0.0233  0.2141
  546DPPI   PO4 8580  11.917  15.023   9.932 -0.0736  0.2449 -0.0083
  546DPPI   GL1 8581  11.961  14.721   9.528 -0.2708  0.1906 -0.3237
  546DPPI   GL2 8582  11.640  14.853   9.490 -0.4191 -0.2924  0.0333
  546DPPI   C1A 8583  12.155  14.725   9.229 -0.4964  0.0818  0.5088
  546DPPI   C2A 8584  12.086  14.796   8.783 -0.0741 -0.3055  0.2239
  546DPPI   C3A 8585  11.857  14.573   8.264 -0.0435  0.0196 -0.0253
  546DPPI   C4A 8586  11.755  14.596   7.855  0.1292 -0.0258  0.1123
  546DPPI   C1B 8587  11.586  14.792   9.105 -0.1499  0.2322  0.0331
  546DPPI   C2B 8588  11.503  14.518   8.773  0.1603  0.0744  0.1294
  546DPPI   C3B 8589  11.296  14.734   8.416  0.2089 -0.0051  0.0579
  546DPPI   C4B 8590  11.020  15.039   8.056 -0.2178 -0.0942  0.2104
  547DPPI    C1 8591   1.010  15.907   9.803  0.1659  0.0873 -0.1788
  547DPPI    C2 8592   1.087  16.284   9.912  0.1880 -0.0181  0.1837
  547DPPI    C3 8593   0.804  16.075  10.102 -0.0871 -0.0662 -0.2636
  547DPPI   PO4 8594   1.018  15.938   9.554 -0.1783 -0.1562 -0.2130
  547DPPI   GL1 8595   0.800  16.251   9.249  0.0198 -0.0869  0.0420
  547DPPI   GL2 8596   1.112  16.274   9.082  0.0130 -0.2365  0.0212
  547DPPI   C1A 8597   0.641  16.000   8.879  0.0740 -0.2234  0.0128
  547DPPI   C2A 8598   0.452  16.110   8.485 -0.1040 -0.2740  0.0517
  547DPPI   C3A 8599   0.421  16.013   8.062 -0.1904  0.1864 -0.1370
  547DPPI   C4A 8600   0.562  16.038   7.639  0.0814  0.0815  0.1960
  547DPPI   C1B 8601   0.972  16.364   8.658 -0.1369  0.1685 -0.1105
  547DPPI   C2B 8602   0.943  16.366   8.272 -0.1842  0.2729 -0.1556
  547DPPI   C3B 8603   1.083  16.197   7.855 -0.1258 -0.0933  0.0444
  547DPPI   C4B 8604   1.123  16.384   7.373  0.1770 -0.1912  0.1820
  548DPPI    C1 8605   3.647  17.429   9.896 -0.1567  0.0889  0.0247
  548DPPI    C2 8606   3.697  17.731   9.638 -0.1551  0.0860  0.0218
  548DPPI    C3 8607   3.821  17.769  10.016 -0.1392  0.0826  0.0170
  548DPPI   PO4 8608   3.435  17.282   9.744  0.0360  0.0544  0.0310
  548DPPI   GL1 8609   3.359  17.438   9.350  0.0569  0.2648 -0.2639
  548DPPI   GL2 8610   3.636  17.630   9.157  0.2391 -0.1155 -0.1613
  548DPPI   C1A 8611   2.955  17.483   9.010  0.2809  0.0173 -0.2048
  548DPPI   C2A 8612   2.517  17.362   8.823  0.1130  0.2096 -0.1794
  548DPPI   C3A 8613   2.526  17.318   8.346 -0.0754 -0.0899  0.2212
  548DPPI   C4A 8614   2.789  17.276   8.030 -0.1485  0.1545  0.1598
  548DPPI   C1B 8615   3.495  17.593   8.775  0.1928 -0.1451  0.3834
  548DPPI   C2B 8616   3.107  17.567   8.514  0.1477  0.2480 -0.1011
  548DPPI   C3B 8617   2.960  17.737   8.112  0.0546 -0.0811 -0.1066
  548DPPI   C4B 8618   2.938  17.613   7.664 -0.0823  0.1268 -0.2172
  549DPPI    C1 8619  17.140   5.134  10.455  0.0078 -0.1203  0.0513
  549DPPI    C2 8620  17.033   5.410  10.723  0.0517  0.0747 -0.1293
  549DPPI    C3 8621  16.814   5.078  10.680 -0.1393  0.1920 -0.0780
  549DPPI   PO4 8622  17.112   5.227  10.240 -0.2314  0.3189  0.0979
  549DPPI   GL1 8623  17.299   5.237   9.832 -0.5147 -0.0198 -0.0668
  549DPPI   GL2 8624  17.110   5.045   9.729 -0.1922 -0.0041  0.0316
  549DPPI   C1A 8625  17.462   5.033   9.436 -0.0136 -0.1313  0.0224
  549DPPI   C2A 8626  17.642   4.703   9.105 -0.1327  0.0076 -0.1883
  549DPPI   C3A 8627  17.622   4.746   8.674 -0.1903  0.1625 -0.0154
  549DPPI   C4A 8628  17.784   4.847   8.250  0.0873 -0.1277  0.2128
  549DPPI   C1B 8629  16.916   5.250   9.351  0.0097  0.0680 -0.1735
  549DPPI   C2B 8630  16.908   5.490   8.993  0.1331 -0.1384 -0.0680
  549DPPI   C3B 8631  17.284   5.679   8.767  0.1893 -0.1933 -0.1119
  549DPPI   C4B 8632  17.534   5.820   8.483 -0.0225  0.1611  0.1361
  550DPPI    C1 8633   6.377  10.685   9.806  0.0487  0.3480 -0.0652
  550DPPI    C2 8634   6.103  10.878   9.588 -0.0323  0.2071 -0.0893
  550DPPI    C3 8635   6.205  11.017   9.949 -0.2638  0.1650 -0.0053
  550DPPI   PO4 8636   6.521  10.596   9.657 -0.4450 -0.2186 -0.0481
  550DPPI   GL1 8637   6.428  10.476   9.269  0.2382 -0.0026  0.1155
  550DPPI   GL2 8638   6.114  10.442   9.364  0.0592  0.0642 -0.1533
  550DPPI   C1A 8639   6.426  10.584   8.790 -0.3544 -0.0698  0.1308
  550DPPI   C2A 8640   6.397  10.692   8.374  0.0344  0.0628  0.0112
  550DPPI   C3A 8641   6.412  10.789   7.904  0.0582 -0.2771 -0.3497
  550DPPI   C4A 8642   6.736  10.697   7.555 -0.1753  0.1849 -0.1410
  550DPPI   C1B 8643   6.141  10.205   8.921  0.0075 -0.2676  0.0808
  550DPPI   C2B 8644   6.109  10.228   8.477  0.1331  0.2537 -0.1440
  550DPPI   C3B 8645   6.103  10.403   8.029 -0.1988 -0.1389 -0.2066
  550DPPI   C4B 8646   6.379  10.337   7.632 -0.0608  0.0882  0.3648
  551DPPI    C1 8647   8.351  17.267  10.006 -0.1963 -0.0788 -0.1692
  551DPPI    C2 8648   8.187  17.616  10.112 -0.0756 -0.0556 -0.0563
  551DPPI    C3 8649   8.285  17.348  10.392 -0.0386 -0.1220 -0.1323
  551DPPI   PO4 8650   8.206  17.252   9.748 -0.0307  0.0517  0.2375
  551DPPI   GL1 8651   8.104  17.110   9.419  0.0909  0.1168 -0.0344
  551DPPI   GL2 8652   8.377  16.864   9.406  0.2197  0.2901 -0.0575
  551DPPI   C1A 8653   8.112  17.340   9.030  0.1403 -0.0013 -0.1330
  551DPPI   C2A 8654   8.115  17.299   8.633  0.2546  0.1044  0.1051
  551DPPI   C3A 8655   8.177  17.322   8.240 -0.3811  0.1565 -0.1814
  551DPPI   C4A 8656   8.066  17.208   7.855 -0.1374 -0.1217 -0.2877
  551DPPI   C1B 8657   8.361  16.930   8.891 -0.0975 -0.1240 -0.0843
  551DPPI   C2B 8658   8.422  16.943   8.475 -0.0113  0.1588 -0.2139
  551DPPI   C3B 8659   8.424  16.868   8.005  0.2314 -0.0583  0.1024
  551DPPI   C4B 8660   8.224  16.696   7.656  0.3062 -0.0724 -0.1104
  552DPPI    C1 8661   3.180   0.487   9.965  0.1975 -0.0394 -0.1449
  552DPPI    C2 8662   3.320   0.564  10.331 -0.3223 -0.1979  0.0974
  552DPPI    C3 8663   3.308   0.854  10.056  0.0031 -0.0587  0.2244
  552DPPI   PO4 8664   2.843   0.412   9.897 -0.1283 -0.0206  0.0476
  552DPPI   GL1 8665   2.698   0.581   9.507 -0.1031  0.0427 -0.0489
  552DPPI   GL2 8666   2.666   0.348   9.152 -0.1448 -0.1030 -0.0423
  552DPPI   C1A 8667   2.880   0.846   9.182  0.0815 -0.1373  0.2365
  552DPPI   C2A 8668   3.124   0.742   8.827  0.0937 -0.1041 -0.1706
  552DPPI   C3A 8669   3.180   0.796   8.455 -0.2924  0.5164 -0.0679
  552DPPI   C4A 8670   3.219   0.875   8.071 -0.2372  0.0702 -0.0640
  552DPPI   C1B 8671   2.625   0.456   8.800  0.5452  0.2497  0.3941
  552DPPI   C2B 8672   2.683   0.584   8.460  0.0848 -0.0814  0.2385
  552DPPI   C3B 8673   2.695   0.535   8.058  0.0864  0.0512  0.2092
  552DPPI   C4B 8674   2.990   0.611   7.685 -0.0237  0.0968  0.1651
  553DPPI    C1 8675  14.422  12.517  10.165 -0.1374  0.0006 -0.0829
  553DPPI    C2 8676  14.270  12.746  10.455  0.0963 -0.1779  0.1850
  553DPPI    C3 8677  14.448  12.399  10.546  0.2083 -0.2172 -0.1690
  553DPPI   PO4 8678  14.206  12.541   9.924 -0.0730 -0.1580 -0.1025
  553DPPI   GL1 8679  14.204  12.842   9.627  0.0612 -0.0780 -0.0424
  553DPPI   GL2 8680  14.046  13.115   9.590 -0.0713 -0.2599 -0.2697
  553DPPI   C1A 8681  13.972  12.810   9.144  0.1002  0.0805  0.0270
  553DPPI   C2A 8682  14.016  12.870   8.696 -0.2664 -0.2826  0.2657
  553DPPI   C3A 8683  14.141  12.806   8.334  0.1897  0.0120 -0.0457
  553DPPI   C4A 8684  14.387  12.747   8.055 -0.3339  0.3013 -0.0042
  553DPPI   C1B 8685  13.934  13.303   9.120 -0.2184  0.1715 -0.2221
  553DPPI   C2B 8686  13.879  13.362   8.733  0.1352 -0.2520  0.0203
  553DPPI   C3B 8687  13.905  13.303   8.347 -0.0981 -0.0792 -0.0712
  553DPPI   C4B 8688  13.661  13.568   8.128 -0.1035 -0.0296  0.0004
  554PYPI    C1 8689   0.652   3.227   9.941 -0.1971 -0.0254  0.0536
  554PYPI    C2 8690   0.545   3.179  10.323 -0.2076  0.0230  0.0569
  554PYPI    C3 8691   0.735   3.512  10.209 -0.1145 -0.0356  0.0392
  554PYPI   PO4 8692   0.744   3.021   9.861  0.1803  0.2159  0.0411
  554PYPI   GL1 8693   1.033   2.931   9.541  0.1051 -0.0830  0.0246
  554PYPI   GL2 8694   1.391   3.060   9.576  0.1117 -0.2383  0.3320
  554PYPI   C1A 8695   0.980   3.047   9.173 -0.1064 -0.2125  0.0651
  554PYPI   C2A 8696   1.002   3.054   8.710  0.0039 -0.4592 -0.1758
  554PYPI   D3A 8697   1.137   2.869   8.383  0.0058  0.2546  0.1070
  554PYPI   C4A 8698   0.894   2.790   8.030 -0.3173 -0.1688 -0.0151
  554PYPI   C1B 8699   1.459   2.949   9.237  0.0775  0.0239 -0.1087
  554PYPI   C2B 8700   1.517   2.949   8.820 -0.2506  0.0148 -0.0171
  554PYPI   C3B 8701   1.616   3.148   8.409 -0.0726  0.1062  0.2651
  554PYPI   C4B 8702   1.614   3.163   7.984  0.0749 -0.0474 -0.2362
  555PYPI    C1 8703  16.327  15.029  10.188  0.0263 -0.0942 -0.0324
  555PYPI    C2 8704  16.111  14.752   9.997 -0.1228 -0.0746  0.1053
  555PYPI    C3 8705  16.112  14.764  10.397 -0.0959  0.1067  0.1006
  555PYPI   PO4 8706  16.453  15.190   9.963  0.0785 -0.3584  0.4204
  555PYPI   GL1 8707  16.356  15.340   9.442  0.0639  0.1332  0.0418
  555PYPI   GL2 8708  16.760  15.428   9.507 -0.2883 -0.1946  0.0992
  555PYPI   C1A 8709  16.333  15.282   8.937 -0.0080  0.0022 -0.2537
  555PYPI   C2A 8710  16.442  15.146   8.480 -0.3671  0.6328 -0.0236
  555PYPI   D3A 8711  16.642  14.959   8.162 -0.0545 -0.2608  0.1011
  555PYPI   C4A 8712  16.559  14.779   7.836  0.0458  0.0618  0.0512
  555PYPI   C1B 8713  16.791  15.484   9.026 -0.0280 -0.0658  0.0926
  555PYPI   C2B 8714  16.576  15.639   8.600 -0.0692 -0.1269 -0.3679
  555PYPI   C3B 8715  16.547  15.514   8.189 -0.0627  0.0723  0.1491
  555PYPI   C4B 8716  16.417  15.292   7.824  0.3463  0.2169 -0.1188
  556PYPI    C1 8717   7.960   9.661  10.010  0.0631  0.0192  0.1826
  556PYPI    C2 8718   7.667   9.840  10.215  0.1286  0.1643  0.1503
  556PYPI    C3 8719   7.772   9.464  10.303  0.0183  0.1553  0.2460
  556PYPI   PO4 8720   7.921   9.765   9.777 -0.0241 -0.0569  0.1960
  556PYPI   GL1 8721   8.186   9.908   9.460 -0.1004  0.0675  0.0803
  556PYPI   GL2 8722   8.506  10.041   9.448 -0.3319  0.2348 -0.3772
  556PYPI   C1A 8723   8.250  10.033   9.009 -0.0980 -0.2522  0.0207
  556PYPI   C2A 8724   8.466  10.091   8.622  0.0158 -0.1118  0.1068
  556PYPI   D3A 8725   8.297  10.030   8.276  0.1388  0.1479 -0.0720
  556PYPI   C4A 8726   8.543  10.224   7.880 -0.1778  0.0442 -0.0065
  556PYPI   C1B 8727   8.736   9.938   9.052  0.2852 -0.2782 -0.3706
  556PYPI   C2B 8728   8.891   9.836   8.622 -0.0531 -0.1162  0.0197
  556PYPI   C3B 8729   8.787   9.896   8.212 -0.0126 -0.3327 -0.0159
  556PYPI   C4B 8730   8.963   9.764   7.829 -0.2659  0.0984 -0.0354
  557PYPI    C1 8731   1.485  10.702  10.231 -0.1612 -0.1247  0.0276
  557PYPI    C2 8732   1.559  11.021  10.461 -0.0189 -0.0375 -0.1371
  557PYPI    C3 8733   1.360  10.708  10.611  0.0954  0.0070  0.1127
  557PYPI   PO4 8734   1.449  10.737  10.020  0.1106  0.0017 -0.1559
  557PYPI   GL1 8735   1.398  10.894   9.579 -0.0703  0.3381  0.0081
  557PYPI   GL2 8736   1.169  11.231   9.569  0.1056 -0.1654  0.2329
  557PYPI   C1A 8737   1.453  10.517   9.288  0.0493 -0.3194  0.0013
  557PYPI   C2A 8738   1.588  10.350   8.962 -0.0821  0.3508  0.1555
  557PYPI   D3A 8739   1.831  10.021   9.092  0.4178 -0.0136 -0.0605
  557PYPI   C4A 8740   2.023  10.124   9.430  0.1720 -0.0732  0.0089
  557PYPI   C1B 8741   1.125  10.929   9.094  0.0489 -0.2581 -0.0560
  557PYPI   C2B 8742   0.998  10.808   8.627 -0.0505 -0.0643  0.1568
  557PYPI   C3B 8743   0.821  10.487   8.389 -0.3968 -0.1095  0.4321
  557PYPI   C4B 8744   0.893  10.186   8.053 -0.4064 -0.0164 -0.0861
  558PYPI    C1 8745   2.062   3.775  10.077 -0.0928 -0.1786 -0.1686
  558PYPI    C2 8746   1.917   3.665  10.433  0.3441  0.0759  0.0972
  558PYPI    C3 8747   1.697   3.613  10.103 -0.0997 -0.0914  0.4090
  558PYPI   PO4 8748   2.258   3.900  10.062 -0.1438 -0.1787  0.4270
  558PYPI   GL1 8749   2.435   3.954   9.677  0.0890  0.1696 -0.5004
  558PYPI   GL2 8750   2.433   3.579   9.721 -0.0425  0.2974  0.0487
  558PYPI   C1A 8751   2.407   3.896   9.243  0.0446  0.2574  0.2410
  558PYPI   C2A 8752   2.409   3.807   8.773  0.2480  0.0303 -0.2093
  558PYPI   D3A 8753   2.304   4.051   8.465  0.0712  0.0464  0.0450
  558PYPI   C4A 8754   2.357   3.760   8.108  0.0426 -0.0497 -0.2254
  558PYPI   C1B 8755   2.454   3.404   9.286  0.0693  0.0684 -0.1507
  558PYPI   C2B 8756   2.447   3.186   8.851  0.0200 -0.1144 -0.0078
  558PYPI   C3B 8757   2.494   3.335   8.360 -0.2340 -0.1539 -0.4717
  558PYPI   C4B 8758   2.458   3.234   7.944 -0.2479  0.1564 -0.1829
  559PYPI    C1 8759   2.523   9.853  10.046 -0.0995  0.2764  0.1789
  559PYPI    C2 8760   2.702   9.696  10.367 -0.0398  0.0633  0.0431
  559PYPI    C3 8761   2.332   9.843  10.397 -0.0070  0.1109  0.2257
  559PYPI   PO4 8762   2.522   9.723   9.809  0.0106  0.0698 -0.4570
  559PYPI   GL1 8763   2.523   9.995   9.444  0.1290  0.5361  0.2345
  559PYPI   GL2 8764   2.590   9.588   9.289 -0.0549  0.3242 -0.0329
  559PYPI   C1A 8765   2.432  10.009   9.006  0.1884  0.1386 -0.1196
  559PYPI   C2A 8766   2.549  10.004   8.528  0.1284 -0.1914 -0.0071
  559PYPI   D3A 8767   2.771   9.906   8.113 -0.0072 -0.2149  0.0142
  559PYPI   C4A 8768   3.111  10.034   8.044 -0.0155 -0.2299  0.1093
  559PYPI   C1B 8769   2.594   9.519   8.888  0.1848 -0.2234 -0.0752
  559PYPI   C2B 8770   2.562   9.513   8.420 -0.2093 -0.2031 -0.0189
  559PYPI   C3B 8771   2.410   9.520   7.970  0.0779 -0.1308 -0.3216
  559PYPI   C4B 8772   2.576   9.701   7.667  0.0307 -0.0224 -0.1286
  560PYPI    C1 8773  16.204   5.475  10.372  0.1441 -0.2575 -0.1830
  560PYPI    C2 8774  16.598   5.423  10.321  0.2110 -0.1018  0.1498
  560PYPI    C3 8775  16.458   5.773  10.455 -0.0779 -0.0193 -0.3416
  560PYPI   PO4 8776  16.050   5.312  10.163 -0.0926 -0.1421 -0.1088
  560PYPI   GL1 8777  15.975   5.516   9.712 -0.3284 -0.4013  0.1655
  560PYPI   GL2 8778  15.755   5.482   9.713  0.2876  0.0552 -0.0747
  560PYPI   C1A 8779  16.034   5.676   9.275 -0.0547  0.0279 -0.0850
  560PYPI   C2A 8780  16.017   5.743   8.823  0.0952  0.3865  0.2718
  560PYPI   D3A 8781  16.154   6.076   8.517  0.2543 -0.2589 -0.4558
  560PYPI   C4A 8782  16.308   5.990   8.116 -0.3628  0.1142 -0.3038
  560PYPI   C1B 8783  15.560   5.680   9.379  0.0185  0.2574 -0.1798
  560PYPI   C2B 8784  15.556   5.623   8.982 -0.0892 -0.2071 -0.0428
  560PYPI   C3B 8785  15.563   5.640   8.589 -0.2037 -0.1739 -0.1780
  560PYPI   C4B 8786  15.883   5.781   8.237  0.2956  0.1316  0.0340
  561PYPI    C1 8787   4.028   1.460   9.995 -0.0820 -0.4348 -0.0962
  561PYPI    C2 8788   4.326   1.423   9.731  0.0300 -0.1753 -0.0090
  561PYPI    C3 8789   4.408   1.460  10.121 -0.1146 -0.0696  0.0122
  561PYPI   PO4 8790   3.820   1.524   9.861 -0.0296  0.2461  0.0783
  561PYPI   GL1 8791   3.701   1.791   9.593  0.0462  0.0799  0.1134
  561PYPI   GL2 8792   3.742   2.094   9.562  0.3229  0.2850 -0.2466
  561PYPI   C1A 8793   3.366   1.860   9.335 -0.2132  0.0223 -0.1095
  561PYPI   C2A 8794   3.368   1.679   8.906  0.1712 -0.0907 -0.2383
  561PYPI   D3A 8795   3.373   1.627   8.377 -0.0079  0.2940  0.1948
  561PYPI   C4A 8796   3.144   1.875   8.003 -0.3534 -0.0932  0.0924
  561PYPI   C1B 8797   3.778   2.347   9.143 -0.1715  0.4234 -0.0505
  561PYPI   C2B 8798   3.737   2.451   8.700 -0.1814 -0.3042 -0.0706
  561PYPI   C3B 8799   3.732   2.592   8.181 -0.0176  0.3900  0.1156
  561PYPI   C4B 8800   3.529   3.057   8.095  0.2232 -0.0328 -0.0111
  562PYPI    C1 8801  16.899  14.658   9.653  0.2012  0.0954 -0.0247
  562PYPI    C2 8802  16.903  15.037   9.781 -0.0129  0.0428  0.1439
  562PYPI    C3 8803  16.585  14.895   9.584  0.0778 -0.0423  0.0572
  562PYPI   PO4 8804  17.143  14.603   9.602 -0.1895  0.1626  0.0129
  562PYPI   GL1 8805  17.338  14.553   9.171  0.1464 -0.1458  0.2831
  562PYPI   GL2 8806  17.398  14.813   9.057  0.2589 -0.0429 -0.0304
  562PYPI   C1A 8807  17.437  14.233   8.877  0.1409  0.4157 -0.1076
  562PYPI   C2A 8808  17.583  14.322   8.384  0.1652  0.0473  0.1029
  562PYPI   D3A 8809  17.459  14.444   8.026 -0.4867 -0.2759  0.1520
  562PYPI   C4A 8810  17.723  14.489   7.715 -0.2051 -0.0586  0.1823
  562PYPI   C1B 8811  17.277  14.720   8.546  0.0924  0.2938 -0.0289
  562PYPI   C2B 8812  17.223  14.911   8.132  0.0774  0.0975 -0.0604
  562PYPI   C3B 8813  16.936  15.308   7.948 -0.4377  0.1209  0.4511
  562PYPI   C4B 8814  16.829  15.487   7.557 -0.1551  0.0557  0.0146
  563PYPI    C1 8815   5.235   0.631  10.255  0.0267 -0.0059 -0.0661
  563PYPI    C2 8816   5.457   0.323  10.130 -0.1543 -0.2052  0.0961
  563PYPI    C3 8817   5.158   0.262  10.390 -0.2635  0.0914  0.0437
  563PYPI   PO4 8818   5.155   0.725  10.039 -0.2604 -0.1747  0.1743
  563PYPI   GL1 8819   5.501   0.889   9.688  0.0250 -0.0278  0.3340
  563PYPI   GL2 8820   5.565   0.646   9.554  0.0817 -0.0679  0.2034
  563PYPI   C1A 8821   5.272   1.072   9.380 -0.1345 -0.1130 -0.1652
  563PYPI   C2A 8822   5.250   1.090   8.968 -0.0106  0.2138  0.4999
  563PYPI   D3A 8823   5.260   1.408   8.641 -0.0810  0.1363  0.0550
  563PYPI   C4A 8824   5.219   1.330   8.208 -0.0635  0.1533  0.1413
  563PYPI   C1B 8825   5.638   0.792   9.204  0.0814  0.0090  0.2436
  563PYPI   C2B 8826   5.625   0.898   8.723  0.2222 -0.0402 -0.0551
  563PYPI   C3B 8827   5.693   0.965   8.240  0.1697  0.2748  0.1338
  563PYPI   C4B 8828   5.674   1.099   7.733 -0.2528 -0.0462 -0.2430
  564PYPI    C1 8829  10.857   3.047  10.331  0.0143 -0.0530 -0.1393
  564PYPI    C2 8830  11.255   3.076  10.358 -0.0046  0.3170 -0.1980
  564PYPI    C3 8831  11.024   3.221  10.650 -0.0961 -0.0574 -0.0786
  564PYPI   PO4 8832  10.792   3.083  10.054 -0.1343  0.2856  0.1040
  564PYPI   GL1 8833  10.826   3.230   9.598 -0.1744 -0.0103  0.1867
  564PYPI   GL2 8834  10.660   3.389   9.409  0.0559  0.0253 -0.0143
  564PYPI   C1A 8835  10.711   2.961   9.242  0.0734 -0.0869  0.0033
  564PYPI   C2A 8836  10.488   2.854   8.833 -0.0481  0.1027  0.0161
  564PYPI   D3A 8837  10.624   3.027   8.431  0.2933  0.3342 -0.2120
  564PYPI   C4A 8838  10.478   3.110   7.986  0.2090 -0.1616 -0.2233
  564PYPI   C1B 8839  10.659   3.365   8.871  0.1883 -0.0309  0.3674
  564PYPI   C2B 8840  10.746   3.526   8.420 -0.0899  0.1103 -0.0566
  564PYPI   C3B 8841  10.735   3.505   8.058 -0.2779  0.2579  0.1106
  564PYPI   C4B 8842  10.965   3.250   7.837  0.1023  0.1948 -0.1300
  565PYPI    C1 8843   6.546   7.956   9.702  0.2713 -0.0467 -0.0491
  565PYPI    C2 8844   6.705   7.597   9.777  0.0047 -0.1136  0.2120
  565PYPI    C3 8845   6.483   7.780  10.055  0.0710  0.2193  0.0509
  565PYPI   PO4 8846   6.769   8.000   9.427 -0.0534  0.0662 -0.3494
  565PYPI   GL1 8847   7.132   7.918   9.132 -0.0600 -0.1728 -0.0088
  565PYPI   GL2 8848   7.345   7.822   8.988  0.2221  0.3866 -0.0806
  565PYPI   C1A 8849   6.841   7.935   8.739 -0.2971  0.0713 -0.1248
  565PYPI   C2A 8850   7.112   8.084   8.301 -0.0039 -0.2730 -0.1140
  565PYPI   D3A 8851   7.156   8.030   7.847  0.4364 -0.2415  0.0749
  565PYPI   C4A 8852   6.779   8.199   7.591 -0.0304 -0.1180  0.1762
  565PYPI   C1B 8853   7.612   7.588   8.832  0.1076  0.0034  0.2860
  565PYPI   C2B 8854   7.788   7.732   8.513 -0.0338 -0.1344 -0.0313
  565PYPI   C3B 8855   8.196   7.841   8.245 -0.1578 -0.1468  0.2162
  565PYPI   C4B 8856   8.535   7.981   8.065  0.5892  0.0309 -0.2120
  566PYPI    C1 8857  15.654  18.278  10.045 -0.1525  0.3613  0.0764
  566PYPI    C2 8858  15.428  18.476  10.308 -0.6250 -0.1244  0.0539
  566PYPI    C3 8859  15.467  18.079  10.337 -0.1102 -0.1008 -0.2000
  566PYPI   PO4 8860  15.535  18.280   9.803  0.0398 -0.2205  0.1908
  566PYPI   GL1 8861  15.130  18.278   9.506 -0.1754  0.1917  0.1907
  566PYPI   GL2 8862  15.472  17.983   9.431  0.0465 -0.0126  0.0435
  566PYPI   C1A 8863  15.117  18.318   9.077  0.0335  0.3593 -0.1642
  566PYPI   C2A 8864  15.186  18.214   8.692 -0.4261 -0.3326  0.1734
  566PYPI   D3A 8865  15.416  18.231   8.465 -0.0515 -0.0032 -0.0040
  566PYPI   C4A 8866  15.499  17.895   8.227  0.1052  0.4379  0.3502
  566PYPI   C1B 8867  15.697  18.188   9.057 -0.1484  0.1504 -0.2975
  566PYPI   C2B 8868  15.844  18.216   8.599 -0.1666  0.3247  0.0141
  566PYPI   C3B 8869  15.817  18.280   8.137 -0.0472  0.0686 -0.2041
  566PYPI   C4B 8870  16.178  18.285   7.924 -0.0614  0.0714  0.0800
  567PYPI    C1 8871   1.180  14.926   9.866  0.0122  0.2250 -0.0470
  567PYPI    C2 8872   1.156  14.631  10.136  0.0887  0.1434 -0.1285
  567PYPI    C3 8873   1.379  14.954  10.212  0.1281  0.1104 -0.1036
  567PYPI   PO4 8874   1.197  14.859   9.601 -0.0792  0.1612 -0.1217
  567PYPI   GL1 8875   1.246  14.809   9.195  0.0467  0.1279 -0.3750
  567PYPI   GL2 8876   1.305  15.170   9.095  0.0964 -0.0267  0.0371
  567PYPI   C1A 8877   1.507  14.750   8.755 -0.3341  0.0400 -0.0302
  567PYPI   C2A 8878   1.587  14.893   8.300 -0.1218 -0.1173  0.0324
  567PYPI   D3A 8879   1.471  15.130   7.909 -0.1477 -0.0322 -0.3999
  567PYPI   C4A 8880   1.308  15.440   7.628 -0.0329  0.0426 -0.3460
  567PYPI   C1B 8881   1.403  15.405   8.792 -0.1053 -0.0246  0.2926
  567PYPI   C2B 8882   1.483  15.526   8.315 -0.1736 -0.0773  0.0392
  567PYPI   C3B 8883   1.378  15.829   7.961 -0.1708 -0.0208  0.2552
  567PYPI   C4B 8884   1.378  15.987   7.540 -0.0606  0.2390  0.4985
  568PYPI    C1 8885   5.064  17.140   9.866 -0.0176  0.0107  0.0374
  568PYPI    C2 8886   5.401  17.121  10.081  0.2242  0.1832 -0.3162
  568PYPI    C3 8887   5.132  17.408  10.155  0.1744  0.0743 -0.0648
  568PYPI   PO4 8888   5.123  17.081   9.604 -0.1128 -0.3540  0.0902
  568PYPI   GL1 8889   5.161  16.922   9.259 -0.1281 -0.1505 -0.0490
  568PYPI   GL2 8890   5.079  16.663   9.178  0.3552  0.3578 -0.1925
  568PYPI   C1A 8891   5.368  16.977   8.931  0.1019  0.2899  0.3706
  568PYPI   C2A 8892   5.235  17.006   8.506 -0.1288 -0.1022 -0.1812
  568PYPI   D3A 8893   4.986  16.826   8.370  0.0781  0.4378 -0.0026
  568PYPI   C4A 8894   5.019  16.722   7.981  0.1207 -0.1596  0.0741
  568PYPI   C1B 8895   4.780  16.919   8.927  0.2442  0.0414 -0.1127
  568PYPI   C2B 8896   4.823  17.164   8.760  0.3568  0.0272  0.2237
  568PYPI   C3B 8897   4.779  17.276   8.252 -0.2371 -0.3360  0.0284
  568PYPI   C4B 8898   5.141  17.226   7.931 -0.2310 -0.2148 -0.1543
  569PYPI    C1 8899  16.327  15.656   9.872 -0.2312  0.1254 -0.1474
  569PYPI    C2 8900  16.335  15.588  10.266 -0.0214  0.1222 -0.1508
  569PYPI    C3 8901  15.986  15.650  10.081 -0.1222  0.1119  0.0329
  569PYPI   PO4 8902  16.527  15.851   9.828 -0.3649  0.0372  0.3113
  569PYPI   GL1 8903  16.509  16.180   9.511  0.1588 -0.0266  0.0178
  569PYPI   GL2 8904  16.331  15.890   9.365 -0.1088  0.4269  0.0237
  569PYPI   C1A 8905  16.917  16.329   9.644 -0.0505 -0.1012 -0.1564
  569PYPI   C2A 8906  17.080  16.668   9.603  0.0709 -0.1663  0.4357
  569PYPI   D3A 8907  17.301  17.090   9.596  0.3036 -0.0955 -0.1396
  569PYPI   C4A 8908  17.321  17.228   9.221  0.0569 -0.1676  0.0485
  569PYPI   C1B 8909  16.100  16.177   9.122 -0.0657  0.2573 -0.1593
  569PYPI   C2B 8910  15.734  16.292   9.083  0.2904  0.1257  0.1866
  569PYPI   C3B 8911  15.262  16.066   9.071 -0.0045 -0.1379  0.1970
  569PYPI   C4B 8912  14.851  16.052   9.001  0.1189 -0.1163 -0.4208
  570PYPI    C1 8913  11.276  12.247   9.994  0.2151  0.3184 -0.0338
  570PYPI    C2 8914  11.057  12.333  10.317  0.0825  0.0001 -0.0353
  570PYPI    C3 8915  11.433  12.465  10.290  0.1665 -0.1489  0.3480
  570PYPI   PO4 8916  11.189  12.026   9.901 -0.2214  0.2586  0.0539
  570PYPI   GL1 8917  11.132  11.741   9.636  0.0312 -0.0706 -0.0292
  570PYPI   GL2 8918  10.821  11.995   9.555 -0.2151  0.1064 -0.1691
  570PYPI   C1A 8919  11.232  11.573   9.209 -0.1134 -0.0794  0.4031
  570PYPI   C2A 8920  11.304  11.794   8.816  0.2843  0.1592  0.0068
  570PYPI   D3A 8921  11.523  12.079   8.709 -0.0926 -0.0273 -0.2785
  570PYPI   C4A 8922  11.954  12.213   8.870 -0.1957  0.2527  0.1344
  570PYPI   C1B 8923  10.601  12.039   9.168 -0.2225  0.1708  0.2857
  570PYPI   C2B 8924  10.650  11.995   8.689  0.1070  0.1797 -0.2820
  570PYPI   C3B 8925  10.485  12.066   8.316  0.2269 -0.0696 -0.1201
  570PYPI   C4B 8926  10.400  12.109   7.808  0.2173 -0.0141  0.2085
  571PYPI    C1 8927   6.505  18.221   9.703 -0.2474  0.1234  0.2217
  571PYPI    C2 8928   6.281  17.891   9.735 -0.2161  0.0939  0.1389
  571PYPI    C3 8929   6.108  18.244   9.659 -0.2152  0.0358 -0.1455
  571PYPI   PO4 8930   6.676  18.050   9.496  0.0756  0.3667 -0.2236
  571PYPI   GL1 8931   7.147  17.980   9.301 -0.0840 -0.2370  0.0958
  571PYPI   GL2 8932   6.956  17.669   9.235  0.0352  0.3521  0.0068
  571PYPI   C1A 8933   7.197  17.933   8.911  0.0074 -0.2113  0.2251
  571PYPI   C2A 8934   7.188  18.037   8.444 -0.2315  0.3300  0.1016
  571PYPI   D3A 8935   7.512  18.056   8.199  0.0687 -0.1482 -0.0200
  571PYPI   C4A 8936   7.459  18.248   7.804 -0.0593 -0.3573 -0.1480
  571PYPI   C1B 8937   6.886  17.453   8.936  0.2659  0.2352 -0.0464
  571PYPI   C2B 8938   7.124  17.488   8.495 -0.3425 -0.0758 -0.1449
  571PYPI   C3B 8939   7.333  17.639   8.120  0.0913 -0.0183  0.2661
  571PYPI   C4B 8940   7.025  17.935   7.892  0.0010  0.0433 -0.0306
  572PYPI    C1 8941  11.727   6.131  10.163  0.1526  0.3080  0.4947
  572PYPI    C2 8942  11.432   6.377  10.052 -0.0270 -0.0918  0.0519
  572PYPI    C3 8943  11.412   6.185  10.403 -0.0778  0.2124  0.2189
  572PYPI   PO4 8944  11.736   5.946  10.001  0.1112  0.0432  0.0010
  572PYPI   GL1 8945  11.766   5.934   9.507  0.2222  0.3593 -0.0988
  572PYPI   GL2 8946  11.573   5.713   9.535  0.1289 -0.1084 -0.2595
  572PYPI   C1A 8947  11.754   6.072   9.142 -0.1162  0.1576 -0.0959
  572PYPI   C2A 8948  11.654   5.919   8.787  0.2663  0.0516  0.1255
  572PYPI   D3A 8949  11.530   5.809   8.283 -0.0467  0.2910  0.0604
  572PYPI   C4A 8950  11.233   5.441   8.163 -0.3182  0.2379  0.0041
  572PYPI   C1B 8951  11.849   5.500   9.195 -0.1407  0.1411 -0.0187
  572PYPI   C2B 8952  12.096   5.287   8.780  0.2659 -0.0287 -0.1474
  572PYPI   C3B 8953  12.493   5.355   8.615  0.1063 -0.4460 -0.0650
  572PYPI   C4B 8954  13.038   5.512   8.539 -0.2192  0.1475 -0.2576
  573PYPI    C1 8955  17.427   6.844  10.164  0.0403  0.1170 -0.0104
  573PYPI    C2 8956  17.066   6.952  10.032 -0.0389 -0.0273  0.0846
  573PYPI    C3 8957  17.339   7.231  10.117 -0.0655  0.0760 -0.1584
  573PYPI   PO4 8958  17.501   6.633   9.986 -0.1579 -0.0027  0.1240
  573PYPI   GL1 8959  17.433   6.469   9.523 -0.3348  0.1350 -0.1047
  573PYPI   GL2 8960  17.226   6.663   9.569 -0.2294 -0.0222 -0.0949
  573PYPI   C1A 8961  17.255   6.554   9.068 -0.0078  0.2016 -0.1142
  573PYPI   C2A 8962  17.163   6.702   8.712  0.1541  0.0261  0.0673
  573PYPI   D3A 8963  17.123   6.542   8.415  0.2727 -0.4949  0.3292
  573PYPI   C4A 8964  17.131   6.157   8.344  0.1887 -0.0442  0.1073
  573PYPI   C1B 8965  17.120   6.986   9.341  0.0346  0.0938 -0.0691
  573PYPI   C2B 8966  17.117   7.152   8.944 -0.3299 -0.0103  0.2830
  573PYPI   C3B 8967  17.084   7.160   8.461  0.0693  0.0847 -0.1308
  573PYPI   C4B 8968  17.153   7.400   8.043  0.1548 -0.2643  0.0278
  574ERGO   ROH 8969  16.766   2.245   6.305  0.0588 -0.1102  0.1659
  574ERGO    R1 8970  16.826   2.000   6.433  0.0919 -0.1527  0.0697
  574ERGO    R2 8971  17.075   1.880   6.416  0.1456 -0.0499  0.1233
  574ERGO    R3 8972  17.059   1.885   6.688  0.0180 -0.1924  0.1197
  574ERGO    R4 8973  17.161   1.617   6.623  0.2530 -0.0840  0.0363
  574ERGO    R5 8974  16.987   1.664   6.747  0.1599 -0.2771 -0.0191
  574ERGO    C1 8975  17.197   1.468   6.999  0.1957 -0.2376 -0.0177
  574ERGO    C2 8976  17.279   1.216   7.068  0.2958 -0.1436 -0.1319
  575ERGO   ROH 8977  11.191  15.857   6.076 -0.0084  0.0447  0.1683
  575ERGO    R1 8978  11.230  15.677   6.291  0.1233 -0.2365 -0.0833
  575ERGO    R2 8979  11.048  15.648   6.496  0.5740  0.0619  0.3873
  575ERGO    R3 8980  11.059  15.386   6.426 -0.2626  0.0694  0.1078
  575ERGO    R4 8981  10.940  15.387   6.695  0.5900  0.1550  0.5192
  575ERGO    R5 8982  11.115  15.273   6.630  0.1433 -0.2210 -0.1490
  575ERGO    C1 8983  10.889  14.988   6.745 -0.1860  0.2164  0.3337
  575ERGO    C2 8984  10.665  14.831   6.961 -0.0325  0.1408 -0.0863
  576ERGO   ROH 8985  13.098  18.622   6.238 -0.0493  0.0247  0.0825
  576ERGO    R1 8986  13.277  18.650   6.455 -0.0958 -0.0189  0.1275
  576ERGO    R2 8987  13.225  18.815   6.671 -0.0656  0.0741  0.0678
  576ERGO    R3 8988  13.271  18.588   6.813 -0.2402  0.0840  0.1430
  576ERGO    R4 8989  13.359  18.804   6.989  0.0681  0.0627  0.0114
  576ERGO    R5 8990  13.476  18.631   6.929 -0.1424 -0.0853  0.0321
  576ERGO    C1 8991  13.481  18.585   7.308 -0.0179  0.0655  0.0493
  576ERGO    C2 8992  13.649  18.605   7.642 -0.1094 -0.0735  0.2185
  577ERGO   ROH 8993  12.824   9.154   9.009  0.0901 -0.0725 -0.0956
  577ERGO    R1 8994  12.755   9.177   8.736  0.0471  0.0024 -0.0798
  577ERGO    R2 8995  12.804   9.406   8.589  0.0405  0.0410 -0.0329
  577ERGO    R3 8996  12.932   9.232   8.423  0.0032  0.0699 -0.0905
  577ERGO    R4 8997  12.861   9.459   8.252  0.0883  0.1450 -0.0082
  577ERGO    R5 8998  12.814   9.250   8.216  0.0325  0.1792 -0.0927
  577ERGO    C1 8999  13.014   9.327   7.900  0.0810  0.2327 -0.0478
  577ERGO    C2 9000  13.027   9.364   7.498  0.2281 -0.0121  0.0308
  578ERGO   ROH 9001  16.163   5.098   6.115  0.1974  0.1959 -0.0259
  578ERGO    R1 9002  16.278   5.078   6.373  0.0798  0.0781  0.0191
  578ERGO    R2 9003  16.139   5.137   6.603 -0.0050  0.0385 -0.0225
  578ERGO    R3 9004  16.217   4.887   6.676 -0.1050 -0.0073 -0.0701
  578ERGO    R4 9005  16.057   4.984   6.902  0.0568  0.0748  0.0135
  578ERGO    R5 9006  16.259   4.904   6.912  0.0201 -0.0369 -0.0892
  578ERGO    C1 9007  16.082   4.660   7.145 -0.0011  0.0528 -0.0104
  578ERGO    C2 9008  16.013   4.411   7.401  0.5194 -0.3159 -0.1994
  579ERGO   ROH 9009   4.803   0.194   9.505 -0.0933  0.0146 -0.0185
  579ERGO    R1 9010   4.754   0.166   9.227  0.1246 -0.0597 -0.0520
  579ERGO    R2 9011   4.617   0.356   9.080 -0.2123 -0.3267 -0.1039
  579ERGO    R3 9012   4.840   0.347   8.924 -0.0903  0.1743  0.0242
  579ERGO    R4 9013   4.621   0.404   8.738 -0.1085 -0.2679 -0.0942
  579ERGO    R5 9014   4.767   0.243   8.721  0.2536  0.0422 -0.0365
  579ERGO    C1 9015   4.832   0.424   8.392  0.0665  0.2366  0.0315
  579ERGO    C2 9016   4.894   0.521   8.055 -0.2759 -0.0482 -0.0790
  580ERGO   ROH 9017   7.652   8.711   5.803 -0.1413 -0.2035 -0.0138
  580ERGO    R1 9018   7.553   8.834   6.037 -0.1287 -0.0746 -0.0752
  580ERGO    R2 9019   7.288   8.817   6.113 -0.1014 -0.1354  0.0122
  580ERGO    R3 9020   7.394   8.726   6.346  0.0059  0.0807  0.0501
  580ERGO    R4 9021   7.110   8.769   6.406 -0.0658 -0.2987  0.0076
  580ERGO    R5 9022   7.279   8.850   6.516 -0.1869 -0.0269  0.0016
  580ERGO    C1 9023   7.106   8.656   6.795  0.0557 -0.1911  0.0404
  580ERGO    C2 9024   6.943   8.412   7.069 -0.0171  0.2838 -0.0752
  581ERGO   ROH 9025  10.664  13.527   6.025 -0.1711 -0.0742  0.0877
  581ERGO    R1 9026  10.853  13.591   6.225 -0.0751 -0.0875  0.0031
  581ERGO    R2 9027  10.819  13.802   6.400  0.1101  0.0346 -0.1006
  581ERGO    R3 9028  10.857  13.610   6.589  0.0307  0.1103 -0.0080
  581ERGO    R4 9029  10.901  13.864   6.730  0.3180  0.1512 -0.1722
  581ERGO    R5 9030  11.037  13.694   6.723  0.1655  0.0292 -0.1396
  581ERGO    C1 9031  10.983  13.720   7.100  0.3645  0.2900 -0.1270
  581ERGO    C2 9032  11.060  13.908   7.270 -0.1108 -0.0805  0.3015
  582ERGO   ROH 9033  17.146   6.110   9.645  0.3079 -0.1622 -0.0221
  582ERGO    R1 9034  17.135   6.113   9.362  0.1306 -0.2588 -0.0158
  582ERGO    R2 9035  16.961   5.952   9.219 -0.1548 -0.1048  0.1597
  582ERGO    R3 9036  16.885   6.188   9.108  0.0578 -0.0552  0.1112
  582ERGO    R4 9037  16.850   5.990   8.895 -0.0352 -0.0636  0.1216
  582ERGO    R5 9038  16.964   6.176   8.882  0.1158 -0.1473  0.1312
  582ERGO    C1 9039  16.713   6.235   8.601  0.2342  0.0070  0.0540
  582ERGO    C2 9040  16.574   6.326   8.321  0.1379  0.0085 -0.1968
  583ERGO   ROH 9041   4.204  15.562   5.868  0.0403 -0.0275  0.0816
  583ERGO    R1 9042   4.264  15.443   6.118  0.0318 -0.0398  0.0770
  583ERGO    R2 9043   4.269  15.587   6.353  0.0247 -0.0537  0.0810
  583ERGO    R3 9044   4.094  15.397   6.436  0.0234 -0.0573  0.0715
  583ERGO    R4 9045   4.168  15.542   6.681 -0.0598  0.0139  0.0651
  583ERGO    R5 9046   4.180  15.326   6.649 -0.0235  0.0030  0.1151
  583ERGO    C1 9047   3.946  15.337   6.950 -0.1101  0.0497  0.0470
  583ERGO    C2 9048   3.942  15.435   7.269  0.1717 -0.0322  0.2903
  584ERGO   ROH 9049   3.872   5.096   8.941  0.1821  0.2125 -0.0513
  584ERGO    R1 9050   3.889   5.199   8.678  0.2929  0.1316 -0.0778
  584ERGO    R2 9051   4.129   5.262   8.558  0.3580 -0.0667 -0.0620
  584ERGO    R3 9052   4.039   5.096   8.362  0.2702 -0.0583 -0.0276
  584ERGO    R4 9053   4.143   5.330   8.219  0.3195 -0.1076 -0.0709
  584ERGO    R5 9054   3.944   5.243   8.199  0.2887 -0.0460 -0.0260
  584ERGO    C1 9055   4.065   5.214   7.838  0.2146 -0.1236 -0.0438
  584ERGO    C2 9056   4.273   5.152   7.569 -0.1835  0.3832  0.1546
  585ERGO   ROH 9057   1.206  15.677   9.149 -0.0724  0.2276  0.0853
  585ERGO    R1 9058   1.102  15.811   8.923  0.2501  0.1743 -0.1005
  585ERGO    R2 9059   1.240  15.832   8.685  0.2984 -0.5147 -0.1440
  585ERGO    R3 9060   1.013  15.724   8.581  0.0107 -0.1000  0.0256
  585ERGO    R4 9061   1.130  15.878   8.361  0.2336 -0.4314 -0.1112
  585ERGO    R5 9062   0.926  15.895   8.438  0.2919  0.0273 -0.0081
  585ERGO    C1 9063   0.852  15.804   8.075 -0.0742  0.0063  0.0672
  585ERGO    C2 9064   0.944  15.739   7.664 -0.1343 -0.0194 -0.3254
  586ERGO   ROH 9065  13.378  13.453   9.409 -0.3267  0.0839 -0.0735
  586ERGO    R1 9066  13.462  13.467   9.139 -0.2199 -0.0068 -0.0453
  586ERGO    R2 9067  13.285  13.468   8.927 -0.1443  0.1105 -0.1066
  586ERGO    R3 9068  13.417  13.695   8.859  0.0563  0.0028 -0.0862
  586ERGO    R4 9069  13.250  13.633   8.626 -0.2736  0.3543  0.0378
  586ERGO    R5 9070  13.466  13.668   8.626 -0.2230  0.0970 -0.1623
  586ERGO    C1 9071  13.354  13.942   8.386 -0.1605  0.3950  0.1410
  586ERGO    C2 9072  13.196  14.085   8.137 -0.1301  0.0206 -0.2724
  587ERGO   ROH 9073  13.653  12.959   5.845 -0.1132  0.1886 -0.0233
  587ERGO    R1 9074  13.749  13.022   6.104  0.0029  0.3415 -0.1022
  587ERGO    R2 9075  13.695  13.263   6.227 -0.2891  0.2567 -0.0555
  587ERGO    R3 9076  13.604  13.103   6.427  0.1375  0.0978  0.0209
  587ERGO    R4 9077  13.548  13.376   6.519 -0.4778  0.0057 -0.0504
  587ERGO    R5 9078  13.658  13.222   6.628 -0.0826  0.2900 -0.0315
  587ERGO    C1 9079  13.377  13.291   6.877 -0.1872 -0.2896  0.0243
  587ERGO    C2 9080  13.260  13.351   7.177  0.1880  0.2061 -0.0018
  588ERGO   ROH 9081   4.154  13.971   9.053  0.0020  0.1634 -0.0863
  588ERGO    R1 9082   4.254  13.792   8.857  0.0179  0.1297 -0.0467
  588ERGO    R2 9083   4.160  13.788   8.597  0.0446  0.0891 -0.0527
  588ERGO    R3 9084   4.423  13.818   8.537  0.0514  0.0716 -0.0346
  588ERGO    R4 9085   4.299  13.727   8.287  0.0876 -0.0944  0.0011
  588ERGO    R5 9086   4.471  13.637   8.387  0.0832 -0.0212  0.0826
  588ERGO    C1 9087   4.628  13.719   8.049  0.1190 -0.2177  0.0494
  588ERGO    C2 9088   4.852  13.800   7.694 -0.2748  0.6937  0.0908
  589ERGO   ROH 9089  17.267  17.952   5.935 -0.1035 -0.1563  0.0311
  589ERGO    R1 9090  17.337  17.789   6.155  0.1163 -0.0158  0.0696
  589ERGO    R2 9091  17.579  17.811   6.286  0.0695  0.3838  0.1086
  589ERGO    R3 9092  17.422  17.840   6.506 -0.0181  0.1778  0.0748
  589ERGO    R4 9093  17.695  17.835   6.611 -0.0625  0.1247  0.1766
  589ERGO    R5 9094  17.529  17.708   6.674 -0.0693  0.0505  0.0064
  589ERGO    C1 9095  17.614  17.876   7.006 -0.2212 -0.2194  0.1844
  589ERGO    C2 9096  17.503  18.064   7.233 -0.0298  0.1993  0.0753
  590ERGO   ROH 9097  16.934  13.002   9.479  0.0328 -0.1283 -0.0489
  590ERGO    R1 9098  17.025  13.098   9.229 -0.1777 -0.0308 -0.0914
  590ERGO    R2 9099  17.284  13.057   9.138 -0.0679  0.5015 -0.0715
  590ERGO    R3 9100  17.156  12.953   8.922  0.1499  0.1138 -0.0218
  590ERGO    R4 9101  17.419  13.031   8.822  0.0453  0.4423 -0.0181
  590ERGO    R5 9102  17.227  13.090   8.739 -0.0253  0.0676 -0.1192
  590ERGO    C1 9103  17.379  12.919   8.434  0.3156  0.0439  0.0600
  590ERGO    C2 9104  17.469  13.093   8.087  0.0173 -0.1892  0.0269
  591ERGO   ROH 9105  15.854   1.108   9.515 -0.2329  0.0971  0.0795
  591ERGO    R1 9106  15.823   1.042   9.242 -0.1122  0.0650  0.0729
  591ERGO    R2 9107  15.643   1.171   9.076 -0.0310  0.0554 -0.0265
  591ERGO    R3 9108  15.863   1.212   8.923  0.0426  0.0240  0.0700
  591ERGO    R4 9109  15.638   1.246   8.739  0.1327  0.0022 -0.0413
  591ERGO    R5 9110  15.809   1.113   8.712  0.1403 -0.0064  0.0599
  591ERGO    C1 9111  15.842   1.327   8.398  0.2971 -0.0583  0.0408
  591ERGO    C2 9112  15.959   1.527   8.121  0.0692 -0.0371  0.5112
  592ERGO   ROH 9113   4.153   8.858   9.188  0.1255 -0.0650 -0.2439
  592ERGO    R1 9114   4.282   8.835   8.937 -0.0461 -0.0034 -0.3402
  592ERGO    R2 9115   4.381   8.596   8.842  0.0281  0.0474 -0.3976
  592ERGO    R3 9116   4.227   8.655   8.626 -0.1708 -0.0577 -0.2865
  592ERGO    R4 9117   4.480   8.559   8.513 -0.0521  0.4521 -0.4725
  592ERGO    R5 9118   4.380   8.747   8.467 -0.3958  0.3203 -0.2936
  592ERGO    C1 9119   4.392   8.592   8.119 -0.2855  0.5890 -0.4116
  592ERGO    C2 9120   4.487   8.662   7.851  0.2192  0.1891 -0.0177
  593ERGO   ROH 9121   1.161  16.778   9.021 -0.1995 -0.2140 -0.0501
  593ERGO    R1 9122   1.043  16.838   8.771 -0.0562  0.2313 -0.0213
  593ERGO    R2 9123   1.153  17.019   8.593  0.4934 -0.0356  0.0211
  593ERGO    R3 9124   1.137  16.810   8.420 -0.1710  0.0419 -0.0378
  593ERGO    R4 9125   1.103  17.048   8.253  0.6968  0.2278  0.0112
  593ERGO    R5 9126   0.970  16.876   8.262  0.0886  0.6653 -0.0783
  593ERGO    C1 9127   1.060  16.869   7.892  0.1916  0.4537 -0.0501
  593ERGO    C2 9128   1.208  16.814   7.581  0.2158  0.1846 -0.1095
  594ERGO   ROH 9129   1.190  15.545   5.780  0.1234  0.0932  0.1117
  594ERGO    R1 9130   1.141  15.781   5.928  0.1105  0.1050  0.0883
  594ERGO    R2 9131   0.890  15.849   6.021  0.0742  0.1889 -0.0700
  594ERGO    R3 9132   1.018  15.864   6.260 -0.0738  0.1370  0.0136
  594ERGO    R4 9133   0.749  15.968   6.313 -0.1443  0.0224 -0.1054
  594ERGO    R5 9134   0.938  16.068   6.358 -0.2037  0.0710  0.0484
  594ERGO    C1 9135   0.786  16.052   6.707 -0.4105 -0.1232 -0.0475
  594ERGO    C2 9136   0.725  16.167   7.112 -0.0109 -0.2065 -0.0892
  595ERGO   ROH 9137   8.967  12.386   9.603  0.0897 -0.2866  0.0590
  595ERGO    R1 9138   8.981  12.520   9.354  0.0484 -0.2413  0.0805
  595ERGO    R2 9139   9.208  12.517   9.197  0.0184 -0.2222  0.0366
  595ERGO    R3 9140   9.036  12.427   9.007 -0.0213 -0.1796  0.0527
  595ERGO    R4 9141   9.278  12.503   8.858 -0.1424  0.0979 -0.0139
  595ERGO    R5 9142   9.074  12.571   8.819 -0.2096  0.0003  0.1469
  595ERGO    C1 9143   9.157  12.410   8.483 -0.2734  0.3244 -0.0281
  595ERGO    C2 9144   8.942  12.484   8.197 -0.1598 -0.0617  0.3015
  596ERGO   ROH 9145   6.270   4.141   6.054 -0.0801  0.0487  0.0056
  596ERGO    R1 9146   6.180   3.927   6.216 -0.0254  0.0595  0.0515
  596ERGO    R2 9147   6.278   3.881   6.470  0.1355  0.0165 -0.0147
  596ERGO    R3 9148   6.015   3.890   6.538  0.1822  0.0800  0.1617
  596ERGO    R4 9149   6.141   3.727   6.747  0.2917  0.1113  0.1165
  596ERGO    R5 9150   5.969   3.671   6.625  0.1995  0.1115  0.2472
  596ERGO    C1 9151   5.815   3.644   6.973  0.4264  0.2260  0.3585
  596ERGO    C2 9152   5.770   3.508   7.291 -0.2233 -0.2071  0.1637
  597ERGO   ROH 9153   8.594   2.280   6.499 -0.1476 -0.2312  0.0549
  597ERGO    R1 9154   8.473   2.197   6.741 -0.2381 -0.1902  0.0233
  597ERGO    R2 9155   8.456   2.361   6.963 -0.1317 -0.2271  0.0547
  597ERGO    R3 9156   8.191   2.303   6.946 -0.1783 -0.0155  0.0191
  597ERGO    R4 9157   8.258   2.261   7.228 -0.2531 -0.0258  0.0428
  597ERGO    R5 9158   8.161   2.118   7.095 -0.3487  0.0284  0.0463
  597ERGO    C1 9159   7.894   2.148   7.366 -0.3674  0.2900  0.0025
  597ERGO    C2 9160   7.686   2.016   7.667 -0.1181 -0.0539 -0.0703
  598ERGO   ROH 9161   0.363  17.373   9.347  0.1417  0.2328  0.0344
  598ERGO    R1 9162   0.280  17.508   9.113  0.4042  0.3788  0.0243
  598ERGO    R2 9163   0.436  17.519   8.885  0.2971 -0.2367 -0.0878
  598ERGO    R3 9164   0.212  17.420   8.766 -0.1202  0.4005  0.1124
  598ERGO    R4 9165   0.356  17.559   8.551  0.4007 -0.4334 -0.1389
  598ERGO    R5 9166   0.148  17.591   8.610  0.4897  0.4371 -0.1315
  598ERGO    C1 9167   0.100  17.490   8.245  0.0692  0.0499  0.0193
  598ERGO    C2 9168   0.183  17.570   8.021  0.3588  0.0342 -0.0416
  599ERGO   ROH 9169   6.965   3.108   9.538 -0.1920 -0.1921 -0.3389
  599ERGO    R1 9170   6.938   3.195   9.270  0.0290 -0.2437 -0.3803
  599ERGO    R2 9171   7.075   3.414   9.171 -0.0263 -0.1442 -0.2602
  599ERGO    R3 9172   7.158   3.236   8.983  0.3138 -0.1116 -0.1460
  599ERGO    R4 9173   7.112   3.485   8.835 -0.2364 -0.3216 -0.3228
  599ERGO    R5 9174   7.028   3.289   8.789  0.1668 -0.5333 -0.1643
  599ERGO    C1 9175   7.212   3.359   8.462 -0.0394 -0.3942 -0.2520
  599ERGO    C2 9176   7.291   3.391   8.149 -0.2134  0.1955  0.2544
  600ERGO   ROH 9177  14.221  10.313   9.591  0.1253  0.0883  0.1991
  600ERGO    R1 9178  14.368  10.266   9.353  0.0784  0.1919  0.1497
  600ERGO    R2 9179  14.312  10.056   9.183  0.2502  0.0749  0.2377
  600ERGO    R3 9180  14.296  10.253   8.996 -0.0629  0.0046  0.1827
  600ERGO    R4 9181  14.311  10.004   8.841  0.1246 -0.0321  0.2529
  600ERGO    R5 9182  14.440  10.179   8.820 -0.0732  0.1052  0.1300
  600ERGO    C1 9183  14.296  10.159   8.467 -0.2427 -0.1606  0.2101
  600ERGO    C2 9184  14.230  10.092   8.145 -0.2398  0.0400 -0.2384
  601ERGO   ROH 9185  10.199   4.202   9.305  0.1453 -0.0351 -0.1182
  601ERGO    R1 9186  10.355   4.279   9.082  0.1325  0.1023 -0.0831
  601ERGO    R2 9187  10.306   4.186   8.826  0.2418  0.0957 -0.1132
  601ERGO    R3 9188  10.298   4.451   8.766  0.0606  0.0995 -0.0682
  601ERGO    R4 9189  10.383   4.322   8.517  0.2185  0.2250 -0.0611
  601ERGO    R5 9190  10.484   4.485   8.619  0.0653  0.2754 -0.0105
  601ERGO    C1 9191  10.419   4.649   8.281  0.0349  0.3039  0.0114
  601ERGO    C2 9192  10.464   4.624   7.964 -0.0476  0.0235 -0.0426
  602ERGO   ROH 9193   5.699  10.678   5.920 -0.0550  0.4206 -0.0667
  602ERGO    R1 9194   5.659  10.717   6.197 -0.0286  0.2548 -0.0393
  602ERGO    R2 9195   5.448  10.863   6.298 -0.0942  0.0786  0.0727
  602ERGO    R3 9196   5.401  10.637   6.441  0.0619 -0.0213 -0.0292
  602ERGO    R4 9197   5.207  10.832   6.544 -0.0877 -0.2008  0.0479
  602ERGO    R5 9198   5.350  10.716   6.662 -0.0071 -0.1516  0.0054
  602ERGO    C1 9199   5.024  10.601   6.822  0.0627 -0.4572 -0.0623
  602ERGO    C2 9200   4.766  10.586   7.082 -0.0628 -0.1573  0.2516
  603ERGO   ROH 9201   4.044   7.696   9.000 -0.1391  0.0359  0.1849
  603ERGO    R1 9202   3.866   7.685   8.779 -0.1136 -0.0478  0.1666
  603ERGO    R2 9203   3.866   7.877   8.579 -0.1514 -0.0709  0.1360
  603ERGO    R3 9204   3.896   7.660   8.418 -0.0636 -0.0867  0.1752
  603ERGO    R4 9205   3.810   7.875   8.238  0.0376 -0.1184  0.1051
  603ERGO    R5 9206   3.718   7.679   8.259  0.0290 -0.1098  0.0750
  603ERGO    C1 9207   3.806   7.671   7.888  0.2301 -0.1608  0.1239
  603ERGO    C2 9208   3.742   7.572   7.578 -0.0551  0.1396  0.0720
  604ERGO   ROH 9209  13.349  16.458   5.580  0.1439 -0.1701  0.1613
  604ERGO    R1 9210  13.301  16.566   5.838  0.0671  0.0216  0.0693
  604ERGO    R2 9211  13.090  16.738   5.890 -0.0791 -0.1067 -0.0750
  604ERGO    R3 9212  13.032  16.555   6.083  0.0888  0.0112  0.0917
  604ERGO    R4 9213  13.016  16.813   6.219  0.2552  0.0882 -0.0397
  604ERGO    R5 9214  13.135  16.641   6.281  0.2948  0.1122 -0.0577
  604ERGO    C1 9215  12.918  16.685   6.591  0.6076  0.3123  0.1372
  604ERGO    C2 9216  12.792  16.512   6.861  0.2807 -0.1772  0.0666
  605ERGO   ROH 9217   6.256  13.622   5.708 -0.1197 -0.0279  0.1253
  605ERGO    R1 9218   6.195  13.649   5.983  0.0371  0.0471  0.1524
  605ERGO    R2 9219   6.047  13.461   6.122 -0.1643  0.2488  0.2031
  605ERGO    R3 9220   6.262  13.462   6.288 -0.0901 -0.0591  0.1184
  605ERGO    R4 9221   6.045  13.349   6.449 -0.2464  0.3828  0.2509
  605ERGO    R5 9222   6.172  13.518   6.503  0.0790  0.1940  0.1337
  605ERGO    C1 9223   6.246  13.285   6.795 -0.2246  0.1718  0.1992
  605ERGO    C2 9224   6.071  13.201   7.133  0.1869 -0.0348  0.1524
  606ERGO   ROH 9225  17.232   4.512   6.509 -0.0783 -0.0466 -0.0442
  606ERGO    R1 9226  17.206   4.623   6.767  0.0110 -0.0424 -0.0360
  606ERGO    R2 9227  17.250   4.477   6.998 -0.0834 -0.0894 -0.0432
  606ERGO    R3 9228  17.422   4.679   7.054  0.0642 -0.2148 -0.0431
  606ERGO    R4 9229  17.289   4.621   7.310 -0.0626 -0.0309 -0.0730
  606ERGO    R5 9230  17.304   4.815   7.212  0.1287 -0.0724 -0.1206
  606ERGO    C1 9231  17.474   4.893   7.545  0.0879 -0.1146 -0.0902
  606ERGO    C2 9232  17.535   4.729   7.835  0.0288 -0.3086  0.1651
  607ERGO   ROH 9233   2.082  18.221   8.151 -0.0555  0.1276  0.0075
  607ERGO    R1 9234   2.321  18.271   8.009 -0.0075  0.0827  0.0693
  607ERGO    R2 9235   2.550  18.119   8.045 -0.0376  0.0357  0.1295
  607ERGO    R3 9236   2.533  18.089   7.775  0.0149  0.0387  0.1276
  607ERGO    R4 9237   2.816  18.147   7.827 -0.0523  0.2873  0.1426
  607ERGO    R5 9238   2.685  18.253   7.688 -0.1299  0.1740  0.1442
  607ERGO    C1 9239   2.957  18.135   7.447 -0.0115  0.4366  0.1488
  607ERGO    C2 9240   3.140  18.041   7.161 -0.1817  0.0482  0.1157
  608ERGO   ROH 9241   9.901  10.007   9.781  0.2118  0.0682 -0.0602
  608ERGO    R1 9242   9.868   9.824   9.567  0.1539 -0.0213  0.0256
  608ERGO    R2 9243   9.666   9.848   9.381  0.1253 -0.0812  0.0543
  608ERGO    R3 9244   9.872   9.839   9.204  0.0901 -0.1830  0.0167
  608ERGO    R4 9245   9.637   9.749   9.051  0.0040 -0.0314  0.0483
  608ERGO    R5 9246   9.827   9.644   9.072 -0.0504 -0.1467  0.0041
  608ERGO    C1 9247   9.814   9.682   8.693 -0.0997 -0.0979  0.0096
  608ERGO    C2 9248   9.835   9.567   8.382  0.1702  0.0897 -0.1366
  609ERGO   ROH 9249  15.266  14.454   6.054 -0.1463 -0.3735  0.1407
  609ERGO    R1 9250  15.349  14.431   6.323 -0.0925 -0.2219  0.1383
  609ERGO    R2 9251  15.262  14.604   6.521 -0.0962 -0.1425  0.0709
  609ERGO    R3 9252  15.190  14.374   6.645 -0.0227 -0.0986  0.1951
  609ERGO    R4 9253  15.205  14.573   6.860 -0.0088  0.0026  0.0992
  609ERGO    R5 9254  15.307  14.380   6.854  0.0255  0.0198  0.1644
  609ERGO    C1 9255  15.104  14.338   7.175  0.1110  0.1282  0.2324
  609ERGO    C2 9256  14.929  14.323   7.514  0.2211  0.2018 -0.0911
  610ERGO   ROH 9257   4.542   8.954   6.135  0.0577 -0.0482  0.0308
  610ERGO    R1 9258   4.582   8.751   6.329  0.0024 -0.0699  0.0194
  610ERGO    R2 9259   4.562   8.798   6.600 -0.0070 -0.0848  0.0214
  610ERGO    R3 9260   4.384   8.592   6.590 -0.0485 -0.0477 -0.0055
  610ERGO    R4 9261   4.438   8.628   6.875 -0.1527 -0.0003  0.0091
  610ERGO    R5 9262   4.455   8.443   6.762 -0.1493 -0.0278  0.0542
  610ERGO    C1 9263   4.200   8.337   7.025 -0.2767  0.0839 -0.0233
  610ERGO    C2 9264   3.865   8.307   7.100 -0.3714  0.1159 -0.2186
  611ERGO   ROH 9265   9.674   3.242   6.146 -0.0794  0.1471 -0.0098
  611ERGO    R1 9266   9.507   3.278   6.372 -0.0793  0.1454 -0.0101
  611ERGO    R2 9267   9.276   3.131   6.411 -0.0163  0.0673  0.0450
  611ERGO    R3 9268   9.391   3.075   6.651  0.0164  0.1805  0.0572
  611ERGO    R4 9269   9.105   3.018   6.689  0.0940 -0.4023 -0.0685
  611ERGO    R5 9270   9.230   3.149   6.812 -0.1976 -0.2052  0.0376
  611ERGO    C1 9271   9.113   2.899   7.076  0.1891 -0.5695 -0.1232
  611ERGO    C2 9272   9.147   2.821   7.415 -0.0022  0.0840 -0.0231
  612ERGO   ROH 9273  17.232   0.037   5.866  0.0354  0.0497 -0.1264
  612ERGO    R1 9274  17.170  -0.097   6.107 -0.0667  0.0154 -0.1719
  612ERGO    R2 9275  17.335  -0.089   6.329 -0.0900 -0.1368 -0.1520
  612ERGO    R3 9276  17.110  -0.003   6.454 -0.0579 -0.0507 -0.1514
  612ERGO    R4 9277  17.263  -0.140   6.663  0.0982  0.2689 -0.0431
  612ERGO    R5 9278  17.056  -0.179   6.607  0.0795  0.1230  0.1073
  612ERGO    C1 9279  17.010  -0.088   6.975  0.2380  0.5859  0.0210
  612ERGO    C2 9280  17.133  -0.016   7.222  0.1330  0.0470  0.1815
  613ERGO   ROH 9281   0.978  12.593   5.453 -0.1273 -0.1343  0.2096
  613ERGO    R1 9282   0.938  12.784   5.658 -0.0678 -0.1951  0.2792
  613ERGO    R2 9283   1.019  12.743   5.919  0.2443 -0.1663  0.1922
  613ERGO    R3 9284   1.147  12.980   5.883  0.0145 -0.0557  0.0834
  613ERGO    R4 9285   1.148  12.939   6.173  0.2841 -0.0496  0.0828
  613ERGO    R5 9286   1.075  13.115   6.067  0.0483 -0.1127  0.1369
  613ERGO    C1 9287   1.343  13.276   6.286  0.0917  0.1220 -0.0831
  613ERGO    C2 9288   1.596  13.181   6.624  0.0538  0.3518  0.1180
  614ERGO   ROH 9289   3.556   9.291   6.071  0.0392  0.1400  0.0099
  614ERGO    R1 9290   3.735   9.140   6.230  0.0233  0.0660 -0.0421
  614ERGO    R2 9291   4.008   9.186   6.230  0.0258  0.0432 -0.0193
  614ERGO    R3 9292   3.970   9.208   6.499  0.0238 -0.0543 -0.0110
  614ERGO    R4 9293   4.249   9.122   6.469  0.0187 -0.0700 -0.0415
  614ERGO    R5 9294   4.096   9.026   6.591  0.0068 -0.1027 -0.0787
  614ERGO    C1 9295   4.355   9.106   6.860  0.0128 -0.2273 -0.0466
  614ERGO    C2 9296   4.567   9.134   7.021 -0.1854  0.1708  0.1872
  615ERGO   ROH 9297  12.240   0.286   5.907  0.2148  0.0893 -0.2205
  615ERGO    R1 9298  12.199   0.291   6.187  0.0733  0.0412 -0.2394
  615ERGO    R2 9299  12.377   0.412   6.361  0.0549 -0.1050 -0.1171
  615ERGO    R3 9300  12.155   0.546   6.443  0.0884  0.0022 -0.1980
  615ERGO    R4 9301  12.339   0.558   6.671 -0.0031 -0.1162 -0.1186
  615ERGO    R5 9302  12.133   0.487   6.674 -0.0416 -0.0095 -0.2134
  615ERGO    C1 9303  12.108   0.769   6.930 -0.0053 -0.0220 -0.1954
  615ERGO    C2 9304  12.009   0.906   7.251  0.0274  0.0850  0.3053
  616ERGO   ROH 9305   7.671  11.469   5.958 -0.1641  0.3955 -0.0368
  616ERGO    R1 9306   7.691  11.478   6.240 -0.1849  0.3390 -0.0334
  616ERGO    R2 9307   7.473  11.519   6.404 -0.2333  0.0948 -0.0310
  616ERGO    R3 9308   7.558  11.288   6.520 -0.0256  0.1388 -0.0910
  616ERGO    R4 9309   7.370  11.404   6.714 -0.0826 -0.0537 -0.0344
  616ERGO    R5 9310   7.575  11.342   6.753 -0.0260  0.1041 -0.0846
  616ERGO    C1 9311   7.390  11.121   7.003  0.2001 -0.0990 -0.0927
  616ERGO    C2 9312   7.162  10.904   7.148 -0.1182 -0.0430 -0.3078
  617ERGO   ROH 9313   8.603  10.160   6.000 -0.0088  0.2209  0.1653
  617ERGO    R1 9314   8.505   9.981   6.195  0.0230  0.1551  0.1206
  617ERGO    R2 9315   8.246   9.887   6.194  0.0108  0.1965  0.1592
  617ERGO    R3 9316   8.368   9.644   6.200 -0.0268  0.1727  0.0246
  617ERGO    R4 9317   8.142   9.618   6.385 -0.0007  0.1281  0.0585
  617ERGO    R5 9318   8.351   9.575   6.429  0.0038  0.0733 -0.0002
  617ERGO    C1 9319   8.196   9.234   6.502 -0.0428  0.0661 -0.1266
  617ERGO    C2 9320   8.241   8.817   6.505 -0.1993  0.2866 -0.4376
  618ERGO   ROH 9321  10.631   3.947   9.372  0.0739 -0.0613 -0.0138
  618ERGO    R1 9322  10.792   3.997   9.145 -0.0275  0.0911 -0.0526
  618ERGO    R2 9323  10.740   3.885   8.898  0.0795 -0.0469 -0.0113
  618ERGO    R3 9324  10.746   4.144   8.815 -0.2758 -0.0572 -0.0865
  618ERGO    R4 9325  10.721   3.987   8.568  0.0460 -0.1735 -0.0501
  618ERGO    R5 9326  10.872   4.138   8.612 -0.1905  0.0684 -0.0389
  618ERGO    C1 9327  10.716   4.290   8.298 -0.3071 -0.2568 -0.1432
  618ERGO    C2 9328  10.868   4.469   8.139  0.1116  0.1482 -0.1198
  619ERGO   ROH 9329   9.215   5.826   6.326  0.1042 -0.0777 -0.1551
  619ERGO    R1 9330   9.136   5.865   6.595  0.1482  0.1264 -0.1708
  619ERGO    R2 9331   9.042   5.659   6.754 -0.1573  0.3130 -0.1065
  619ERGO    R3 9332   9.240   5.741   6.921 -0.0429  0.0831 -0.1245
  619ERGO    R4 9333   9.054   5.595   7.093 -0.1344  0.1826 -0.1312
  619ERGO    R5 9334   9.127   5.797   7.124  0.0515  0.1121 -0.0775
  619ERGO    C1 9335   9.247   5.634   7.447 -0.0137 -0.1092 -0.1625
  619ERGO    C2 9336   9.409   5.577   7.682  0.2597 -0.1136 -0.0238
  620ERGO   ROH 9337  12.095  13.282   9.634  0.2620  0.1353 -0.0507
  620ERGO    R1 9338  12.079  13.367   9.364 -0.2425  0.0722 -0.0502
  620ERGO    R2 9339  12.285  13.328   9.183 -0.2063  0.8006 -0.1971
  620ERGO    R3 9340  12.090  13.209   9.037  0.0920  0.0707 -0.0408
  620ERGO    R4 9341  12.293  13.284   8.840 -0.2352  0.6397 -0.1775
  620ERGO    R5 9342  12.082  13.334   8.833 -0.4237 -0.0525 -0.1076
  620ERGO    C1 9343  12.115  13.145   8.504  0.0280 -0.1391 -0.0193
  620ERGO    C2 9344  12.117  13.140   8.184  0.0522 -0.1250  0.0980
  621ERGO   ROH 9345  14.835   6.708   9.661  0.0993 -0.0112 -0.0624
  621ERGO    R1 9346  14.759   6.804   9.405 -0.0781 -0.0903 -0.0403
  621ERGO    R2 9347  14.900   7.000   9.272 -0.2021 -0.0936 -0.1753
  621ERGO    R3 9348  14.906   6.815   9.073 -0.2851 -0.1395 -0.1363
  621ERGO    R4 9349  14.921   7.074   8.935 -0.1249 -0.1692 -0.1874
  621ERGO    R5 9350  14.778   6.913   8.896 -0.2133 -0.0995 -0.1695
  621ERGO    C1 9351  14.939   6.943   8.551 -0.1579 -0.2563 -0.1578
  621ERGO    C2 9352  15.008   7.217   8.305 -0.1757 -0.1597  0.0833
  622ERGO   ROH 9353   4.623  16.401   6.115 -0.1281  0.0245  0.1268
  622ERGO    R1 9354   4.674  16.358   6.390 -0.0950 -0.1484  0.0946
  622ERGO    R2 9355   4.675  16.564   6.576  0.0224 -0.2512  0.2082
  622ERGO    R3 9356   4.495  16.406   6.703 -0.0183 -0.2479  0.1550
  622ERGO    R4 9357   4.579  16.598   6.906 -0.2253 -0.1162  0.1246
  622ERGO    R5 9358   4.581  16.381   6.924 -0.1669 -0.1096  0.2319
  622ERGO    C1 9359   4.353  16.469   7.217 -0.4078 -0.0344  0.0259
  622ERGO    C2 9360   4.135  16.486   7.478  0.0505  0.1315 -0.3908
  623ERGO   ROH 9361  14.935  16.566   6.084  0.0019  0.0716 -0.1109
  623ERGO    R1 9362  14.923  16.621   6.361  0.0692  0.0120 -0.0961
  623ERGO    R2 9363  14.689  16.695   6.487  0.1246  0.0988 -0.0465
  623ERGO    R3 9364  14.749  16.485   6.650  0.0427  0.0306 -0.1028
  623ERGO    R4 9365  14.495  16.589   6.753  0.0493  0.0648 -0.1143
  623ERGO    R5 9366  14.678  16.557   6.867  0.0225 -0.0192 -0.0916
  623ERGO    C1 9367  14.438  16.332   7.061 -0.0715 -0.0193 -0.2066
  623ERGO    C2 9368  14.194  16.368   7.297  0.0553 -0.1535  0.1140
  624ERGO   ROH 9369   3.943  15.000   9.350 -0.3522  0.0939  0.2839
  624ERGO    R1 9370   3.782  14.917   9.132 -0.1610  0.1130  0.1314
  624ERGO    R2 9371   3.799  15.034   8.882  0.0708  0.1252  0.1469
  624ERGO    R3 9372   3.838  14.778   8.800  0.1339  0.1280  0.1715
  624ERGO    R4 9373   3.777  14.927   8.554 -0.1290  0.0507  0.1842
  624ERGO    R5 9374   3.677  14.747   8.625  0.0134  0.0145  0.3002
  624ERGO    C1 9375   3.801  14.624   8.286 -0.1862  0.0102  0.2289
  624ERGO    C2 9376   3.965  14.580   7.870  0.0751  0.1252  0.2457
  625ERGO   ROH 9377  17.401  16.514   5.825 -0.0416  0.0890  0.0538
  625ERGO    R1 9378  17.362  16.637   6.076 -0.0477  0.0074  0.0936
  625ERGO    R2 9379  17.430  16.516   6.314  0.1289  0.0102  0.0452
  625ERGO    R3 9380  17.571  16.745   6.354 -0.0310  0.1095  0.0426
  625ERGO    R4 9381  17.479  16.665   6.622  0.0013  0.0571  0.0425
  625ERGO    R5 9382  17.449  16.859   6.526 -0.1253  0.0340  0.0287
  625ERGO    C1 9383  17.639  16.968   6.839 -0.2233  0.1777  0.0384
  625ERGO    C2 9384  17.833  16.935   6.974  0.0068 -0.0041 -0.1718
  626ERGO   ROH 9385  11.743  18.390   9.471  0.1302  0.0162 -0.0142
  626ERGO    R1 9386  11.736  18.453   9.195  0.0413  0.0643 -0.0017
  626ERGO    R2 9387  11.909  18.634   9.079  0.0616  0.0236 -0.0428
  626ERGO    R3 9388  11.963  18.427   8.912 -0.0803  0.0290 -0.0957
  626ERGO    R4 9389  12.005  18.667   8.749 -0.0008  0.0338 -0.0596
  626ERGO    R5 9390  11.876  18.498   8.700 -0.0943  0.1083 -0.0611
  626ERGO    C1 9391  12.111  18.492   8.399 -0.1704  0.0448 -0.1191
  626ERGO    C2 9392  12.068  18.631   8.112 -0.1535 -0.0263 -0.1829
  627ERGO   ROH 9393   6.818  10.248   9.468  0.1616  0.1572  0.0770
  627ERGO    R1 9394   6.869  10.147   9.209  0.0512  0.0121  0.1094
  627ERGO    R2 9395   6.670  10.039   9.050 -0.0548  0.0805  0.1825
  627ERGO    R3 9396   6.760  10.222   8.870  0.0470 -0.0499  0.0987
  627ERGO    R4 9397   6.609  10.028   8.710 -0.0557 -0.0278  0.1865
  627ERGO    R5 9398   6.814  10.093   8.676 -0.0250 -0.1594  0.1560
  627ERGO    C1 9399   6.658  10.194   8.343  0.0394 -0.2134  0.1102
  627ERGO    C2 9400   6.659  10.346   8.043  0.1108 -0.2175 -0.1765
  628ERGO   ROH 9401  17.772  15.180   8.982 -0.0146  0.3043 -0.1343
  628ERGO    R1 9402  17.713  15.008   8.765 -0.2106  0.4420 -0.1939
  628ERGO    R2 9403  17.699  15.097   8.504  0.1439  0.5087 -0.1982
  628ERGO    R3 9404  17.881  14.900   8.460 -0.2089  0.1475 -0.0907
  628ERGO    R4 9405  17.830  15.015   8.195  0.2238  0.3002 -0.1100
  628ERGO    R5 9406  17.815  14.804   8.251 -0.2390  0.3138 -0.1562
  628ERGO    C1 9407  18.077  14.781   7.974 -0.0608 -0.1602  0.0425
  628ERGO    C2 9408  18.314  14.647   7.759 -0.3110 -0.0200  0.1528
  629ERGO   ROH 9409  11.519  16.954   9.502  0.0224 -0.3871 -0.0389
  629ERGO    R1 9410  11.470  17.042   9.237 -0.2517 -0.2438  0.0563
  629ERGO    R2 9411  11.664  17.038   9.041 -0.3146  0.2978 -0.0307
  629ERGO    R3 9412  11.477  16.896   8.904 -0.1038  0.0568 -0.0769
  629ERGO    R4 9413  11.601  17.069   8.702 -0.2590  0.2046 -0.0502
  629ERGO    R5 9414  11.387  17.052   8.746 -0.2543 -0.0575 -0.1084
  629ERGO    C1 9415  11.388  16.954   8.377 -0.0287 -0.0758 -0.1049
  629ERGO    C2 9416  11.419  16.878   8.072  0.3942 -0.1218 -0.1616
  630ERGO   ROH 9417   5.658   6.642   8.903 -0.1036 -0.0452  0.1688
  630ERGO    R1 9418   5.676   6.376   8.807  0.0352  0.0174  0.0172
  630ERGO    R2 9419   5.454   6.224   8.748  0.1053 -0.1736  0.2362
  630ERGO    R3 9420   5.576   6.196   8.507 -0.1793  0.0654  0.0582
  630ERGO    R4 9421   5.365   5.992   8.508  0.1309 -0.2717  0.3211
  630ERGO    R5 9422   5.577   5.960   8.468  0.1374  0.0677  0.0207
  630ERGO    C1 9423   5.427   5.831   8.142 -0.1213 -0.1045  0.2037
  630ERGO    C2 9424   5.265   5.692   7.889  0.4921 -0.0089  0.0223
  631ERGO   ROH 9425  17.980   0.675   6.051 -0.0268 -0.0064  0.0615
  631ERGO    R1 9426  17.993   0.775   6.316 -0.1587  0.0313  0.0538
  631ERGO    R2 9427  17.848   0.664   6.523 -0.1766 -0.0083  0.0184
  631ERGO    R3 9428  18.093   0.648   6.642 -0.2083  0.1165  0.1030
  631ERGO    R4 9429  17.902   0.597   6.858 -0.2674  0.2248  0.0820
  631ERGO    R5 9430  18.060   0.746   6.858 -0.2941  0.2567  0.0300
  631ERGO    C1 9431  18.162   0.543   7.164 -0.3501  0.4777  0.1984
  631ERGO    C2 9432  18.240   0.552   7.533  0.1473 -0.1385 -0.1633
  632ERGO   ROH 9433  16.538  17.119   5.944 -0.0342 -0.2350 -0.0434
  632ERGO    R1 9434  16.402  17.082   6.190  0.0131 -0.1932 -0.0107
  632ERGO    R2 9435  16.377  16.834   6.311  0.0710 -0.1663  0.0570
  632ERGO    R3 9436  16.487  16.962   6.523  0.0879 -0.0959  0.0059
  632ERGO    R4 9437  16.374  16.717   6.636 -0.1713  0.0820  0.1482
  632ERGO    R5 9438  16.336  16.920   6.704 -0.0294  0.1703 -0.0247
  632ERGO    C1 9439  16.476  16.769   7.025 -0.2969  0.2927  0.1534
  632ERGO    C2 9440  16.578  16.892   7.355  0.0572 -0.1044 -0.3080
  633ERGO   ROH 9441   4.611   3.279   9.348 -0.0427 -0.0584  0.1289
  633ERGO    R1 9442   4.704   3.138   9.121 -0.2480 -0.0016  0.0060
  633ERGO    R2 9443   4.546   3.090   8.900 -0.3464  0.3563 -0.0106
  633ERGO    R3 9444   4.750   3.209   8.767 -0.2222  0.2147  0.0514
  633ERGO    R4 9445   4.598   3.069   8.559 -0.3097  0.4020 -0.0078
  633ERGO    R5 9446   4.812   3.050   8.598 -0.3321  0.2072  0.0199
  633ERGO    C1 9447   4.821   3.169   8.235 -0.1717  0.2957  0.0521
  633ERGO    C2 9448   4.928   3.115   7.787 -0.2818 -0.1737  0.0993
  634ERGO   ROH 9449   7.559   5.688   5.926  0.0907  0.1785  0.0591
  634ERGO    R1 9450   7.727   5.667   6.153  0.0569  0.5808  0.1311
  634ERGO    R2 9451   7.681   5.808   6.386 -0.7510  0.0499  0.3436
  634ERGO    R3 9452   7.692   5.561   6.499  0.2686 -0.1329 -0.0513
  634ERGO    R4 9453   7.773   5.745   6.713 -0.6623 -0.0857  0.2917
  634ERGO    R5 9454   7.883   5.570   6.643  0.1689  0.4815  0.0600
  634ERGO    C1 9455   7.837   5.476   7.010  0.3465 -0.3363 -0.1092
  634ERGO    C2 9456   7.789   5.359   7.359 -0.0329 -0.0473  0.1082
  635ERGO   ROH 9457  16.498   3.552   9.525  0.1189 -0.0668  0.0619
  635ERGO    R1 9458  16.379   3.513   9.271 -0.1047  0.1066  0.1369
  635ERGO    R2 9459  16.222   3.705   9.149  0.1352  0.3619  0.2190
  635ERGO    R3 9460  16.397   3.671   8.943 -0.0408  0.0514  0.1141
  635ERGO    R4 9461  16.150   3.765   8.816  0.0078  0.3542  0.2444
  635ERGO    R5 9462  16.263   3.585   8.765 -0.2746  0.1791  0.2263
  635ERGO    C1 9463  16.272   3.768   8.430 -0.2314  0.0581  0.1606
  635ERGO    C2 9464  16.343   3.752   8.093 -0.1972 -0.2171 -0.0594
  636ERGO   ROH 9465  11.041   7.879   6.036 -0.1341 -0.0545  0.0315
  636ERGO    R1 9466  11.178   7.763   6.256 -0.1142 -0.0285  0.0319
  636ERGO    R2 9467  11.251   7.908   6.479 -0.1430 -0.0156  0.0292
  636ERGO    R3 9468  11.114   7.713   6.610 -0.1051 -0.0408  0.0328
  636ERGO    R4 9469  11.286   7.833   6.815 -0.2342  0.1025  0.0664
  636ERGO    R5 9470  11.273   7.622   6.764 -0.1178  0.0778  0.1216
  636ERGO    C1 9471  11.178   7.606   7.133 -0.2519  0.1477  0.0914
  636ERGO    C2 9472  11.143   7.711   7.450 -0.0871 -0.1168 -0.1823
  637ERGO   ROH 9473   1.305   7.682   9.480 -0.0528 -0.0827 -0.0247
  637ERGO    R1 9474   1.370   7.793   9.227 -0.0936  0.0263  0.0121
  637ERGO    R2 9475   1.448   7.637   9.013  0.1368  0.1407  0.0113
  637ERGO    R3 9476   1.245   7.766   8.887  0.0356 -0.0552 -0.0303
  637ERGO    R4 9477   1.379   7.615   8.675  0.2854  0.1431 -0.0200
  637ERGO    R5 9478   1.336   7.829   8.674  0.0460  0.0987  0.0174
  637ERGO    C1 9479   1.148   7.723   8.360  0.2770 -0.0393 -0.0773
  637ERGO    C2 9480   1.110   7.735   8.098 -0.1108 -0.2493  0.1035
  638ERGO   ROH 9481   1.914   2.711   9.320 -0.2196  0.0544  0.0364
  638ERGO    R1 9482   2.062   2.799   9.096 -0.0973 -0.0807  0.0634
  638ERGO    R2 9483   2.120   2.634   8.882 -0.1240 -0.1619  0.1189
  638ERGO    R3 9484   2.005   2.834   8.738  0.0365 -0.1268  0.0369
  638ERGO    R4 9485   2.109   2.648   8.537 -0.0186 -0.2390  0.1118
  638ERGO    R5 9486   2.150   2.862   8.549  0.1071 -0.2598  0.0702
  638ERGO    C1 9487   1.994   2.843   8.201  0.1935 -0.2510  0.0305
  638ERGO    C2 9488   2.092   2.867   7.904  0.0630  0.2571 -0.0458
  639ERGO   ROH 9489   6.288  16.596   8.887  0.0720 -0.0738  0.0295
  639ERGO    R1 9490   6.276  16.692   8.621  0.0226  0.0463  0.0781
  639ERGO    R2 9491   6.412  16.918   8.538  0.3171 -0.1486  0.0709
  639ERGO    R3 9492   6.511  16.749   8.350 -0.0928 -0.2263 -0.0901
  639ERGO    R4 9493   6.541  17.016   8.233  0.5664 -0.1342  0.1760
  639ERGO    R5 9494   6.442  16.845   8.141  0.1289  0.1739 -0.0051
  639ERGO    C1 9495   6.710  16.914   7.878  0.3268 -0.1985  0.0862
  639ERGO    C2 9496   6.827  16.820   7.590 -0.0410  0.2897 -0.3570
  640ERGO   ROH 9497   4.080   2.334   6.033  0.0229 -0.3407  0.1099
  640ERGO    R1 9498   3.947   2.280   6.277  0.2146 -0.2463  0.2374
  640ERGO    R2 9499   4.042   2.368   6.521  0.1634  0.2541  0.0840
  640ERGO    R3 9500   3.792   2.474   6.543 -0.0209 -0.1498  0.0340
  640ERGO    R4 9501   3.905   2.495   6.812  0.0619  0.4100 -0.0295
  640ERGO    R5 9502   3.715   2.403   6.758  0.1927 -0.0011  0.1650
  640ERGO    C1 9503   3.591   2.669   7.002 -0.1701  0.1216 -0.1425
  640ERGO    C2 9504   3.362   2.731   7.251 -0.1526 -0.0704 -0.1272
  641ERGO   ROH 9505  17.035  16.003   6.301  0.0788  0.4138  0.0016
  641ERGO    R1 9506  17.219  16.144   6.463 -0.0305  0.3038  0.2261
  641ERGO    R2 9507  17.145  16.265   6.701 -0.1324 -0.0969  0.4064
  641ERGO    R3 9508  17.349  16.115   6.802 -0.0365 -0.1092  0.1977
  641ERGO    R4 9509  17.322  16.338   6.989  0.0822 -0.1760  0.2968
  641ERGO    R5 9510  17.504  16.276   6.888  0.0122 -0.1212  0.1333
  641ERGO    C1 9511  17.616  16.241   7.251  0.2971 -0.2338  0.0371
  641ERGO    C2 9512  17.749  16.170   7.585 -0.0073  0.4491 -0.2150
  642ERGO   ROH 9513  16.332  18.683   9.605 -0.0112 -0.3579 -0.2863
  642ERGO    R1 9514  16.478  18.849   9.429 -0.0691 -0.0065 -0.0140
  642ERGO    R2 9515  16.528  18.781   9.166  0.4086  0.2012  0.0107
  642ERGO    R3 9516  16.415  19.022   9.115  0.0341  0.0267 -0.0164
  642ERGO    R4 9517  16.479  18.913   8.851  0.4953  0.2222  0.0065
  642ERGO    R5 9518  16.539  19.108   8.929  0.0787  0.3066  0.1366
  642ERGO    C1 9519  16.345  19.217   8.619  0.1943  0.0708 -0.0215
  642ERGO    C2 9520  16.452  19.251   8.301 -0.2000 -0.0314 -0.2224
  643ERGO   ROH 9521  16.488  11.804   6.056  0.2337  0.1395 -0.1113
  643ERGO    R1 9522  16.392  11.820   6.322  0.2762  0.1901 -0.0979
  643ERGO    R2 9523  16.244  11.617   6.439  0.0613  0.3225 -0.1240
  643ERGO    R3 9524  16.437  11.632   6.631  0.1029  0.0723 -0.1439
  643ERGO    R4 9525  16.219  11.483   6.757  0.0117  0.1771 -0.1894
  643ERGO    R5 9526  16.316  11.661   6.835  0.1614  0.0590 -0.1107
  643ERGO    C1 9527  16.385  11.419   7.121  0.0218 -0.1423 -0.2463
  643ERGO    C2 9528  16.534  11.388   7.432  0.0024  0.0458  0.0077
  644ERGO   ROH 9529  10.519  16.738   9.537 -0.0412  0.0596 -0.0902
  644ERGO    R1 9530  10.590  16.787   9.268 -0.1538  0.1074 -0.1107
  644ERGO    R2 9531  10.605  16.587   9.079 -0.0340  0.1146 -0.0991
  644ERGO    R3 9532  10.435  16.748   8.941 -0.2039 -0.0379 -0.0727
  644ERGO    R4 9533  10.561  16.580   8.736  0.1089  0.2215 -0.1214
  644ERGO    R5 9534  10.551  16.798   8.738 -0.1837  0.2213 -0.0079
  644ERGO    C1 9535  10.374  16.728   8.407  0.0326  0.1406 -0.1094
  644ERGO    C2 9536  10.384  16.751   8.100 -0.1345  0.2156  0.0419
  645ERGO   ROH 9537   1.213   1.340   9.145 -0.1327 -0.0964  0.0417
  645ERGO    R1 9538   1.154   1.420   8.880 -0.2315 -0.0182  0.0873
  645ERGO    R2 9539   1.281   1.311   8.661 -0.1766  0.1828  0.0197
  645ERGO    R3 9540   1.026   1.262   8.578 -0.1505  0.0231  0.0307
  645ERGO    R4 9541   1.167   1.356   8.337 -0.2877  0.3825  0.0842
  645ERGO    R5 9542   0.981   1.436   8.420 -0.3473  0.1338  0.2033
  645ERGO    C1 9543   0.861   1.335   8.072 -0.3279  0.3489  0.1321
  645ERGO    C2 9544   0.985   1.194   7.798  0.2888  0.1313  0.0028
  646ERGO   ROH 9545   9.371   8.231   9.446  0.1508 -0.0406 -0.0676
  646ERGO    R1 9546   9.273   8.221   9.181 -0.1319 -0.1544  0.0367
  646ERGO    R2 9547   9.423   8.305   8.964 -0.5003  0.1152 -0.1219
  646ERGO    R3 9548   9.368   8.056   8.871 -0.2129  0.0367 -0.0931
  646ERGO    R4 9549   9.456   8.205   8.635 -0.2384  0.0762 -0.0859
  646ERGO    R5 9550   9.271   8.093   8.655 -0.1449 -0.1022 -0.1522
  646ERGO    C1 9551   9.424   7.913   8.356  0.1838 -0.0202 -0.0379
  646ERGO    C2 9552   9.454   7.645   8.083  0.1111  0.2223  0.2882
  647ERGO   ROH 9553  13.305  11.669   9.422  0.2220 -0.1846  0.0542
  647ERGO    R1 9554  13.342  11.538   9.174  0.1830 -0.2119  0.0611
  647ERGO    R2 9555  13.163  11.561   8.964  0.1549 -0.2216  0.0763
  647ERGO    R3 9556  13.385  11.637   8.826  0.1439 -0.2452  0.0482
  647ERGO    R4 9557  13.207  11.523   8.624  0.1275 -0.2549  0.0777
  647ERGO    R5 9558  13.414  11.466   8.661  0.1242 -0.2580  0.0634
  647ERGO    C1 9559  13.440  11.572   8.296  0.1012 -0.2965  0.0522
  647ERGO    C2 9560  13.374  11.583   7.990  0.2749  0.2623 -0.0666
  648ERGO   ROH 9561   9.076   4.513   9.320  0.0443 -0.0244 -0.1093
  648ERGO    R1 9562   8.858   4.481   9.143  0.0244 -0.1288 -0.0661
  648ERGO    R2 9563   8.777   4.679   8.968 -0.2504 -0.0775  0.1135
  648ERGO    R3 9564   8.806   4.482   8.783 -0.0872  0.0979 -0.0512
  648ERGO    R4 9565   8.631   4.680   8.655 -0.1735  0.1068  0.0769
  648ERGO    R5 9566   8.592   4.467   8.678 -0.0531  0.0600 -0.1168
  648ERGO    C1 9567   8.575   4.496   8.298  0.0245  0.3788 -0.0989
  648ERGO    C2 9568   8.364   4.400   8.148 -0.0238  0.4638  0.0449
  649ERGO   ROH 9569  10.977  14.633   9.738 -0.1398 -0.1097 -0.0563
  649ERGO    R1 9570  10.967  14.779   9.496 -0.1708 -0.1424 -0.0763
  649ERGO    R2 9571  11.121  14.715   9.276  0.0600  0.0312  0.0210
  649ERGO    R3 9572  10.881  14.711   9.149  0.1381 -0.2903 -0.1246
  649ERGO    R4 9573  11.074  14.789   8.942  0.1186  0.2028  0.0505
  649ERGO    R5 9574  10.891  14.896   8.996 -0.0986 -0.1570  0.0247
  649ERGO    C1 9575  10.820  14.828   8.628  0.2260  0.0009 -0.0691
  649ERGO    C2 9576  10.656  14.850   8.321 -0.2657  0.1184  0.1975
  650ERGO   ROH 9577   2.264  13.965   5.773 -0.3190 -0.0437  0.0660
  650ERGO    R1 9578   2.096  13.988   6.000 -0.1778 -0.3204  0.2028
  650ERGO    R2 9579   2.154  13.867   6.240  0.2927 -0.1200  0.1962
  650ERGO    R3 9580   2.127  14.118   6.339 -0.1576 -0.1365  0.1332
  650ERGO    R4 9581   2.111  13.943   6.575  0.7074 -0.1098  0.2532
  650ERGO    R5 9582   1.966  14.095   6.515  0.2033 -0.4828  0.4414
  650ERGO    C1 9583   2.060  14.224   6.862  0.5260 -0.1192  0.2271
  650ERGO    C2 9584   2.089  14.424   7.163  0.3282 -0.2432 -0.0874
  651ERGO   ROH 9585  17.183   6.657   6.350  0.0833  0.3001  0.0564
  651ERGO    R1 9586  17.235   6.676   6.628  0.0488  0.0549  0.0823
  651ERGO    R2 9587  17.291   6.916   6.753  0.1280 -0.0654  0.2862
  651ERGO    R3 9588  17.085   6.842   6.914  0.0724 -0.1137  0.1936
  651ERGO    R4 9589  17.213   7.066   7.054 -0.1864  0.0699  0.1431
  651ERGO    R5 9590  17.172   6.868   7.136 -0.0955  0.0900  0.2385
  651ERGO    C1 9591  16.976   7.083   7.382 -0.4220  0.1033 -0.0271
  651ERGO    C2 9592  16.929   7.447   7.530  0.1049 -0.1575 -0.4672
  652ERGO   ROH 9593   6.501   4.726   9.535 -0.2459 -0.0334  0.0379
  652ERGO    R1 9594   6.379   4.787   9.287 -0.1487  0.0115  0.0009
  652ERGO    R2 9595   6.523   4.876   9.069 -0.0527 -0.0154  0.0518
  652ERGO    R3 9596   6.402   4.667   8.945 -0.0683  0.0221  0.0028
  652ERGO    R4 9597   6.482   4.847   8.727  0.0053  0.0292  0.0404
  652ERGO    R5 9598   6.282   4.767   8.763 -0.0150  0.0632 -0.0082
  652ERGO    C1 9599   6.344   4.633   8.411  0.0244  0.0905 -0.0122
  652ERGO    C2 9600   6.309   4.645   8.155  0.0384 -0.3437 -0.3253
  653ERGO   ROH 9601  16.013  14.823   9.465  0.1089  0.3021  0.0275
  653ERGO    R1 9602  15.828  14.853   9.253 -0.0708 -0.0017  0.1377
  653ERGO    R2 9603  15.905  14.851   8.988 -0.2275  0.1041  0.1029
  653ERGO    R3 9604  15.718  14.655   8.968  0.0586 -0.1942  0.2151
  653ERGO    R4 9605  15.753  14.754   8.693 -0.4994  0.1394  0.2260
  653ERGO    R5 9606  15.565  14.737   8.802 -0.3301 -0.2730  0.5063
  653ERGO    C1 9607  15.489  14.514   8.502 -0.3893 -0.1200  0.4027
  653ERGO    C2 9608  15.604  14.216   8.229  0.0759  0.2044  0.3653
  654ERGO   ROH 9609  18.679  11.398   9.214 -0.1371 -0.0214 -0.1272
  654ERGO    R1 9610  18.760  11.290   8.965 -0.0278  0.0921 -0.1413
  654ERGO    R2 9611  18.644  11.063   8.857  0.1667  0.0208 -0.1931
  654ERGO    R3 9612  18.605  11.225   8.642  0.0531  0.0272 -0.1689
  654ERGO    R4 9613  18.586  10.955   8.534  0.1345  0.0196 -0.1873
  654ERGO    R5 9614  18.715  11.114   8.462  0.0588  0.0813 -0.2040
  654ERGO    C1 9615  18.515  11.044   8.145  0.0092  0.0249 -0.1613
  654ERGO    C2 9616  18.334  10.847   7.850  0.3379 -0.1320  0.1958
  655ERGO   ROH 9617   2.522   3.814   6.093  0.0171  0.0121  0.0173
  655ERGO    R1 9618   2.462   3.805   6.370  0.0395 -0.1091  0.0169
  655ERGO    R2 9619   2.517   3.583   6.526  0.3161 -0.0660 -0.0303
  655ERGO    R3 9620   2.650   3.765   6.679  0.0992  0.0670  0.0076
  655ERGO    R4 9621   2.577   3.552   6.865  0.2374 -0.0212 -0.0108
  655ERGO    R5 9622   2.534   3.764   6.888  0.0247 -0.0492 -0.0241
  655ERGO    C1 9623   2.736   3.705   7.206 -0.0121  0.1297  0.0360
  655ERGO    C2 9624   2.998   3.804   7.515  0.0016  0.0958 -0.1367
  656ERGO   ROH 9625   9.179  11.606   6.210  0.0100  0.4255 -0.0358
  656ERGO    R1 9626   9.088  11.575   6.476  0.0091  0.3544 -0.0443
  656ERGO    R2 9627   9.245  11.465   6.675 -0.0412  0.1703 -0.1047
  656ERGO    R3 9628   9.186  11.696   6.805  0.1014  0.1456  0.0068
  656ERGO    R4 9629   9.391  11.568   6.971  0.1251  0.0077 -0.1279
  656ERGO    R5 9630   9.195  11.638   7.037  0.1795  0.0575 -0.0178
  656ERGO    C1 9631   9.420  11.844   7.266  0.3559 -0.1101 -0.0368
  656ERGO    C2 9632   9.518  12.081   7.559  0.0699  0.1098  0.1581
  657ERGO   ROH 9633   9.823   3.172   9.520 -0.1649 -0.1082  0.0622
  657ERGO    R1 9634   9.755   3.056   9.271 -0.0129 -0.0509 -0.0075
  657ERGO    R2 9635   9.493   3.022   9.189  0.0269 -0.3117 -0.0425
  657ERGO    R3 9636   9.577   3.161   8.971 -0.1152 -0.0874  0.0409
  657ERGO    R4 9637   9.401   2.954   8.863  0.0951 -0.1950 -0.0868
  657ERGO    R5 9638   9.605   2.994   8.802  0.0524  0.0504 -0.0664
  657ERGO    C1 9639   9.427   3.045   8.469  0.0014  0.0836 -0.0344
  657ERGO    C2 9640   9.594   3.157   8.203  0.1778 -0.6021  0.0775
  658ERGO   ROH 9641  17.047   9.548   9.767  0.2819  0.0333  0.0568
  658ERGO    R1 9642  17.017   9.608   9.491  0.4533 -0.0734  0.0145
  658ERGO    R2 9643  17.097   9.434   9.292  0.0347 -0.4186  0.1397
  658ERGO    R3 9644  16.840   9.464   9.208  0.1035  0.1737  0.0987
  658ERGO    R4 9645  16.995   9.427   8.962  0.0415 -0.5794  0.1394
  658ERGO    R5 9646  16.858   9.591   9.006  0.4722 -0.1291 -0.0758
  658ERGO    C1 9647  16.695   9.452   8.691  0.1101 -0.1169  0.1007
  658ERGO    C2 9648  16.660   9.366   8.322  0.3390 -0.1894 -0.1996
  659ERGO   ROH 9649  16.531   7.578   9.698  0.1688  0.0303 -0.0372
  659ERGO    R1 9650  16.400   7.537   9.451  0.0887 -0.0260  0.0134
  659ERGO    R2 9651  16.323   7.745   9.287  0.0888 -0.0630 -0.0392
  659ERGO    R3 9652  16.467   7.610   9.100  0.0075 -0.1615 -0.0302
  659ERGO    R4 9653  16.274   7.767   8.945  0.0157 -0.1654 -0.0351
  659ERGO    R5 9654  16.307   7.552   8.932 -0.0445 -0.1755  0.0273
  659ERGO    C1 9655  16.381   7.652   8.572 -0.1031 -0.3176 -0.0242
  659ERGO    C2 9656  16.295   7.850   8.298 -0.0941 -0.2708  0.1324
  660ERGO   ROH 9657  15.443   4.001   9.441 -0.0799 -0.0810  0.0483
  660ERGO    R1 9658  15.447   4.150   9.200 -0.2985  0.0754  0.1387
  660ERGO    R2 9659  15.584   4.067   8.975 -0.0080  0.5035  0.1460
  660ERGO    R3 9660  15.342   4.099   8.855 -0.0363  0.0449  0.0609
  660ERGO    R4 9661  15.537   4.152   8.644 -0.0416  0.6300  0.1826
  660ERGO    R5 9662  15.374   4.282   8.705 -0.3716  0.2300  0.2031
  660ERGO    C1 9663  15.283   4.232   8.338 -0.0876  0.2730  0.1240
  660ERGO    C2 9664  15.264   4.376   8.023 -0.0772  0.0201  0.3761
  661ERGO   ROH 9665  18.736   4.657   9.651  0.2865 -0.0133 -0.1415
  661ERGO    R1 9666  18.683   4.741   9.385  0.3634 -0.0216 -0.1589
  661ERGO    R2 9667  18.505   4.943   9.326 -0.0126 -0.3673 -0.2413
  661ERGO    R3 9668  18.718   5.047   9.192 -0.0939  0.1384 -0.0026
  661ERGO    R4 9669  18.488   5.092   9.015 -0.0242 -0.3825 -0.2487
  661ERGO    R5 9670  18.676   4.992   8.963  0.2767  0.0479 -0.0579
  661ERGO    C1 9671  18.678   5.276   8.707 -0.1073  0.0833 -0.0289
  661ERGO    C2 9672  18.697   5.213   8.416 -0.1446  0.0410  0.0717
  662ERGO   ROH 9673   2.254  15.102   5.602 -0.0408  0.0444  0.1993
  662ERGO    R1 9674   2.330  15.058   5.872 -0.1478  0.2111  0.2572
  662ERGO    R2 9675   2.594  15.057   5.953 -0.1608 -0.0920  0.2935
  662ERGO    R3 9676   2.507  15.244   6.129  0.0856  0.2248  0.0921
  662ERGO    R4 9677   2.723  15.106   6.270 -0.1430  0.0273  0.2691
  662ERGO    R5 9678   2.520  15.137   6.343 -0.1193  0.4100  0.2054
  662ERGO    C1 9679   2.715  15.311   6.620  0.0988  0.3941  0.0657
  662ERGO    C2 9680   2.859  15.226   6.767 -0.1267  0.1833 -0.1239
  663ERGO   ROH 9681   0.039   6.335   6.200  0.2893  0.0782  0.0970
  663ERGO    R1 9682  -0.080   6.331   6.457  0.1918  0.0980  0.0503
  663ERGO    R2 9683   0.030   6.193   6.669  0.1119  0.1243  0.0966
  663ERGO    R3 9684   0.014   6.435   6.793  0.0548  0.1309  0.0817
  663ERGO    R4 9685   0.091   6.247   7.005 -0.1731  0.0980  0.1569
  663ERGO    R5 9686  -0.079   6.385   7.008 -0.1542  0.1416  0.0048
  663ERGO    C1 9687   0.111   6.506   7.317 -0.3927  0.0889  0.1780
  663ERGO    C2 9688   0.413   6.580   7.670 -0.1068 -0.0649  0.0905
  664ERGO   ROH 9689   0.032  12.366   6.085  0.0942  0.1349  0.0382
  664ERGO    R1 9690  -0.100  12.336   6.334  0.0143  0.1608 -0.0020
  664ERGO    R2 9691   0.026  12.237   6.559 -0.0763  0.1302  0.0292
  664ERGO    R3 9692  -0.063  12.468   6.670 -0.0586  0.1457  0.0140
  664ERGO    R4 9693  -0.025  12.287   6.897  0.1617  0.2228  0.0543
  664ERGO    R5 9694  -0.206  12.398   6.849  0.0891  0.1588  0.1465
  664ERGO    C1 9695  -0.138  12.533   7.199  0.3168  0.2912  0.0546
  664ERGO    C2 9696  -0.260  12.490   7.474  0.0433 -0.1656  0.0660
  665ERGO   ROH 9697  12.521   7.749   5.999 -0.1678  0.2311  0.0801
  665ERGO    R1 9698  12.653   7.848   6.229 -0.0212  0.1351  0.0406
  665ERGO    R2 9699  12.557   8.063   6.374  0.1536  0.1793  0.1042
  665ERGO    R3 9700  12.575   7.889   6.582  0.1355  0.1426  0.0734
  665ERGO    R4 9701  12.552   8.153   6.708  0.1156  0.1088  0.1216
  665ERGO    R5 9702  12.707   8.005   6.745  0.1112  0.1098  0.1102
  665ERGO    C1 9703  12.565   8.042   7.097  0.0764  0.0335  0.1029
  665ERGO    C2 9704  12.290   8.271   7.234  0.2412  0.0879  0.1168
  666ERGO   ROH 9705   3.866   4.084   9.212  0.4471 -0.0025 -0.0915
  666ERGO    R1 9706   3.939   3.942   8.978  0.2076 -0.0059 -0.1657
  666ERGO    R2 9707   3.795   3.726   8.883  0.0959  0.0114 -0.0280
  666ERGO    R3 9708   3.789   3.872   8.654 -0.1126  0.0113 -0.0257
  666ERGO    R4 9709   3.762   3.594   8.565  0.1814 -0.0266 -0.0217
  666ERGO    R5 9710   3.909   3.739   8.496  0.0096  0.1433 -0.0498
  666ERGO    C1 9711   3.738   3.654   8.165  0.0355 -0.0487 -0.0161
  666ERGO    C2 9712   3.732   3.844   7.814  0.0299  0.2435 -0.1424
  667ERGO   ROH 9713  18.481  13.336   5.837  0.1833 -0.0975 -0.1811
  667ERGO    R1 9714  18.656  13.440   6.033  0.0784 -0.0580 -0.1079
  667ERGO    R2 9715  18.565  13.561   6.265 -0.0448 -0.1834 -0.0901
  667ERGO    R3 9716  18.726  13.378   6.385  0.0338 -0.1288 -0.1113
  667ERGO    R4 9717  18.688  13.587   6.587  0.0429 -0.1105 -0.1287
  667ERGO    R5 9718  18.878  13.509   6.515  0.0408 -0.0747 -0.1732
  667ERGO    C1 9719  18.911  13.430   6.887  0.1679 -0.0168 -0.1711
  667ERGO    C2 9720  18.908  13.384   7.177  0.1360 -0.0364 -0.0995
  668ERGO   ROH 9721   5.049  18.875   7.100  0.0979 -0.0217  0.0190
  668ERGO    R1 9722   4.787  18.770   7.126  0.0983 -0.0359 -0.0269
  668ERGO    R2 9723   4.739  18.506   7.194  0.0991 -0.0394 -0.0239
  668ERGO    R3 9724   4.588  18.618   7.391  0.0591 -0.0356 -0.0578
  668ERGO    R4 9725   4.558  18.329   7.429 -0.0478 -0.0268 -0.1273
  668ERGO    R5 9726   4.397  18.475   7.408  0.0087  0.0244 -0.1571
  668ERGO    C1 9727   4.311  18.332   7.751 -0.1710 -0.0158 -0.2194
  668ERGO    C2 9728   4.251  18.189   8.025  0.2134  0.2898  0.1961
  669ERGO   ROH 9729   4.847  10.026   5.893  0.1205  0.0433 -0.0435
  669ERGO    R1 9730   4.675  10.055   6.117  0.1531  0.1171 -0.0281
  669ERGO    R2 9731   4.523  10.281   6.159  0.0294  0.0608 -0.1750
  669ERGO    R3 9732   4.318  10.102   6.171  0.1352 -0.0519  0.0123
  669ERGO    R4 9733   4.271  10.284   6.396  0.0728  0.1147 -0.1289
  669ERGO    R5 9734   4.284  10.067   6.406  0.2021  0.1256  0.0521
  669ERGO    C1 9735   3.933  10.119   6.546  0.1974  0.0405  0.0737
  669ERGO    C2 9736   3.813  10.311   6.805  0.0003 -0.2811  0.0186
  670ERGO   ROH 9737  13.313   0.485   9.544  0.0948 -0.0262 -0.1649
  670ERGO    R1 9738  13.405   0.613   9.309  0.1308  0.0365 -0.1179
  670ERGO    R2 9739  13.646   0.550   9.190  0.1274  0.0352 -0.1258
  670ERGO    R3 9740  13.491   0.513   8.969  0.1346  0.1346 -0.1469
  670ERGO    R4 9741  13.753   0.595   8.864  0.3037 -0.3195 -0.1203
  670ERGO    R5 9742  13.560   0.686   8.819  0.4474 -0.0523 -0.2320
  670ERGO    C1 9743  13.670   0.586   8.468  0.4132 -0.4327 -0.1369
  670ERGO    C2 9744  13.668   0.612   8.173 -0.2792 -0.3439  0.0001
  671ERGO   ROH 9745   7.860   9.464   9.304  0.2762 -0.2152 -0.1697
  671ERGO    R1 9746   7.927   9.637   9.090  0.2125 -0.1926 -0.1707
  671ERGO    R2 9747   7.969   9.546   8.832 -0.1141 -0.1339 -0.2453
  671ERGO    R3 9748   7.780   9.732   8.771 -0.0210  0.0491  0.0036
  671ERGO    R4 9749   7.970   9.743   8.548 -0.2901 -0.1343 -0.2479
  671ERGO    R5 9750   7.903   9.911   8.670  0.0259 -0.0669 -0.1528
  671ERGO    C1 9751   7.793  10.032   8.325 -0.3051  0.0373 -0.0157
  671ERGO    C2 9752   7.636  10.164   8.028 -0.1420  0.1352 -0.2831
  672ERGO   ROH 9753   4.261  17.739   5.831 -0.1268  0.0669 -0.0306
  672ERGO    R1 9754   4.369  17.858   6.064 -0.0335 -0.0478 -0.0134
  672ERGO    R2 9755   4.342  18.128   6.119  0.1258 -0.0423  0.0533
  672ERGO    R3 9756   4.239  18.037   6.354  0.0972 -0.0409  0.0405
  672ERGO    R4 9757   4.289  18.321   6.401  0.2540 -0.0824  0.1054
  672ERGO    R5 9758   4.360  18.156   6.523  0.1742 -0.1477  0.0587
  672ERGO    C1 9759   4.160  18.348   6.785  0.3018 -0.1041  0.1236
  672ERGO    C2 9760   4.222  18.474   6.973  0.0509  0.1256  0.0730
  673ERGO   ROH 9761  14.714   1.229   9.505 -0.1313  0.0335 -0.1262
  673ERGO    R1 9762  14.626   1.196   9.238 -0.1680  0.1733 -0.1322
  673ERGO    R2 9763  14.565   1.410   9.074  0.0567  0.2695 -0.0946
  673ERGO    R3 9764  14.744   1.292   8.907 -0.0671  0.1086 -0.1153
  673ERGO    R4 9765  14.548   1.415   8.729  0.0310  0.3000 -0.0929
  673ERGO    R5 9766  14.611   1.207   8.727 -0.1626  0.2393 -0.1073
  673ERGO    C1 9767  14.705   1.307   8.371 -0.1000  0.1666 -0.1113
  673ERGO    C2 9768  14.515   1.494   8.103 -0.2926  0.1728 -0.0611
  674ERGO   ROH 9769  12.275  12.294   9.326  0.0017 -0.1677 -0.1627
  674ERGO    R1 9770  12.365  12.418   9.089  0.3425 -0.1815 -0.0458
  674ERGO    R2 9771  12.605  12.352   8.968  0.2022 -0.6864 -0.0726
  674ERGO    R3 9772  12.447  12.313   8.750  0.1128 -0.1034 -0.1277
  674ERGO    R4 9773  12.721  12.274   8.652  0.0432 -0.5595 -0.1637
  674ERGO    R5 9774  12.572  12.409   8.569  0.3172 -0.1429 -0.0113
  674ERGO    C1 9775  12.641  12.192   8.263 -0.1334  0.0614 -0.2685
  674ERGO    C2 9776  12.751  12.231   7.975 -0.0835  0.0179  0.1474
  675PSPI    C1 9777  18.254   3.833   5.506  0.0525  0.0776  0.0278
  675PSPI    C2 9778  18.409   4.012   5.183  0.1612  0.1393  0.1135
  675PSPI    C3 9779  18.029   4.083   5.288  0.1138  0.0893 -0.0223
  675PSPI   PO4 9780  18.403   3.932   5.760  0.2172  0.3240  0.0571
  675PSPI   GL1 9781  18.448   3.756   6.114 -0.0319 -0.0028  0.0402
  675PSPI   GL2 9782  18.544   4.004   6.327  0.1028 -0.0171 -0.1923
  675PSPI   C1A 9783  18.182   3.535   6.387  0.0037  0.1876  0.0286
  675PSPI   C2A 9784  18.087   3.184   6.652 -0.0625 -0.0169 -0.1394
  675PSPI   C3A 9785  17.888   3.032   7.001 -0.1030  0.0135  0.3033
  675PSPI   C4A 9786  17.755   3.299   7.435 -0.3927  0.2312  0.0780
  675PSPI   C1B 9787  18.471   4.025   6.723 -0.1268 -0.1122  0.1614
  675PSPI   C2B 9788  18.465   3.869   7.170 -0.0270  0.0010  0.0133
  675PSPI   C3B 9789  18.270   3.688   7.513  0.0867  0.2569  0.0462
  675PSPI   C4B 9790  18.055   3.394   7.924 -0.1482  0.3075  0.2101
  676PSPI    C1 9791   1.115   4.000   5.405  0.0259 -0.2356  0.3505
  676PSPI    C2 9792   0.798   4.127   5.197  0.2580  0.0247  0.1483
  676PSPI    C3 9793   0.819   3.746   5.317  0.0129 -0.0716 -0.1040
  676PSPI   PO4 9794   1.213   4.184   5.535  0.0351 -0.2800  0.0217
  676PSPI   GL1 9795   1.112   4.452   5.860 -0.2241 -0.1030 -0.0082
  676PSPI   GL2 9796   1.263   4.703   5.988 -0.0821 -0.1576 -0.0499
  676PSPI   C1A 9797   0.994   4.267   6.200  0.0728 -0.0012 -0.1417
  676PSPI   C2A 9798   1.027   3.853   6.302  0.1657  0.2381 -0.1960
  676PSPI   C3A 9799   1.027   3.629   6.694  0.1065  0.1569  0.0086
  676PSPI   C4A 9800   0.680   3.563   6.991  0.0339  0.0067  0.1250
  676PSPI   C1B 9801   1.367   4.474   6.421 -0.3030 -0.0066 -0.2633
  676PSPI   C2B 9802   1.485   4.660   6.763 -0.4720 -0.1999  0.4657
  676PSPI   C3B 9803   1.341   4.762   7.167  0.3366 -0.1057  0.2314
  676PSPI   C4B 9804   1.029   4.498   7.444  0.0616  0.2192  0.0457
  677PSPI    C1 9805  14.802  15.354   5.137  0.0095 -0.2943  0.2278
  677PSPI    C2 9806  14.758  15.083   4.846  0.0829 -0.3656  0.2829
  677PSPI    C3 9807  15.124  15.179   4.976  0.0890  0.0896 -0.0458
  677PSPI   PO4 9808  14.654  15.325   5.315 -0.3091 -0.0244  0.1162
  677PSPI   GL1 9809  14.226  15.231   5.581 -0.0397 -0.0172  0.1600
  677PSPI   GL2 9810  13.891  15.134   5.664 -0.0379  0.1857 -0.5441
  677PSPI   C1A 9811  14.048  15.280   6.103 -0.3259  0.0270  0.1856
  677PSPI   C2A 9812  14.208  15.247   6.490 -0.0283  0.1414 -0.0066
  677PSPI   C3A 9813  14.090  15.162   6.982 -0.0490  0.1313 -0.2177
  677PSPI   C4A 9814  14.464  15.037   7.348  0.0690 -0.1414 -0.2956
  677PSPI   C1B 9815  13.953  14.779   6.085 -0.0513  0.0094  0.0378
  677PSPI   C2B 9816  14.012  14.762   6.520 -0.0684  0.1908  0.1165
  677PSPI   C3B 9817  14.158  14.549   6.782  0.0734  0.1293  0.1414
  677PSPI   C4B 9818  14.149  14.373   7.169 -0.2553 -0.3318  0.2938
  678PSPI    C1 9819   4.723   5.105   4.860  0.2137  0.1545 -0.0590
  678PSPI    C2 9820   5.120   5.061   4.874  0.2005 -0.0595 -0.2994
  678PSPI    C3 9821   4.943   5.166   4.531  0.0420 -0.0428 -0.2130
  678PSPI   PO4 9822   4.612   4.911   5.049 -0.0518  0.0914 -0.2036
  678PSPI   GL1 9823   4.588   4.943   5.527 -0.0336 -0.4343 -0.0995
  678PSPI   GL2 9824   4.498   4.596   5.657  0.0247 -0.0014  0.0239
  678PSPI   C1A 9825   4.783   4.984   5.859 -0.1128  0.0376 -0.4037
  678PSPI   C2A 9826   4.719   5.142   6.225 -0.0912  0.2895 -0.0668
  678PSPI   C3A 9827   4.389   5.335   6.381  0.1540  0.3747 -0.1359
  678PSPI   C4A 9828   4.005   5.258   6.676  0.1603 -0.2065  0.0376
  678PSPI   C1B 9829   4.284   4.957   5.877 -0.1248  0.0440  0.2024
  678PSPI   C2B 9830   4.222   4.894   6.249  0.0021 -0.3928 -0.0017
  678PSPI   C3B 9831   4.125   4.794   6.762 -0.0472  0.0328 -0.0819
  678PSPI   C4B 9832   4.121   4.937   7.119  0.0657 -0.2053 -0.0970
  679PSPI    C1 9833  17.396   0.887   5.513 -0.0400  0.0159  0.1347
  679PSPI    C2 9834  17.446   0.808   5.124  0.3184  0.0547  0.1696
  679PSPI    C3 9835  17.163   1.065   5.240 -0.0390 -0.2368 -0.0346
  679PSPI   PO4 9836  17.720   0.984   5.598  0.0755  0.0960 -0.2070
  679PSPI   GL1 9837  17.980   1.178   5.959 -0.1608 -0.4783  0.0495
  679PSPI   GL2 9838  18.147   1.425   5.981 -0.0026  0.0758  0.0598
  679PSPI   C1A 9839  17.978   1.285   6.385 -0.3164 -0.2111 -0.0563
  679PSPI   C2A 9840  18.219   1.351   6.737 -0.1279  0.1361 -0.0211
  679PSPI   C3A 9841  18.189   1.622   7.029  0.1041 -0.1055  0.0390
  679PSPI   C4A 9842  18.011   1.458   7.401 -0.2675 -0.1738  0.0752
  679PSPI   C1B 9843  18.202   1.707   6.333  0.2318 -0.0912 -0.2701
  679PSPI   C2B 9844  18.474   1.776   6.594  0.1034  0.3586 -0.0471
  679PSPI   C3B 9845  18.686   1.772   7.005 -0.3285 -0.0314  0.1964
  679PSPI   C4B 9846  18.821   1.944   7.427  0.0449 -0.2218 -0.1740
  680PSPI    C1 9847   2.687   2.262   5.080 -0.1221  0.3157 -0.0017
  680PSPI    C2 9848   3.057   2.304   4.934 -0.2472  0.1088 -0.3941
  680PSPI    C3 9849   2.745   2.445   4.729 -0.3936  0.2281 -0.0946
  680PSPI   PO4 9850   2.669   2.432   5.383  0.1941 -0.2457  0.0653
  680PSPI   GL1 9851   2.728   2.431   5.756  0.2287  0.0797  0.0515
  680PSPI   GL2 9852   3.025   2.319   5.920 -0.0099  0.2105 -0.0550
  680PSPI   C1A 9853   2.795   2.724   6.116  0.0712  0.1424 -0.3696
  680PSPI   C2A 9854   2.758   2.592   6.499  0.1843 -0.0132 -0.1635
  680PSPI   C3A 9855   2.756   2.594   6.928  0.1722 -0.2614 -0.0040
  680PSPI   C4A 9856   2.859   2.470   7.320 -0.3156 -0.1194 -0.0825
  680PSPI   C1B 9857   2.756   2.131   6.166  0.0306  0.0215  0.1716
  680PSPI   C2B 9858   2.901   2.115   6.608 -0.4912  0.2448  0.3114
  680PSPI   C3B 9859   2.739   1.954   7.045 -0.0570 -0.1056 -0.1338
  680PSPI   C4B 9860   2.826   1.932   7.525  0.3326 -0.2743 -0.3831
  681PSPI    C1 9861   4.538  17.052   5.410 -0.2762 -0.2216 -0.1768
  681PSPI    C2 9862   4.591  17.289   5.092 -0.2319  0.1153  0.0758
  681PSPI    C3 9863   4.859  17.004   5.176 -0.1150  0.1878 -0.0479
  681PSPI   PO4 9864   4.509  17.268   5.644 -0.0623  0.0061  0.1965
  681PSPI   GL1 9865   4.535  17.341   6.157  0.0157  0.1184 -0.2408
  681PSPI   GL2 9866   4.681  17.096   6.265  0.0453  0.3738  0.0387
  681PSPI   C1A 9867   4.533  17.639   6.528 -0.2297  0.0851  0.1744
  681PSPI   C2A 9868   4.717  17.538   6.950 -0.0499 -0.0984 -0.1358
  681PSPI   C3A 9869   4.586  17.410   7.289  0.1228  0.0097 -0.1986
  681PSPI   C4A 9870   4.191  17.409   7.500  0.2073 -0.2241 -0.2249
  681PSPI   C1B 9871   4.635  17.087   6.693 -0.0123 -0.1335  0.3256
  681PSPI   C2B 9872   4.779  16.970   7.116 -0.1209 -0.3441  0.0883
  681PSPI   C3B 9873   4.802  16.546   7.338  0.1039  0.1457  0.0843
  681PSPI   C4B 9874   4.685  16.021   7.475 -0.0152  0.1184  0.1889
  682PSPI    C1 9875  17.321  18.763   5.380 -0.0011  0.0546 -0.0458
  682PSPI    C2 9876  17.384  18.643   5.003 -0.0897 -0.0557 -0.0260
  682PSPI    C3 9877  17.694  18.698   5.250 -0.0281  0.0619 -0.1283
  682PSPI   PO4 9878  17.064  18.804   5.426  0.1439  0.0785  0.0969
  682PSPI   GL1 9879  16.744  18.748   5.840  0.2302 -0.2553 -0.0649
  682PSPI   GL2 9880  16.654  18.820   6.203 -0.1274  0.1123  0.0096
  682PSPI   C1A 9881  16.906  18.400   6.179  0.2838 -0.3453  0.2094
  682PSPI   C2A 9882  16.788  18.292   6.576 -0.0125  0.1119  0.0292
  682PSPI   C3A 9883  16.801  18.419   6.962 -0.0366  0.0956  0.1168
  682PSPI   C4A 9884  16.612  18.468   7.419  0.1667 -0.2319 -0.1062
  682PSPI   C1B 9885  16.644  19.075   6.585 -0.2927  0.0161  0.0883
  682PSPI   C2B 9886  16.223  19.237   6.655  0.2481 -0.0641 -0.1359
  682PSPI   C3B 9887  16.060  19.525   6.950  0.2993  0.4375  0.1687
  682PSPI   C4B 9888  15.716  19.743   7.121  0.0003  0.0731  0.3452
  683PSPI    C1 9889   5.054  16.346   5.677  0.2031  0.0902 -0.0884
  683PSPI    C2 9890   4.744  16.119   5.567  0.1206 -0.0347  0.3810
  683PSPI    C3 9891   5.051  16.172   5.317 -0.0856 -0.2538  0.0740
  683PSPI   PO4 9892   4.894  16.603   5.769 -0.4586  0.2187  0.4302
  683PSPI   GL1 9893   5.011  16.800   6.128  0.3696  0.0733  0.1755
  683PSPI   GL2 9894   5.274  16.987   6.079  0.1148 -0.1825  0.0661
  683PSPI   C1A 9895   5.095  17.033   6.577 -0.2962  0.2054 -0.5469
  683PSPI   C2A 9896   5.146  17.262   7.001 -0.1323  0.0964 -0.2827
  683PSPI   C3A 9897   5.173  17.671   7.181 -0.2445 -0.0123  0.1259
  683PSPI   C4A 9898   5.284  17.935   7.498  0.0169 -0.0736  0.2737
  683PSPI   C1B 9899   5.451  17.304   6.418 -0.0158 -0.0755  0.0137
  683PSPI   C2B 9900   5.613  17.459   6.833 -0.0038  0.0303 -0.3149
  683PSPI   C3B 9901   5.637  17.848   7.090 -0.1195 -0.1441  0.1142
  683PSPI   C4B 9902   5.704  18.273   7.164 -0.1504 -0.3924 -0.1669
  684PSPI    C1 9903   7.287  14.567   5.336 -0.0952  0.1001  0.0314
  684PSPI    C2 9904   7.676  14.586   5.428 -0.1074 -0.3034  0.1835
  684PSPI    C3 9905   7.562  14.460   5.066 -0.0880  0.3424 -0.0605
  684PSPI   PO4 9906   7.222  14.579   5.613  0.0631 -0.2557  0.0132
  684PSPI   GL1 9907   7.048  14.813   5.989 -0.0355 -0.0168 -0.0355
  684PSPI   GL2 9908   6.909  15.145   5.960  0.4027  0.0402 -0.2694
  684PSPI   C1A 9909   7.178  14.669   6.335  0.2105 -0.0742 -0.2159
  684PSPI   C2A 9910   7.148  14.645   6.782  0.1625 -0.0441 -0.0546
  684PSPI   C3A 9911   6.967  14.526   7.097 -0.1469  0.2169 -0.0319
  684PSPI   C4A 9912   7.184  14.689   7.324  0.0740 -0.1598 -0.0311
  684PSPI   C1B 9913   6.794  15.437   6.272 -0.0976  0.0143 -0.3154
  684PSPI   C2B 9914   7.087  15.575   6.480 -0.3106 -0.3012 -0.0686
  684PSPI   C3B 9915   7.060  15.685   6.956 -0.0317 -0.2465  0.0212
  684PSPI   C4B 9916   7.068  15.976   7.166 -0.0510 -0.2534 -0.0432
  685PSPI    C1 9917  16.489   6.802   5.464  0.0265 -0.1014 -0.0233
  685PSPI    C2 9918  16.124   6.658   5.389 -0.0468  0.0830 -0.0264
  685PSPI    C3 9919  16.437   6.528   5.176 -0.0497 -0.3465  0.2198
  685PSPI   PO4 9920  16.483   6.827   5.781  0.1218  0.1158  0.3160
  685PSPI   GL1 9921  16.570   6.892   6.170 -0.1731  0.2295 -0.2708
  685PSPI   GL2 9922  16.490   7.010   6.458 -0.1994 -0.1245  0.0806
  685PSPI   C1A 9923  16.660   6.541   6.515 -0.0367 -0.1424 -0.1597
  685PSPI   C2A 9924  16.591   6.079   6.550  0.2556 -0.2588 -0.0667
  685PSPI   C3A 9925  16.545   6.066   7.019  0.0861 -0.2565  0.1453
  685PSPI   C4A 9926  16.396   5.846   7.192  0.3224 -0.2601 -0.1895
  685PSPI   C1B 9927  16.096   6.751   6.549  0.0370  0.0945  0.1284
  685PSPI   C2B 9928  15.736   6.573   6.651 -0.1323  0.0313 -0.2302
  685PSPI   C3B 9929  15.430   6.318   6.881 -0.2042 -0.1337  0.1297
  685PSPI   C4B 9930  15.427   5.996   7.158 -0.0739  0.1106  0.2385
  686PSPI    C1 9931  17.738   8.067   5.265  0.1650  0.0759  0.1076
  686PSPI    C2 9932  17.641   8.072   4.877 -0.0653  0.0534  0.1629
  686PSPI    C3 9933  17.842   7.762   5.029  0.0619  0.0815  0.0540
  686PSPI   PO4 9934  17.908   8.328   5.362  0.4970 -0.0451 -0.1106
  686PSPI   GL1 9935  18.026   8.451   5.842  0.1844  0.1326 -0.1684
  686PSPI   GL2 9936  17.649   8.462   5.897 -0.1706  0.3327  0.1834
  686PSPI   C1A 9937  17.957   8.143   6.167 -0.0432 -0.1148  0.2963
  686PSPI   C2A 9938  17.965   8.297   6.586 -0.3553  0.3863 -0.1632
  686PSPI   C3A 9939  17.957   8.319   7.030  0.0663 -0.2079  0.0495
  686PSPI   C4A 9940  17.853   8.165   7.490  0.0698 -0.4760 -0.0163
  686PSPI   C1B 9941  17.661   8.569   6.329  0.3110  0.1733  0.0614
  686PSPI   C2B 9942  17.679   8.622   6.788 -0.2443 -0.1230  0.0782
  686PSPI   C3B 9943  17.696   8.663   7.249  0.0605 -0.2110  0.2988
  686PSPI   C4B 9944  17.652   8.599   7.708 -0.1822 -0.2148  0.3741
  687PSPI    C1 9945   4.558  11.833   5.171  0.0555  0.3192  0.1622
  687PSPI    C2 9946   4.181  11.716   5.234  0.1227 -0.0419 -0.0807
  687PSPI    C3 9947   4.274  11.921   4.903  0.2112 -0.3309 -0.2391
  687PSPI   PO4 9948   4.593  11.791   5.476 -0.1070  0.1041 -0.1066
  687PSPI   GL1 9949   4.407  11.849   5.938 -0.2808 -0.0091  0.2190
  687PSPI   GL2 9950   4.187  12.059   5.834 -0.0988 -0.0571 -0.0384
  687PSPI   C1A 9951   4.623  11.519   6.105  0.2916  0.0938 -0.1867
  687PSPI   C2A 9952   4.705  11.610   6.495 -0.0957 -0.1950  0.0899
  687PSPI   C3A 9953   5.131  11.665   6.706  0.0077 -0.0876  0.1656
  687PSPI   C4A 9954   5.517  11.691   6.726 -0.0482 -0.1148  0.1309
  687PSPI   C1B 9955   3.811  11.987   6.013 -0.1303 -0.0871 -0.5795
  687PSPI   C2B 9956   3.437  11.836   6.223 -0.2189  0.0657  0.0924
  687PSPI   C3B 9957   3.002  11.852   6.284 -0.2869 -0.1569 -0.3825
  687PSPI   C4B 9958   2.702  11.607   6.442  0.0413  0.1732 -0.3063
  688PSPI    C1 9959  17.706   1.482   5.701 -0.0273  0.4797  0.1495
  688PSPI    C2 9960  17.364   1.411   5.506  0.0727 -0.1262  0.1743
  688PSPI    C3 9961  17.421   1.261   5.872  0.2624  0.2026  0.2848
  688PSPI   PO4 9962  17.789   1.745   5.836 -0.1518 -0.1985 -0.1097
  688PSPI   GL1 9963  17.517   1.950   6.201  0.0997 -0.2775 -0.2538
  688PSPI   GL2 9964  17.581   1.563   6.240  0.0626  0.0678 -0.1477
  688PSPI   C1A 9965  17.498   2.111   6.585  0.0571 -0.0883 -0.3631
  688PSPI   C2A 9966  17.346   2.086   7.082 -0.2337  0.0809  0.0124
  688PSPI   C3A 9967  17.084   1.880   7.233  0.1984  0.1314  0.1832
  688PSPI   C4A 9968  16.758   1.814   7.524  0.0486  0.1207  0.0724
  688PSPI   C1B 9969  17.693   1.567   6.660  0.0505  0.2492 -0.0237
  688PSPI   C2B 9970  17.690   1.578   7.000 -0.3421 -0.1699 -0.2988
  688PSPI   C3B 9971  17.482   1.558   7.375  0.1023  0.1350 -0.0765
  688PSPI   C4B 9972  17.235   1.656   7.783 -0.0890  0.1408 -0.1490
  689PSPI    C1 9973  14.240   7.485   5.768 -0.1922 -0.0618 -0.0894
  689PSPI    C2 9974  14.019   7.764   5.952 -0.2163 -0.1358 -0.0053
  689PSPI    C3 9975  14.042   7.757   5.552 -0.0022  0.1502 -0.0008
  689PSPI   PO4 9976  14.479   7.432   5.814  0.1309 -0.0202 -0.1068
  689PSPI   GL1 9977  14.648   7.429   6.228 -0.1477  0.0216 -0.0423
  689PSPI   GL2 9978  14.619   7.763   6.349 -0.3037 -0.0710 -0.3294
  689PSPI   C1A 9979  14.495   7.313   6.614 -0.0819  0.1055 -0.1227
  689PSPI   C2A 9980  14.309   7.195   7.069 -0.2619  0.1104  0.3016
  689PSPI   C3A 9981  14.348   7.302   7.511 -0.1037  0.1403  0.2669
  689PSPI   C4A 9982  14.431   6.932   7.878  0.1301 -0.0351  0.0319
  689PSPI   C1B 9983  14.665   7.784   6.799  0.0406  0.2633 -0.0207
  689PSPI   C2B 9984  14.535   7.644   7.243  0.1352 -0.2359 -0.2822
  689PSPI   C3B 9985  14.869   7.527   7.520 -0.3497 -0.3826 -0.4279
  689PSPI   C4B 9986  14.760   7.282   7.807 -0.0594  0.1160 -0.1590
  690PSPI    C1 9987  15.202  11.309   5.278 -0.2450  0.0442  0.1263
  690PSPI    C2 9988  14.823  11.296   5.149 -0.1672 -0.1132 -0.0946
  690PSPI    C3 9989  15.099  11.492   4.937 -0.1019 -0.0951  0.0066
  690PSPI   PO4 9990  15.215  11.349   5.511 -0.0629  0.0909 -0.1939
  690PSPI   GL1 9991  15.335  11.468   5.954  0.1203  0.1141  0.1354
  690PSPI   GL2 9992  15.109  11.213   5.955 -0.1433  0.1129 -0.2117
  690PSPI   C1A 9993  15.474  11.615   6.401  0.1488 -0.0543 -0.0214
  690PSPI   C2A 9994  15.506  11.526   6.798 -0.4016 -0.1678  0.0206
  690PSPI   C3A 9995  15.757  11.519   7.194 -0.3174 -0.0389  0.0010
  690PSPI   C4A 9996  15.946  11.340   7.546 -0.3255  0.1552  0.1789
  690PSPI   C1B 9997  14.671  11.314   5.980 -0.0572  0.0501 -0.2525
  690PSPI   C2B 9998  14.327  11.432   6.220 -0.0244  0.0097  0.0756
  690PSPI   C3B 9999  14.366  11.398   6.696  0.0584  0.0012  0.0263
  690PSPI   C4B10000  14.388  11.127   7.177 -0.0749 -0.3795 -0.3954
  691PSPI    C110001   6.702   8.002   5.216  0.1882  0.0310  0.0499
  691PSPI    C210002   7.066   7.903   5.085  0.2346 -0.0030  0.2027
  691PSPI    C310003   6.743   7.791   4.879  0.3173  0.2000 -0.0413
  691PSPI   PO410004   6.764   8.313   5.292  0.3365 -0.1088  0.0200
  691PSPI   GL110005   6.498   8.434   5.648  0.1406 -0.3149  0.0532
  691PSPI   GL210006   6.333   8.739   5.744 -0.2145  0.3796  0.0552
  691PSPI   C1A10007   6.759   8.555   5.973  0.0466  0.2452  0.0265
  691PSPI   C2A10008   6.678   8.581   6.528  0.0603  0.1080  0.2094
  691PSPI   C3A10009   6.546   8.678   6.923  0.1396  0.1665 -0.4131
  691PSPI   C4A10010   6.499   8.315   7.249  0.2992  0.0316  0.0367
  691PSPI   C1B10011   6.236   8.470   6.086  0.0466  0.1471  0.0421
  691PSPI   C2B10012   6.117   8.326   6.471 -0.1981  0.0851 -0.2075
  691PSPI   C3B10013   6.091   8.422   6.917 -0.1741  0.0318  0.0547
  691PSPI   C4B10014   5.810   8.652   7.157 -0.3999  0.2609 -0.0916
  692PSPI    C110015  12.814  17.274   5.324  0.0256 -0.1719 -0.0367
  692PSPI    C210016  13.203  17.219   5.248  0.0758  0.1148  0.0043
  692PSPI    C310017  12.975  17.419   4.987  0.0243  0.2132  0.1240
  692PSPI   PO410018  12.802  17.450   5.543  0.2204  0.0439 -0.1067
  692PSPI   GL110019  12.650  17.504   5.944 -0.1255  0.0009 -0.2140
  692PSPI   GL210020  12.532  17.695   6.094  0.1316 -0.0564  0.2858
  692PSPI   C1A10021  12.921  17.329   6.202  0.0736  0.0475 -0.0608
  692PSPI   C2A10022  12.988  17.159   6.554 -0.4068 -0.0849  0.0535
  692PSPI   C3A10023  13.066  16.995   6.992 -0.0471 -0.0958 -0.1145
  692PSPI   C4A10024  13.004  17.126   7.403  0.0772 -0.0614 -0.1187
  692PSPI   C1B10025  12.717  17.693   6.490  0.0533 -0.2264 -0.0470
  692PSPI   C2B10026  12.933  17.578   6.817 -0.0315  0.0632 -0.0266
  692PSPI   C3B10027  12.672  17.591   7.158 -0.2717 -0.0039  0.1774
  692PSPI   C4B10028  12.740  17.539   7.631 -0.3988  0.0769 -0.0670
  693PSPI    C110029  15.612   4.881   5.494  0.2545 -0.3727  0.1428
  693PSPI    C210030  15.622   4.852   5.893 -0.0982  0.3063  0.2167
  693PSPI    C310031  15.910   5.051   5.699  0.1316 -0.1156  0.1134
  693PSPI   PO410032  15.306   4.879   5.445 -0.2222 -0.1297  0.0633
  693PSPI   GL110033  15.013   4.753   5.707  0.1919  0.1619 -0.0725
  693PSPI   GL210034  14.787   4.501   5.650  0.0738 -0.2908  0.1973
  693PSPI   C1A10035  15.190   4.847   6.175  0.0157  0.0415 -0.2105
  693PSPI   C2A10036  15.218   4.910   6.558 -0.1792  0.0691  0.3256
  693PSPI   C3A10037  15.040   4.951   6.959  0.1266 -0.0509 -0.2134
  693PSPI   C4A10038  14.638   4.921   7.214  0.0715  0.0557 -0.1490
  693PSPI   C1B10039  14.973   4.387   6.036 -0.0032  0.1064 -0.0842
  693PSPI   C2B10040  15.196   4.180   6.380  0.0433 -0.1468 -0.3397
  693PSPI   C3B10041  15.319   4.419   6.647 -0.2679  0.0764 -0.0300
  693PSPI   C4B10042  15.231   4.491   7.161  0.1897  0.0851  0.0971
  694PSPI    C110043   3.181   5.418   5.300 -0.1074  0.2178 -0.0467
  694PSPI    C210044   3.080   5.132   5.040  0.0668 -0.1200  0.2494
  694PSPI    C310045   3.357   5.403   4.941 -0.1268 -0.0258 -0.0474
  694PSPI   PO410046   3.230   5.316   5.512 -0.0674  0.0128 -0.8137
  694PSPI   GL110047   3.056   5.087   5.841 -0.0015 -0.0138 -0.2171
  694PSPI   GL210048   3.182   4.807   5.888  0.0115 -0.0177  0.2031
  694PSPI   C1A10049   3.179   5.201   6.260  0.1378 -0.0661  0.0004
  694PSPI   C2A10050   3.406   5.046   6.622 -0.3228 -0.1592 -0.1181
  694PSPI   C3A10051   3.630   4.953   7.030  0.1467 -0.0717  0.1167
  694PSPI   C4A10052   3.882   5.322   7.336 -0.1156  0.2915 -0.2791
  694PSPI   C1B10053   2.922   4.728   6.319 -0.1523 -0.2454  0.3779
  694PSPI   C2B10054   3.072   4.715   6.692  0.0467 -0.1709  0.0910
  694PSPI   C3B10055   3.134   4.951   7.016 -0.2542  0.0860 -0.2703
  694PSPI   C4B10056   3.369   5.416   7.220 -0.0615  0.2601 -0.0324
  695POPI    C110057   1.587  12.087   5.522  0.0318 -0.1574  0.1183
  695POPI    C210058   1.460  12.079   5.142 -0.3557  0.1070  0.2361
  695POPI    C310059   1.689  11.783   5.283 -0.1796  0.0229 -0.2105
  695POPI   PO410060   1.285  12.199   5.573  0.3769  0.2606 -0.0451
  695POPI   GL110061   1.077  12.128   5.987  0.1657 -0.1077  0.1919
  695POPI   GL210062   0.830  12.243   6.007 -0.1257  0.1464 -0.1819
  695POPI   C1A10063   1.340  12.189   6.351 -0.0671  0.0555  0.1729
  695POPI   D2A10064   1.393  12.184   6.786  0.2478 -0.0117  0.2070
  695POPI   C3A10065   1.889  12.042   6.969  0.1568  0.2932  0.0028
  695POPI   C4A10066   2.168  12.411   7.073 -0.0222  0.0587 -0.0580
  695POPI   C1B10067   0.897  12.437   6.433  0.0063  0.0564  0.1713
  695POPI   C2B10068   0.911  12.387   6.903  0.1476  0.0138 -0.1130
  695POPI   C3B10069   0.817  12.743   7.174 -0.1830 -0.2243 -0.1240
  695POPI   C4B10070   0.585  13.081   6.999 -0.2852 -0.0165 -0.3356
  696POPI    C110071   1.959   7.177   5.599 -0.2151  0.0317  0.1817
  696POPI    C210072   2.088   7.237   5.226  0.2316 -0.3017  0.2735
  696POPI    C310073   1.716   7.344   5.328  0.1357 -0.1159 -0.2350
  696POPI   PO410074   2.075   7.183   5.709  0.0680  0.2063  0.2850
  696POPI   GL110075   2.174   7.375   6.097 -0.2831 -0.2448  0.2885
  696POPI   GL210076   1.815   7.456   6.098 -0.3109  0.2873  0.0787
  696POPI   C1A10077   2.369   7.493   6.464  0.3325 -0.3561 -0.1982
  696POPI   D2A10078   2.361   7.457   6.857 -0.1787 -0.2062  0.0298
  696POPI   C3A10079   2.645   7.713   7.010  0.1421  0.1009  0.4859
  696POPI   C4A10080   2.861   7.691   7.348  0.0225  0.1608  0.0414
  696POPI   C1B10081   1.889   7.525   6.540  0.0498  0.0731  0.2104
  696POPI   C2B10082   1.823   7.503   7.060 -0.1471 -0.4446  0.1498
  696POPI   C3B10083   2.132   7.460   7.381 -0.1187  0.0674  0.1535
  696POPI   C4B10084   2.546   7.253   7.350 -0.3884  0.2898 -0.2609
  697POPI    C110085   1.260  12.621   5.066  0.1791 -0.0758 -0.0613
  697POPI    C210086   1.180  12.589   4.675  0.0834 -0.0458 -0.0445
  697POPI    C310087   1.185  12.949   4.849  0.3791 -0.0346 -0.0703
  697POPI   PO410088   1.502  12.551   5.069  0.0065 -0.5660  0.3976
  697POPI   GL110089   1.857  12.435   5.198 -0.0163 -0.1030  0.2575
  697POPI   GL210090   2.053  12.194   5.300  0.3514  0.0405  0.0428
  697POPI   C1A10091   1.829  12.616   5.639 -0.1744 -0.0211  0.1479
  697POPI   D2A10092   1.474  12.604   5.977 -0.0129 -0.0559  0.1166
  697POPI   C3A10093   1.365  12.681   6.502  0.4334 -0.0754  0.2063
  697POPI   C4A10094   1.115  12.842   6.816  0.0645 -0.1173  0.1465
  697POPI   C1B10095   2.221  12.174   5.672 -0.0926  0.1242  0.1053
  697POPI   C2B10096   2.284  12.421   6.039 -0.5329 -0.1054 -0.0969
  697POPI   C3B10097   2.611  12.752   6.232 -0.0867  0.0832 -0.2198
  697POPI   C4B10098   2.698  13.136   6.491  0.3531 -0.0519  0.0159
  698POPI    C110099   3.197  15.279   4.904 -0.0535 -0.1920  0.0226
  698POPI    C210100   3.471  15.537   4.770 -0.2049  0.0862  0.2379
  698POPI    C310101   3.137  15.471   4.559  0.0558 -0.3123 -0.0641
  698POPI   PO410102   3.130  15.305   5.176 -0.0915 -0.4062  0.0062
  698POPI   GL110103   3.290  15.303   5.595  0.2688  0.1289  0.0806
  698POPI   GL210104   3.653  15.413   5.702  0.1343 -0.0580 -0.1689
  698POPI   C1A10105   3.097  15.302   6.001  0.3519 -0.1240 -0.0019
  698POPI   D2A10106   3.158  15.342   6.348  0.3434  0.0185 -0.2755
  698POPI   C3A10107   3.406  15.107   6.690 -0.1611  0.2061  0.0330
  698POPI   C4A10108   3.683  14.939   7.129  0.1285  0.0198 -0.2017
  698POPI   C1B10109   3.588  15.202   6.075 -0.0186  0.0859  0.2922
  698POPI   C2B10110   3.796  15.008   6.387  0.1729  0.1612 -0.1724
  698POPI   C3B10111   3.988  14.918   6.714  0.0814 -0.0984 -0.0070
  698POPI   C4B10112   4.079  14.518   6.860  0.0356 -0.0081  0.0722
  699POPI    C110113   3.738   1.424   4.943  0.0189  0.3422  0.0326
  699POPI    C210114   3.360   1.544   4.888 -0.1782 -0.2396  0.0552
  699POPI    C310115   3.547   1.333   4.604  0.0299 -0.2057  0.1651
  699POPI   PO410116   3.711   1.403   5.253  0.2476 -0.1148 -0.1674
  699POPI   GL110117   3.569   1.219   5.725  0.2743 -0.0408  0.2981
  699POPI   GL210118   3.606   1.442   5.938  0.0240  0.2047  0.1053
  699POPI   C1A10119   3.202   1.165   5.985 -0.0473  0.0759  0.3088
  699POPI   D2A10120   3.029   1.249   6.360 -0.0080 -0.3435 -0.1912
  699POPI   C3A10121   2.678   1.442   6.233 -0.0987  0.1597  0.1105
  699POPI   C4A10122   2.484   1.766   5.890  0.0587 -0.0917 -0.3101
  699POPI   C1B10123   3.600   1.478   6.350  0.2833 -0.0312  0.0493
  699POPI   C2B10124   3.660   1.463   6.874  0.3366  0.4022 -0.0449
  699POPI   C3B10125   3.734   1.745   7.108  0.0165  0.1980  0.5142
  699POPI   C4B10126   3.942   1.877   7.476 -0.1425  0.2734  0.1627
  700POPI    C110127   7.957   0.793   4.888 -0.1186 -0.2172 -0.1298
  700POPI    C210128   8.272   0.863   4.652 -0.1934 -0.3112 -0.2590
  700POPI    C310129   7.909   0.986   4.541 -0.1993 -0.1795 -0.0978
  700POPI   PO410130   7.948   0.813   5.119  0.1279  0.0829 -0.1889
  700POPI   GL110131   7.821   0.914   5.507  0.0356 -0.2978 -0.1650
  700POPI   GL210132   7.597   1.129   5.563  0.1489 -0.0445 -0.0962
  700POPI   C1A10133   7.687   0.638   5.773 -0.0658 -0.1648 -0.0182
  700POPI   D2A10134   7.744   0.246   6.062  0.1619 -0.1179  0.0214
  700POPI   C3A10135   7.745   0.369   6.644 -0.1155 -0.1236 -0.1586
  700POPI   C4A10136   7.634   0.733   6.744 -0.1963  0.0740  0.1901
  700POPI   C1B10137   7.289   1.014   5.903 -0.1192 -0.0261  0.1665
  700POPI   C2B10138   7.050   0.856   6.304 -0.1341 -0.3793 -0.1066
  700POPI   C3B10139   6.741   0.612   6.463  0.1791  0.1300 -0.0953
  700POPI   C4B10140   6.357   0.427   6.629 -0.2332  0.1077 -0.3204
  701POPI    C110141   9.690   8.569   5.484  0.1745 -0.1771  0.0132
  701POPI    C210142   9.474   8.293   5.293  0.0435 -0.0066 -0.0886
  701POPI    C310143   9.667   8.575   5.085 -0.0794  0.1651  0.0283
  701POPI   PO410144   9.673   8.443   5.808  0.2342 -0.1738 -0.1779
  701POPI   GL110145   9.913   8.424   6.130 -0.1306  0.4973  0.0508
  701POPI   GL210146  10.261   8.230   6.147 -0.0623  0.1984 -0.0494
  701POPI   C1A10147  10.002   8.472   6.583 -0.1638  0.1043  0.1657
  701POPI   D2A10148   9.956   8.491   7.021 -0.0617 -0.1906 -0.1740
  701POPI   C3A10149  10.116   8.682   7.399 -0.3149 -0.0474 -0.1117
  701POPI   C4A10150  10.555   8.666   7.681 -0.1588  0.0252  0.0259
  701POPI   C1B10151  10.475   8.412   6.522  0.1853 -0.1832 -0.0504
  701POPI   C2B10152  10.672   8.366   6.930  0.1324  0.0305  0.1568
  701POPI   C3B10153  10.904   8.544   7.345  0.3299  0.1205  0.1972
  701POPI   C4B10154  11.136   8.858   7.588  0.0596 -0.1517 -0.2949
  702POPI    C110155   9.589   1.689   5.696 -0.1487  0.1719 -0.0906
  702POPI    C210156   9.586   1.346   5.491 -0.1774  0.0767  0.0674
  702POPI    C310157   9.269   1.590   5.476 -0.0493  0.2296 -0.2633
  702POPI   PO410158   9.654   1.626   5.924 -0.0945 -0.3788 -0.2358
  702POPI   GL110159   9.532   1.708   6.416  0.0640  0.2356 -0.0371
  702POPI   GL210160   9.820   1.503   6.383  0.0673  0.0904  0.3259
  702POPI   C1A10161   9.700   1.695   6.840 -0.0243 -0.2283 -0.0265
  702POPI   D2A10162   9.674   1.597   7.283 -0.1657 -0.5307  0.1419
  702POPI   C3A10163   9.629   1.206   7.483  0.0822  0.0118  0.0152
  702POPI   C4A10164   9.511   0.747   7.593 -0.2149  0.0330  0.1801
  702POPI   C1B10165   9.768   1.125   6.689  0.0268 -0.2872  0.2069
  702POPI   C2B10166   9.927   1.168   7.059  0.1554  0.1258  0.4975
  702POPI   C3B10167  10.052   0.925   7.438 -0.0002  0.2908  0.1839
  702POPI   C4B10168   9.921   0.583   7.782  0.1555 -0.2573  0.0206
  703POPI    C110169  12.279  17.306   5.334  0.0113 -0.1268 -0.2186
  703POPI    C210170  12.107  17.644   5.206 -0.1111 -0.2274 -0.3227
  703POPI    C310171  12.472  17.545   5.077  0.0590  0.0212 -0.0473
  703POPI   PO410172  12.182  17.235   5.622 -0.1992  0.2555  0.1577
  703POPI   GL110173  11.929  17.150   6.066 -0.1562 -0.3068 -0.0112
  703POPI   GL210174  11.656  17.435   6.167 -0.3040 -0.1765  0.0642
  703POPI   C1A10175  12.079  17.038   6.549 -0.0973 -0.2083  0.0877
  703POPI   D2A10176  11.904  17.038   6.873  0.0887  0.1463 -0.0842
  703POPI   C3A10177  11.519  17.411   6.811  0.1592  0.0502 -0.0332
  703POPI   C4A10178  11.383  17.745   6.641  0.0362  0.0300  0.1844
  703POPI   C1B10179  11.912  17.480   6.511  0.1813 -0.1527  0.0883
  703POPI   C2B10180  11.926  17.655   6.960 -0.2075  0.1656 -0.1569
  703POPI   C3B10181  11.561  17.745   7.174  0.1122 -0.1122  0.2621
  703POPI   C4B10182  11.591  18.060   7.448 -0.0328 -0.0671  0.1232
  704POPI    C110183  10.095  11.927   5.505  0.3756  0.2215 -0.0256
  704POPI    C210184   9.943  12.224   5.284  0.1281 -0.0157 -0.1801
  704POPI    C310185   9.864  11.843   5.189  0.1562 -0.1260  0.2199
  704POPI   PO410186  10.031  11.976   5.748 -0.1297  0.2969 -0.0439
  704POPI   GL110187  10.131  12.074   6.129 -0.1530 -0.0161 -0.2814
  704POPI   GL210188   9.747  12.181   6.055  0.3672  0.2545 -0.0704
  704POPI   C1A10189   9.941  11.838   6.444  0.1268  0.2561 -0.1196
  704POPI   D2A10190   9.683  11.942   6.846 -0.3712 -0.2685  0.2191
  704POPI   C3A10191   9.897  12.071   7.192  0.1573  0.1834  0.2295
  704POPI   C4A10192   9.996  11.890   7.541  0.2766 -0.0709  0.0677
  704POPI   C1B10193   9.689  12.221   6.455 -0.0428  0.1867  0.2895
  704POPI   C2B10194   9.600  12.459   6.757 -0.0574 -0.2836 -0.2961
  704POPI   C3B10195   9.560  12.501   7.233  0.4006 -0.2880 -0.0992
  704POPI   C4B10196   9.504  12.663   7.537 -0.0044  0.1609 -0.1769
  705POPI    C110197  10.197   9.964   5.201 -0.0723  0.0140 -0.0851
  705POPI    C210198  10.593   9.992   5.149  0.0174 -0.1712  0.4408
  705POPI    C310199  10.371   9.787   4.887  0.2395  0.0780  0.0473
  705POPI   PO410200  10.152   9.931   5.539  0.0126 -0.0681 -0.0952
  705POPI   GL110201  10.086  10.104   5.891 -0.0318 -0.2025 -0.1413
  705POPI   GL210202  10.329   9.962   6.022 -0.0427 -0.0087  0.0315
  705POPI   C1A10203  10.075  10.310   6.396  0.3383 -0.1246  0.2332
  705POPI   D2A10204   9.735  10.401   6.727 -0.0883  0.2942  0.0973
  705POPI   C3A10205   9.788  10.482   7.176 -0.1327  0.2768 -0.0699
  705POPI   C4A10206   9.877  10.252   7.496  0.1150 -0.0742  0.1539
  705POPI   C1B10207  10.602   9.964   6.389  0.1473  0.0419  0.1798
  705POPI   C2B10208  10.752   9.888   6.847  0.2791 -0.1653 -0.0669
  705POPI   C3B10209  10.970   9.828   7.228  0.4590 -0.2933  0.2444
  705POPI   C4B10210  10.934   9.905   7.629  0.1204  0.2316 -0.1538
  706POPI    C110211   5.083  17.427   5.179 -0.0792  0.2275  0.1600
  706POPI    C210212   5.369  17.691   5.083  0.1511 -0.0173  0.1614
  706POPI    C310213   5.241  17.426   4.812 -0.1175  0.1268  0.1437
  706POPI   PO410214   4.962  17.497   5.426 -0.2245  0.0506 -0.0556
  706POPI   GL110215   4.834  17.695   5.799  0.1218 -0.0168 -0.0116
  706POPI   GL210216   5.126  17.513   5.886  0.1217 -0.0389  0.1560
  706POPI   C1A10217   4.865  17.952   6.139 -0.3041 -0.1447 -0.2432
  706POPI   D2A10218   4.852  18.185   6.460  0.0813  0.2670 -0.4150
  706POPI   C3A10219   5.276  18.257   6.402 -0.1068 -0.2354 -0.3567
  706POPI   C4A10220   5.466  18.512   6.274  0.1207 -0.1718  0.2054
  706POPI   C1B10221   5.012  17.484   6.342  0.2328  0.1429 -0.0349
  706POPI   C2B10222   5.218  17.745   6.603 -0.0202 -0.0021  0.1817
  706POPI   C3B10223   5.132  18.065   6.865 -0.2137  0.1066 -0.2673
  706POPI   C4B10224   5.061  18.500   6.799  0.1359  0.0333 -0.0069
  707POPI    C110225   2.985   6.187   5.338  0.2360 -0.0556 -0.0893
  707POPI    C210226   2.635   6.221   5.148  0.1228 -0.0319  0.1198
  707POPI    C310227   2.814   5.865   5.174  0.1838 -0.0193 -0.1068
  707POPI   PO410228   2.960   6.279   5.536  0.1570  0.1016 -0.1829
  707POPI   GL110229   3.156   6.627   5.775  0.0576 -0.1689  0.3868
  707POPI   GL210230   2.874   6.517   6.011 -0.3043 -0.0367 -0.0770
  707POPI   C1A10231   3.351   6.704   6.121  0.0777 -0.2741  0.0057
  707POPI   D2A10232   3.635   7.001   6.453  0.1407  0.0899 -0.0792
  707POPI   C3A10233   3.698   7.037   6.824 -0.0813 -0.0097  0.0865
  707POPI   C4A10234   3.947   7.071   7.220  0.1181  0.2173  0.2434
  707POPI   C1B10235   2.823   6.609   6.443  0.2422  0.0261  0.2221
  707POPI   C2B10236   2.711   6.446   6.893  0.1441  0.1575  0.1955
  707POPI   C3B10237   2.846   6.235   7.162 -0.1461  0.1081 -0.2602
  707POPI   C4B10238   2.722   6.184   7.640 -0.1443 -0.2458  0.1345
  708POPI    C110239   4.731   6.798   5.043  0.0284 -0.0770  0.0167
  708POPI    C210240   4.724   6.464   4.824  0.2172 -0.0532 -0.0280
  708POPI    C310241   5.033   6.716   4.793  0.1191  0.0808  0.0726
  708POPI   PO410242   4.717   6.667   5.352 -0.1618  0.2663  0.0073
  708POPI   GL110243   4.763   6.741   5.839  0.0810 -0.2936 -0.2611
  708POPI   GL210244   4.596   6.388   5.712  0.1075  0.0496  0.1861
  708POPI   C1A10245   5.087   6.884   6.171 -0.0641 -0.2476  0.3175
  708POPI   D2A10246   5.128   7.092   6.560  0.0324  0.1935  0.2605
  708POPI   C3A10247   5.244   7.137   6.962  0.2141 -0.0901 -0.0679
  708POPI   C4A10248   5.353   7.317   7.330 -0.0069  0.2531 -0.0389
  708POPI   C1B10249   4.636   6.366   6.187 -0.0240  0.0525  0.0267
  708POPI   C2B10250   4.657   6.273   6.631  0.2171  0.0587  0.1436
  708POPI   C3B10251   4.580   6.056   7.028  0.1029  0.1343 -0.0410
  708POPI   C4B10252   4.487   5.871   7.432  0.0682 -0.0827  0.1406
  709POPI    C110253   4.937   9.958   5.410 -0.1430  0.0952 -0.0682
  709POPI    C210254   4.809   9.750   5.093  0.2520 -0.0726 -0.1232
  709POPI    C310255   4.893  10.140   5.056 -0.1701  0.0251 -0.1009
  709POPI   PO410256   5.154   9.797   5.501 -0.0170  0.0400  0.1770
  709POPI   GL110257   4.945   9.538   5.784 -0.0572  0.0154 -0.1160
  709POPI   GL210258   5.167   9.601   5.975  0.0450 -0.4616  0.0440
  709POPI   C1A10259   4.944   9.267   6.187  0.3686  0.0175 -0.1682
  709POPI   D2A10260   4.844   9.256   6.598  0.3966  0.1405 -0.0312
  709POPI   C3A10261   5.014   9.329   6.947 -0.3061 -0.0404 -0.0021
  709POPI   C4A10262   4.973   9.335   7.360 -0.2513  0.3200  0.0365
  709POPI   C1B10263   5.010   9.744   6.335  0.2060 -0.3841 -0.1221
  709POPI   C2B10264   5.080   9.722   6.658  0.1151 -0.1878  0.0541
  709POPI   C3B10265   5.453   9.685   6.871  0.0004 -0.2953 -0.1413
  709POPI   C4B10266   5.739   9.762   7.168 -0.0902 -0.1888  0.2776
  710POPI    C110267   1.765   9.348   5.676 -0.0661 -0.3665  0.0620
  710POPI    C210268   1.421   9.266   5.490  0.0227 -0.2594 -0.1532
  710POPI    C310269   1.767   9.241   5.291  0.1209 -0.1564  0.0021
  710POPI   PO410270   1.707   9.597   5.824 -0.0287  0.3021 -0.2633
  710POPI   GL110271   1.631   9.591   6.330  0.2696  0.1995  0.0303
  710POPI   GL210272   1.706   9.227   6.379 -0.2239  0.3474  0.1638
  710POPI   C1A10273   1.556   9.440   6.803 -0.0268 -0.0765 -0.1600
  710POPI   D2A10274   1.528   9.289   7.154  0.0130  0.1761 -0.1930
  710POPI   C3A10275   1.756   8.987   7.134 -0.2051 -0.2894 -0.0809
  710POPI   C4A10276   2.219   8.920   6.992  0.1882  0.0199 -0.0628
  710POPI   C1B10277   1.777   8.932   6.648  0.1148  0.2213 -0.0343
  710POPI   C2B10278   1.877   8.583   6.877  0.2146 -0.1941 -0.1477
  710POPI   C3B10279   1.877   8.556   7.362  0.0745 -0.1732 -0.0105
  710POPI   C4B10280   1.687   8.419   7.739  0.1118  0.1360  0.4482
  711POPI    C110281   9.959  16.767   5.343 -0.2508 -0.2045 -0.2565
  711POPI    C210282  10.174  16.617   5.041  0.0315 -0.0693 -0.1263
  711POPI    C310283  10.198  16.452   5.404  0.0110  0.0231 -0.0825
  711POPI   PO410284   9.672  16.843   5.312 -0.4337 -0.2653 -0.1163
  711POPI   GL110285   9.320  16.811   5.664  0.5583 -0.2288  0.0148
  711POPI   GL210286   9.315  17.087   5.605  0.0346 -0.1760  0.3058
  711POPI   C1A10287   9.636  16.821   6.010 -0.0906  0.3791 -0.0478
  711POPI   D2A10288   9.760  16.466   6.213 -0.2141  0.0938 -0.0301
  711POPI   C3A10289  10.014  16.397   6.435  0.1362 -0.1804 -0.3055
  711POPI   C4A10290  10.193  16.587   6.778 -0.3827 -0.0366 -0.0009
  711POPI   C1B10291   9.415  17.270   5.911 -0.0485  0.0038  0.0048
  711POPI   C2B10292   9.520  17.166   6.378  0.1306  0.2994  0.2141
  711POPI   C3B10293   9.825  16.860   6.704 -0.2972  0.1283  0.4059
  711POPI   C4B10294   9.696  16.413   6.806 -0.3397  0.2116  0.0909
  712POPI    C110295  18.036   0.145   5.279  0.0092 -0.2007 -0.2756
  712POPI    C210296  17.758   0.383   5.117  0.1222  0.0582 -0.0965
  712POPI    C310297  18.106   0.323   4.927  0.0783  0.0034 -0.1603
  712POPI   PO410298  18.182   0.259   5.538 -0.0786  0.1172  0.3288
  712POPI   GL110299  18.159   0.238   5.917  0.1621 -0.0704 -0.3235
  712POPI   GL210300  18.373   0.016   5.916 -0.1886 -0.0754  0.1176
  712POPI   C1A10301  18.043   0.192   6.386 -0.1673 -0.4238 -0.0267
  712POPI   D2A10302  18.086   0.137   6.787  0.2319  0.0525  0.1184
  712POPI   C3A10303  17.888  -0.172   7.068  0.3095  0.3818 -0.0798
  712POPI   C4A10304  17.503  -0.312   7.151 -0.1579  0.0515  0.0678
  712POPI   C1B10305  18.811  -0.227   6.033  0.0650  0.1316 -0.0333
  712POPI   C2B10306  19.220  -0.078   6.149 -0.0461 -0.1717 -0.0363
  712POPI   C3B10307  19.327  -0.188   6.648  0.0752 -0.1831  0.1232
  712POPI   C4B10308  19.685  -0.465   6.839  0.1075 -0.0139 -0.1977
  713POPI    C110309   5.327  14.999   5.231 -0.3543  0.0819 -0.1525
  713POPI    C210310   5.454  15.377   5.258  0.2780 -0.1148 -0.2062
  713POPI    C310311   5.486  15.180   4.912  0.0926 -0.2673 -0.1383
  713POPI   PO410312   5.405  14.860   5.458  0.1748 -0.2574 -0.0952
  713POPI   GL110313   5.368  14.595   5.803 -0.0754 -0.1541 -0.2102
  713POPI   GL210314   5.197  14.525   6.072  0.1083 -0.1896 -0.3721
  713POPI   C1A10315   5.708  14.615   6.095 -0.1047 -0.1249 -0.0867
  713POPI   D2A10316   5.858  15.000   6.058 -0.5097  0.0845 -0.0924
  713POPI   C3A10317   5.794  15.174   6.423 -0.0809  0.0883  0.0304
  713POPI   C4A10318   5.744  15.585   6.632  0.2491  0.1755 -0.0178
  713POPI   C1B10319   4.952  14.204   6.081 -0.2481  0.0352  0.0933
  713POPI   C2B10320   4.729  13.895   6.056  0.0533  0.0135 -0.2596
  713POPI   C3B10321   4.310  13.981   5.997  0.2904 -0.3992  0.2965
  713POPI   C4B10322   3.875  13.901   5.812  0.2362 -0.3031 -0.1841
  714POPI    C110323  13.287  18.589   5.149  0.0290 -0.0983  0.0780
  714POPI    C210324  13.360  18.197   5.180 -0.2726 -0.1382  0.3396
  714POPI    C310325  12.985  18.328   5.132 -0.1573  0.1131  0.0921
  714POPI   PO410326  13.417  18.733   5.347 -0.0897 -0.0476  0.3323
  714POPI   GL110327  13.576  18.784   5.749 -0.0707 -0.0942  0.0997
  714POPI   GL210328  13.449  18.965   6.001  0.0184 -0.1462 -0.3354
  714POPI   C1A10329  13.675  18.590   6.160  0.1378  0.0732  0.2566
  714POPI   D2A10330  13.991  18.600   6.362  0.3491  0.2187  0.3169
  714POPI   C3A10331  14.302  18.745   6.677  0.4746  0.1191  0.0796
  714POPI   C4A10332  14.179  19.181   6.792  0.1217  0.1934  0.1764
  714POPI   C1B10333  13.435  19.134   6.291  0.0714 -0.4300  0.1023
  714POPI   C2B10334  13.281  19.312   6.709 -0.0943 -0.1364 -0.0414
  714POPI   C3B10335  13.182  19.403   7.195 -0.1881 -0.4710 -0.1460
  714POPI   C4B10336  13.363  19.392   7.536 -0.1920  0.2605 -0.0580
  715POPI    C110337  11.524  15.339   5.483 -0.0171  0.0860  0.1148
  715POPI    C210338  11.235  15.323   5.207  0.1525 -0.0213 -0.0590
  715POPI    C310339  11.493  15.629   5.209  0.0531  0.0627  0.0820
  715POPI   PO410340  11.503  15.111   5.535  0.0141  0.0087 -0.3239
  715POPI   GL110341  11.644  14.966   5.843  0.0226 -0.1477 -0.3817
  715POPI   GL210342  11.484  14.699   5.950  0.0383 -0.3763 -0.2946
  715POPI   C1A10343  11.948  14.950   6.190  0.0866 -0.0004 -0.0429
  715POPI   D2A10344  12.271  14.623   6.412 -0.1191  0.2160  0.3202
  715POPI   C3A10345  12.381  14.497   6.810 -0.2660  0.0974 -0.2875
  715POPI   C4A10346  12.288  14.364   7.214  0.1930 -0.2322  0.2397
  715POPI   C1B10347  11.783  14.487   6.203 -0.2404 -0.1073 -0.0734
  715POPI   C2B10348  11.769  14.317   6.653 -0.3947 -0.1567 -0.0463
  715POPI   C3B10349  11.785  14.458   7.110 -0.4098 -0.2283  0.0672
  715POPI   C4B10350  11.485  14.673   7.328 -0.0434 -0.0548  0.0025
  716POPI    C110351  11.692   4.239   5.949  0.0189 -0.0605  0.0894
  716POPI    C210352  11.449   4.449   5.711  0.0766 -0.0168  0.0687
  716POPI    C310353  11.728   4.637   5.927  0.0605 -0.0620  0.1290
  716POPI   PO410354  11.499   4.053   6.092 -0.1398  0.1782  0.1308
  716POPI   GL110355  11.493   4.063   6.533 -0.0460  0.0392  0.3846
  716POPI   GL210356  11.611   4.383   6.441 -0.4460 -0.1339  0.1840
  716POPI   C1A10357  11.049   4.212   6.592  0.0322 -0.0825 -0.1005
  716POPI   D2A10358  10.769   4.504   6.451 -0.3275 -0.3435  0.5872
  716POPI   C3A10359  10.520   4.501   6.816  0.1283 -0.2681  0.0411
  716POPI   C4A10360  10.007   4.616   6.710  0.1987 -0.0225 -0.3886
  716POPI   C1B10361  11.945   4.142   6.755 -0.1764 -0.1934  0.0479
  716POPI   C2B10362  11.991   4.190   7.130 -0.2242  0.1846 -0.2049
  716POPI   C3B10363  12.178   3.964   7.393 -0.1213  0.2466  0.0424
  716POPI   C4B10364  12.350   3.545   7.620 -0.1300  0.2827  0.3461
  717POPI    C110365   9.356  11.122   5.384 -0.2771  0.1974  0.2776
  717POPI    C210366   8.991  10.959   5.390 -0.1749 -0.0504  0.0137
  717POPI    C310367   9.256  10.845   5.114  0.0544  0.2363  0.1102
  717POPI   PO410368   9.482  11.066   5.688  0.0280  0.0774  0.3337
  717POPI   GL110369   9.420  11.207   6.053 -0.2561  0.0074 -0.0067
  717POPI   GL210370   9.763  11.200   6.088  0.4060  0.2394 -0.1420
  717POPI   C1A10371   9.594  10.832   6.401  0.1608  0.1142  0.3559
  717POPI   D2A10372   9.761  11.021   6.901  0.1363  0.1828  0.0998
  717POPI   C3A10373   9.771  11.067   7.411  0.1821 -0.0630  0.2260
  717POPI   C4A10374   9.925  11.412   7.701 -0.2825 -0.0029  0.1678
  717POPI   C1B10375   9.710  11.360   6.511  0.1405  0.1448  0.0021
  717POPI   C2B10376   9.972  11.464   6.721 -0.0289 -0.1543  0.0243
  717POPI   C3B10377  10.232  11.853   6.852 -0.1595 -0.0547  0.1610
  717POPI   C4B10378  10.594  11.869   6.902 -0.1100  0.1412  0.2439
  718POPI    C110379  10.261   7.604   5.455  0.0844 -0.0527 -0.1141
  718POPI    C210380  10.164   7.226   5.370 -0.5370  0.0231  0.2022
  718POPI    C310381   9.967   7.527   5.195 -0.0393  0.2097 -0.0559
  718POPI   PO410382  10.324   7.591   5.711 -0.2157  0.0058 -0.1466
  718POPI   GL110383  10.708   7.491   6.003  0.0372  0.0351 -0.0151
  718POPI   GL210384  10.570   7.866   6.094  0.3361 -0.1377 -0.4812
  718POPI   C1A10385  10.796   7.431   6.346  0.0412  0.0421  0.1045
  718POPI   D2A10386  10.799   7.435   6.776 -0.1003 -0.0049  0.0564
  718POPI   C3A10387  10.470   7.423   6.890 -0.3146 -0.1625 -0.1544
  718POPI   C4A10388  10.337   7.503   7.225  0.2492 -0.0835 -0.1654
  718POPI   C1B10389  10.715   7.984   6.538 -0.1324 -0.0801  0.3645
  718POPI   C2B10390  10.788   7.913   6.935 -0.1393  0.0183 -0.2036
  718POPI   C3B10391  10.697   7.802   7.289  0.1233  0.1263 -0.0824
  718POPI   C4B10392  10.380   7.788   7.598  0.2250  0.0233 -0.1252
  719POPI    C110393  14.950   9.412   5.960 -0.0769 -0.2046  0.0276
  719POPI    C210394  15.343   9.429   6.032 -0.0570  0.1805 -0.1422
  719POPI    C310395  15.205   9.222   5.718  0.0182  0.1388 -0.1480
  719POPI   PO410396  14.796   9.228   6.303  0.1246 -0.0883  0.3785
  719POPI   GL110397  14.609   9.371   6.701 -0.1805  0.1612 -0.1276
  719POPI   GL210398  14.334   9.468   6.648 -0.0546  0.0795 -0.2638
  719POPI   C1A10399  14.689   9.141   7.005  0.0218 -0.3425  0.1748
  719POPI   D2A10400  14.606   9.090   7.376 -0.3839 -0.2762  0.1761
  719POPI   C3A10401  14.826   9.033   7.744 -0.0157 -0.1315 -0.3623
  719POPI   C4A10402  15.170   9.082   7.944  0.3287  0.3076  0.1113
  719POPI   C1B10403  14.177   9.195   6.915  0.0754  0.0818  0.0476
  719POPI   C2B10404  14.148   9.166   7.322  0.0680  0.2878  0.2200
  719POPI   C3B10405  14.169   9.263   7.756 -0.2560 -0.0062  0.0129
  719POPI   C4B10406  14.402   9.603   7.981  0.0195 -0.0834  0.4177
  720POPI    C110407  16.640   4.449   5.735 -0.0691  0.0744  0.0993
  720POPI    C210408  16.697   4.204   5.424 -0.1934 -0.1190  0.2269
  720POPI    C310409  16.838   4.578   5.412 -0.2185 -0.1165 -0.0714
  720POPI   PO410410  16.413   4.472   5.773  0.0756  0.0575 -0.2632
  720POPI   GL110411  16.173   4.636   6.052  0.1110  0.1474  0.3612
  720POPI   GL210412  16.465   4.654   6.250 -0.2565  0.0432 -0.3315
  720POPI   C1A10413  16.025   4.410   6.400 -0.0281  0.0357  0.1479
  720POPI   D2A10414  15.942   4.151   6.720  0.2362 -0.1535 -0.0027
  720POPI   C3A10415  15.878   3.714   6.876  0.2083  0.0059 -0.4297
  720POPI   C4A10416  15.989   3.253   7.112  0.1109 -0.1063 -0.1239
  720POPI   C1B10417  16.367   4.436   6.758  0.0605 -0.0183 -0.1139
  720POPI   C2B10418  16.174   4.044   7.109 -0.1281 -0.1576 -0.0553
  720POPI   C3B10419  16.024   3.756   7.354  0.1586 -0.0976 -0.1864
  720POPI   C4B10420  16.228   3.511   7.600  0.0931 -0.1775  0.0510
  721POPI    C110421  18.650   6.571   5.751 -0.3292  0.1176  0.1343
  721POPI    C210422  18.968   6.328   5.747 -0.1508  0.3453  0.2601
  721POPI    C310423  18.612   6.193   5.625  0.0421  0.1574 -0.1115
  721POPI   PO410424  18.724   6.843   5.686  0.0050  0.0178 -0.0827
  721POPI   GL110425  19.034   7.092   6.025 -0.1739 -0.2663  0.2201
  721POPI   GL210426  19.212   6.764   5.959 -0.1408 -0.2293 -0.0740
  721POPI   C1A10427  18.857   7.153   6.468  0.0661 -0.0443 -0.0325
  721POPI   D2A10428  18.954   7.340   6.783 -0.1812 -0.2821  0.1368
  721POPI   C3A10429  19.153   7.448   7.127  0.1052  0.0463 -0.0450
  721POPI   C4A10430  19.145   7.414   7.621  0.1369  0.2010  0.1528
  721POPI   C1B10431  19.181   6.766   6.483  0.4640 -0.2161  0.5192
  721POPI   C2B10432  18.998   6.920   6.964 -0.0487 -0.1338  0.4367
  721POPI   C3B10433  18.698   6.822   7.293 -0.1047 -0.0669 -0.2222
  721POPI   C4B10434  18.399   6.920   7.614 -0.0935  0.1481  0.0669
  722POPI    C110435   8.898   2.050   5.603  0.2294  0.0470  0.0186
  722POPI    C210436   8.709   2.401   5.577 -0.1261 -0.1554 -0.2156
  722POPI    C310437   9.037   2.334   5.358 -0.3269 -0.1317 -0.5297
  722POPI   PO410438   8.750   2.079   5.950  0.1736  0.3852  0.0091
  722POPI   GL110439   8.362   2.033   6.173  0.1328 -0.1629  0.2608
  722POPI   GL210440   8.416   1.755   6.407  0.2152 -0.1486 -0.1122
  722POPI   C1A10441   8.059   2.032   6.530  0.1010 -0.0977 -0.4892
  722POPI   D2A10442   7.706   2.134   6.867  0.3897 -0.3340  0.0195
  722POPI   C3A10443   7.802   2.566   7.057 -0.1700  0.0815 -0.1084
  722POPI   C4A10444   7.502   2.687   7.313 -0.0049 -0.0153  0.0477
  722POPI   C1B10445   8.285   1.666   6.744  0.0542 -0.2960  0.0571
  722POPI   C2B10446   8.227   1.623   7.041 -0.1900 -0.2140  0.1586
  722POPI   C3B10447   8.248   1.790   7.516 -0.0499  0.1966  0.2157
  722POPI   C4B10448   8.496   1.805   7.848  0.0183  0.2284  0.0340
  723POPI    C110449  17.531  16.814   5.451 -0.0605  0.1694  0.1127
  723POPI    C210450  17.499  16.889   5.059  0.0187  0.1855  0.1089
  723POPI    C310451  17.729  16.588   5.187 -0.0338  0.1590  0.1415
  723POPI   PO410452  17.626  17.043   5.578 -0.2735 -0.1052 -0.1865
  723POPI   GL110453  17.842  17.025   5.966  0.0390 -0.1069 -0.0265
  723POPI   GL210454  18.250  17.105   6.042  0.1036 -0.3444 -0.1338
  723POPI   C1A10455  17.436  17.232   6.171  0.0350 -0.0871 -0.1383
  723POPI   D2A10456  17.214  17.240   6.613  0.0366 -0.2455 -0.0901
  723POPI   C3A10457  17.182  17.233   7.141 -0.2414  0.0087 -0.0682
  723POPI   C4A10458  16.860  17.217   7.547  0.0818 -0.0691 -0.1539
  723POPI   C1B10459  18.003  17.164   6.383 -0.0515 -0.0702 -0.0660
  723POPI   C2B10460  17.773  17.334   6.577  0.1665  0.0233 -0.0405
  723POPI   C3B10461  17.656  17.400   7.057 -0.1204 -0.0062 -0.0809
  723POPI   C4B10462  17.435  17.583   7.374  0.3682  0.2752 -0.0261
  724POPI    C110463  16.958   6.684   5.655 -0.3571 -0.1259 -0.0394
  724POPI    C210464  17.296   6.615   5.452 -0.2172  0.1857  0.0808
  724POPI    C310465  16.943   6.587   5.267 -0.1487 -0.4003  0.0170
  724POPI   PO410466  17.025   6.858   5.914 -0.0760 -0.2100 -0.0879
  724POPI   GL110467  17.213   7.153   6.251 -0.0133  0.1325  0.1952
  724POPI   GL210468  16.960   7.131   6.400 -0.2232 -0.3305  0.0672
  724POPI   C1A10469  17.337   7.362   6.600  0.0709 -0.0328 -0.3913
  724POPI   D2A10470  17.634   7.247   6.799 -0.1510 -0.0198 -0.0582
  724POPI   C3A10471  17.722   7.511   7.052 -0.0393  0.0571 -0.0158
  724POPI   C4A10472  17.286   7.568   7.203 -0.1300 -0.1460 -0.0138
  724POPI   C1B10473  16.859   7.205   6.693 -0.2502 -0.1219 -0.1150
  724POPI   C2B10474  16.694   7.428   7.058 -0.2501 -0.0521 -0.3167
  724POPI   C3B10475  16.424   7.445   7.331 -0.2708 -0.0213  0.1979
  724POPI   C4B10476  16.142   7.595   7.623  0.0666 -0.1254  0.1208
  725POPI    C110477   1.464  17.636   5.044 -0.2379  0.2817  0.0414
  725POPI    C210478   1.662  17.448   4.751 -0.2404  0.0730  0.1721
  725POPI    C310479   1.688  17.845   4.787  0.0810  0.0580  0.1309
  725POPI   PO410480   1.521  17.505   5.279 -0.1057  0.2289  0.1196
  725POPI   GL110481   1.704  17.670   5.681 -0.0114  0.1345  0.0176
  725POPI   GL210482   1.560  17.983   5.824  0.1266  0.0034 -0.0521
  725POPI   C1A10483   1.790  17.711   6.217 -0.0767  0.0111  0.0824
  725POPI   D2A10484   2.081  18.058   6.495 -0.0802  0.0762  0.2098
  725POPI   C3A10485   2.245  18.207   6.887  0.3711  0.3711  0.1428
  725POPI   C4A10486   2.489  18.371   7.054 -0.0968 -0.2192 -0.1786
  725POPI   C1B10487   1.265  17.913   6.168  0.3247  0.4014  0.0694
  725POPI   C2B10488   1.353  17.903   6.573  0.2654 -0.1624  0.0528
  725POPI   C3B10489   1.386  17.690   6.962  0.1484  0.0908 -0.2956
  725POPI   C4B10490   1.290  17.539   7.413 -0.1664 -0.0063  0.4719
  726POPI    C110491   7.842   7.012   5.182 -0.0449 -0.0849  0.0997
  726POPI    C210492   7.520   6.802   5.071  0.0151  0.0049 -0.2591
  726POPI    C310493   7.489   7.194   5.140 -0.0047 -0.0355 -0.0296
  726POPI   PO410494   7.964   6.859   5.391 -0.0030  0.1577 -0.2418
  726POPI   GL110495   7.891   6.700   5.724  0.1186  0.1075  0.1390
  726POPI   GL210496   8.000   7.042   5.849 -0.2767 -0.0484 -0.0364
  726POPI   C1A10497   7.711   6.553   6.129 -0.0640  0.1687 -0.0941
  726POPI   D2A10498   7.688   6.300   6.532 -0.3337  0.1272 -0.0113
  726POPI   C3A10499   7.820   6.254   6.840 -0.0150 -0.0643 -0.1156
  726POPI   C4A10500   8.111   6.175   7.315 -0.0208 -0.3467  0.1201
  726POPI   C1B10501   7.961   6.994   6.305  0.3176 -0.2258 -0.0680
  726POPI   C2B10502   7.865   6.757   6.646 -0.1474 -0.0828 -0.2146
  726POPI   C3B10503   7.899   6.719   7.034 -0.1366 -0.3954  0.1274
  726POPI   C4B10504   8.196   6.678   7.453  0.0531  0.1303  0.0810
  727POPI    C110505   0.057   1.472   5.403  0.1227  0.0838 -0.2634
  727POPI    C210506   0.201   1.335   5.751 -0.3021  0.0183 -0.1078
  727POPI    C310507   0.349   1.198   5.405  0.0961  0.0539  0.0440
  727POPI   PO410508  -0.040   1.734   5.568  0.2584 -0.0443  0.1402
  727POPI   GL110509   0.111   1.950   5.824 -0.4262  0.0538 -0.0904
  727POPI   GL210510  -0.154   2.162   5.757  0.0649  0.2546  0.2056
  727POPI   C1A10511   0.324   2.001   6.221 -0.2000 -0.0351  0.2491
  727POPI   D2A10512   0.661   2.198   6.308 -0.0965  0.1117 -0.0539
  727POPI   C3A10513   1.019   2.174   6.137  0.1778 -0.2736 -0.0981
  727POPI   C4A10514   1.325   2.145   6.311 -0.0654  0.1057  0.1947
  727POPI   C1B10515  -0.252   2.027   6.203 -0.4076  0.0820  0.1524
  727POPI   C2B10516  -0.014   2.053   6.620 -0.0572  0.0872  0.0497
  727POPI   C3B10517  -0.073   2.243   7.058 -0.1257  0.3020 -0.0335
  727POPI   C4B10518   0.200   2.397   7.338  0.0027 -0.1465 -0.0105
  728POPI    C110519  12.737   3.855   5.364  0.0800 -0.3360  0.0082
  728POPI    C210520  12.506   3.534   5.305  0.0125 -0.2909  0.0258
  728POPI    C310521  12.840   3.582   5.090 -0.2526 -0.1055 -0.3575
  728POPI   PO410522  12.644   3.867   5.607  0.1879  0.1032  0.0143
  728POPI   GL110523  12.602   3.777   6.057 -0.1517  0.0686 -0.0976
  728POPI   GL210524  12.484   4.095   6.247 -0.0327  0.2329  0.4611
  728POPI   C1A10525  12.534   3.394   6.305 -0.5467 -0.1128 -0.1171
  728POPI   D2A10526  12.574   3.295   6.772  0.0167  0.0326 -0.2785
  728POPI   C3A10527  12.291   3.079   6.858  0.1966 -0.0550 -0.1944
  728POPI   C4A10528  12.039   2.751   7.141 -0.3031 -0.2579  0.2393
  728POPI   C1B10529  12.453   4.223   6.603  0.1058  0.0501  0.1113
  728POPI   C2B10530  12.523   4.222   7.074  0.0761  0.0747  0.1376
  728POPI   C3B10531  12.656   4.186   7.355  0.1532  0.3683  0.1069
  728POPI   C4B10532  12.624   4.543   7.577 -0.1822  0.0332 -0.4540
  729POPI    C110533  10.142   3.460   5.539  0.2002 -0.0313  0.2237
  729POPI    C210534  10.274   3.111   5.683  0.1920 -0.1483 -0.0457
  729POPI    C310535  10.269   3.175   5.289  0.0598  0.1042 -0.0049
  729POPI   PO410536   9.962   3.558   5.845 -0.0626 -0.1301 -0.0467
  729POPI   GL110537  10.049   3.954   6.044 -0.1060  0.0443  0.0097
  729POPI   GL210538  10.117   3.786   6.251 -0.0625 -0.0832  0.0423
  729POPI   C1A10539   9.774   4.182   6.278  0.2154 -0.0934  0.0515
  729POPI   D2A10540   9.568   4.461   6.576 -0.0392 -0.3716 -0.1345
  729POPI   C3A10541   9.697   4.485   7.040  0.4576  0.0624 -0.2313
  729POPI   C4A10542   9.513   4.635   7.389  0.0569  0.2044  0.1013
  729POPI   C1B10543  10.009   3.500   6.522  0.0696 -0.0213 -0.0038
  729POPI   C2B10544  10.021   3.563   6.899  0.2541 -0.2997  0.0882
  729POPI   C3B10545   9.871   3.425   7.277 -0.1752  0.3677 -0.1990
  729POPI   C4B10546   9.617   3.461   7.716  0.1670  0.0553  0.0983
  730POPI    C110547   1.633   1.247   5.421  0.0248 -0.0955 -0.1123
  730POPI    C210548   1.680   1.039   5.083  0.3690 -0.0044 -0.1238
  730POPI    C310549   1.618   1.434   5.067 -0.0487 -0.0650 -0.0933
  730POPI   PO410550   1.452   1.093   5.542 -0.0208  0.0399  0.1813
  730POPI   GL110551   1.514   0.823   5.831 -0.4401  0.3035 -0.0959
  730POPI   GL210552   1.179   0.960   6.011 -0.2235  0.3520 -0.2653
  730POPI   C1A10553   1.492   0.724   6.258  0.1772 -0.1073  0.0422
  730POPI   D2A10554   1.495   0.677   6.759  0.0624 -0.0773  0.1506
  730POPI   C3A10555   1.259   0.247   7.006  0.5115 -0.0011 -0.0439
  730POPI   C4A10556   1.036  -0.141   7.225 -0.1757  0.0938  0.1076
  730POPI   C1B10557   1.105   1.062   6.451 -0.2179  0.5445  0.2080
  730POPI   C2B10558   1.166   0.976   6.927  0.0865  0.0682  0.3016
  730POPI   C3B10559   1.151   1.058   7.360  0.1291  0.0913 -0.3736
  730POPI   C4B10560   1.558   1.180   7.573  0.2987  0.0436  0.1154
  731POPI    C110561  13.700   4.493   5.301  0.2532  0.0643  0.2199
  731POPI    C210562  13.585   4.455   5.682 -0.1652 -0.3405  0.0615
  731POPI    C310563  13.343   4.631   5.416  0.1690  0.0357 -0.0030
  731POPI   PO410564  14.007   4.552   5.389  0.1631  0.0219  0.1792
  731POPI   GL110565  14.240   4.660   5.772  0.0823  0.1478  0.2978
  731POPI   GL210566  14.121   4.324   5.898  0.3105 -0.3353  0.0102
  731POPI   C1A10567  13.792   4.655   6.060  0.0663  0.0340 -0.0098
  731POPI   D2A10568  13.866   4.314   6.310 -0.1741 -0.0023  0.1700
  731POPI   C3A10569  13.790   4.340   6.781  0.1028  0.0763  0.1466
  731POPI   C4A10570  13.953   4.222   7.099 -0.0508 -0.4693  0.3110
  731POPI   C1B10571  14.418   4.353   6.128  0.0162  0.1540  0.2708
  731POPI   C2B10572  14.362   4.406   6.571  0.1342  0.0611  0.0812
  731POPI   C3B10573  14.396   4.408   6.993 -0.2021  0.1455  0.0748
  731POPI   C4B10574  14.314   4.555   7.403  0.5801  0.0236 -0.0166
  732POPI    C110575  16.226  17.344   5.524 -0.2290  0.0998 -0.0371
  732POPI    C210576  16.266  16.953   5.451 -0.1242  0.1220 -0.1004
  732POPI    C310577  16.137  17.198   5.162  0.0188  0.1666 -0.1272
  732POPI   PO410578  16.015  17.345   5.769  0.1105 -0.0475 -0.1619
  732POPI   GL110579  15.976  17.418   6.219 -0.1864 -0.0215  0.1210
  732POPI   GL210580  16.289  17.583   6.244  0.4693 -0.1047 -0.0302
  732POPI   C1A10581  15.936  17.101   6.425  0.3519  0.0930 -0.0080
  732POPI   D2A10582  15.850  17.083   6.852 -0.2454  0.0652  0.0822
  732POPI   C3A10583  16.037  16.811   7.177 -0.1005  0.0872  0.1757
  732POPI   C4A10584  15.844  16.464   7.404  0.2231  0.1498  0.0726
  732POPI   C1B10585  16.280  17.383   6.598  0.0638  0.3534  0.1315
  732POPI   C2B10586  16.300  17.282   7.076 -0.2728  0.1615 -0.2912
  732POPI   C3B10587  16.208  17.220   7.512 -0.1737 -0.0145  0.1324
  732POPI   C4B10588  16.089  17.490   7.753 -0.0589 -0.0380  0.3519
  733POPI    C110589  15.283  11.821   5.418  0.1694 -0.0735 -0.1495
  733POPI    C210590  15.004  12.029   5.220  0.0532 -0.3875 -0.3232
  733POPI    C310591  15.391  12.123   5.179 -0.0302  0.1641  0.0554
  733POPI   PO410592  15.196  11.864   5.671 -0.1635 -0.2838  0.5007
  733POPI   GL110593  15.174  12.145   6.033  0.0588  0.0434  0.2812
  733POPI   GL210594  15.207  12.499   6.114  0.0008 -0.0832  0.0413
  733POPI   C1A10595  15.427  12.081   6.372 -0.1332  0.0235  0.1633
  733POPI   D2A10596  15.383  12.124   6.766 -0.0956 -0.2615 -0.1057
  733POPI   C3A10597  15.599  12.332   7.120  0.1856 -0.2701 -0.1979
  733POPI   C4A10598  15.850  12.606   7.530 -0.1833  0.3208  0.0255
  733POPI   C1B10599  14.997  12.307   6.461 -0.0740 -0.1149 -0.1489
  733POPI   C2B10600  14.752  12.219   6.805 -0.2395 -0.0085 -0.2717
  733POPI   C3B10601  14.721  12.040   7.210  0.3721 -0.0265 -0.3636
  733POPI   C4B10602  14.625  12.171   7.524  0.0379  0.3510 -0.0708
  734POPI    C110603   1.655   4.424   5.634  0.1536  0.1370 -0.0389
  734POPI    C210604   2.025   4.449   5.483  0.0716 -0.0575 -0.2785
  734POPI    C310605   1.765   4.747   5.425  0.1037 -0.0431 -0.3491
  734POPI   PO410606   1.701   4.331   5.850  0.0083  0.5155 -0.0692
  734POPI   GL110607   1.495   4.102   6.130  0.0555 -0.3505  0.3096
  734POPI   GL210608   1.401   3.882   5.853 -0.2920  0.1146  0.0038
  734POPI   C1A10609   1.515   4.060   6.556 -0.2698  0.0667  0.0724
  734POPI   D2A10610   1.405   4.051   6.980  0.4156  0.0219  0.1840
  734POPI   C3A10611   1.251   3.680   7.199 -0.3521  0.1414 -0.0627
  734POPI   C4A10612   1.344   3.338   7.291  0.2309  0.1062 -0.1296
  734POPI   C1B10613   1.529   3.631   6.329  0.0065  0.1423  0.0245
  734POPI   C2B10614   1.587   3.422   6.842  0.0606 -0.2928  0.1698
  734POPI   C3B10615   1.893   3.197   7.233  0.0332  0.0139  0.3472
  734POPI   C4B10616   2.149   2.878   7.454  0.0005 -0.2050  0.3639
  735POPI    C110617   8.373   4.079   5.315 -0.0376  0.0653 -0.0786
  735POPI    C210618   8.541   3.806   5.077  0.0953  0.0825 -0.0052
  735POPI    C310619   8.370   4.130   4.918 -0.0766 -0.0496 -0.0935
  735POPI   PO410620   8.559   4.177   5.543  0.1806  0.3444  0.0923
  735POPI   GL110621   8.516   4.520   5.816  0.0505 -0.1631  0.2562
  735POPI   GL210622   8.821   4.678   5.732  0.0063  0.0311 -0.4850
  735POPI   C1A10623   8.667   4.273   6.110 -0.2106 -0.3326  0.0325
  735POPI   D2A10624   9.005   4.089   6.391  0.3089 -0.2795 -0.1817
  735POPI   C3A10625   9.069   4.156   6.853  0.1840 -0.0570  0.2183
  735POPI   C4A10626   9.217   4.198   7.209 -0.0486  0.1841 -0.1085
  735POPI   C1B10627   8.848   4.749   6.159 -0.2973  0.0705 -0.1132
  735POPI   C2B10628   8.893   4.649   6.577  0.2267 -0.2798  0.4338
  735POPI   C3B10629   8.609   4.796   6.937  0.0370 -0.3499  0.0408
  735POPI   C4B10630   8.470   4.753   7.385 -0.1289  0.1109 -0.3539
  736POPI    C110631   1.706   0.355   5.047  0.1152  0.2018  0.0967
  736POPI    C210632   1.581   0.257   4.680  0.0092 -0.0960  0.2092
  736POPI    C310633   1.418   0.569   4.870  0.0176  0.0184  0.0315
  736POPI   PO410634   1.700   0.106   5.157 -0.1202 -0.6166  0.2493
  736POPI   GL110635   1.806  -0.126   5.547  0.1294 -0.4515 -0.1310
  736POPI   GL210636   1.672  -0.472   5.629  0.0139 -0.0494  0.0442
  736POPI   C1A10637   2.111  -0.129   5.884 -0.1532  0.0138 -0.1126
  736POPI   D2A10638   2.454  -0.434   6.174 -0.2492  0.5444 -0.0577
  736POPI   C3A10639   2.625  -0.378   6.551 -0.2038 -0.0862 -0.0849
  736POPI   C4A10640   2.995  -0.155   6.572  0.2245  0.0239 -0.0469
  736POPI   C1B10641   1.996  -0.605   5.887  0.3030  0.1399  0.0126
  736POPI   C2B10642   2.382  -0.869   5.843  0.1525 -0.0205  0.2211
  736POPI   C3B10643   2.397  -1.329   5.907 -0.1133 -0.0513  0.0098
  736POPI   C4B10644   2.502  -1.722   6.066 -0.0457 -0.0107  0.0027
  737POPI    C110645  17.322  11.634   5.526 -0.0514 -0.1229  0.1822
  737POPI    C210646  17.531  11.358   5.326  0.0797  0.1023  0.0030
  737POPI    C310647  17.136  11.314   5.375  0.1132 -0.1590  0.0534
  737POPI   PO410648  17.625  11.782   5.663 -0.0185 -0.1391  0.2333
  737POPI   GL110649  18.102  11.720   5.861  0.1186  0.0917 -0.0291
  737POPI   GL210650  18.036  11.591   6.123  0.1595  0.3204 -0.0378
  737POPI   C1A10651  18.014  12.112   6.142 -0.0473 -0.0080  0.1075
  737POPI   D2A10652  17.898  12.570   6.085 -0.0447  0.0109 -0.0473
  737POPI   C3A10653  17.880  12.851   6.436  0.1142 -0.0811  0.0369
  737POPI   C4A10654  17.724  12.984   6.853 -0.1380 -0.1163 -0.6664
  737POPI   C1B10655  17.661  11.814   6.403 -0.0358 -0.1891  0.2536
  737POPI   C2B10656  17.281  11.959   6.643 -0.3732 -0.3983  0.1340
  737POPI   C3B10657  17.212  12.024   7.022  0.1060  0.0553  0.0533
  737POPI   C4B10658  17.054  12.202   7.287  0.1213 -0.0566 -0.1160
  738POPI    C110659  13.726   0.206   5.412  0.1589  0.1575 -0.0431
  738POPI    C210660  14.118   0.216   5.333  0.1278 -0.0843 -0.2402
  738POPI    C310661  13.939  -0.133   5.414 -0.0002  0.0568  0.1016
  738POPI   PO410662  13.647   0.366   5.558 -0.1611  0.4897 -0.1924
  738POPI   GL110663  13.598   0.483   5.868  0.0465 -0.1462  0.0022
  738POPI   GL210664  13.811   0.722   6.065  0.3082  0.0817 -0.2250
  738POPI   C1A10665  13.382   0.683   6.320 -0.1465  0.1111  0.2355
  738POPI   D2A10666  13.402   1.147   6.303 -0.1661  0.0145 -0.2509
  738POPI   C3A10667  13.642   1.266   6.580  0.0913  0.1252  0.0773
  738POPI   C4A10668  13.886   1.508   6.896  0.0382 -0.1539 -0.0638
  738POPI   C1B10669  13.821   0.641   6.493 -0.1695  0.3066  0.0155
  738POPI   C2B10670  13.672   0.761   6.805  0.4386  0.1457  0.1547
  738POPI   C3B10671  13.384   0.864   6.935 -0.0290  0.3333  0.0088
  738POPI   C4B10672  13.323   1.144   6.923  0.1161 -0.1912 -0.1588
  739POPI    C110673   5.736   4.709   5.344 -0.3816  0.0259  0.0305
  739POPI    C210674   5.594   4.962   5.069 -0.1250  0.2683  0.1162
  739POPI    C310675   5.989   4.913   5.110 -0.1712 -0.2668 -0.0032
  739POPI   PO410676   5.491   4.770   5.519 -0.0474  0.2924  0.0481
  739POPI   GL110677   5.474   4.551   5.863 -0.1725 -0.1131 -0.0151
  739POPI   GL210678   5.115   4.545   6.109  0.3419  0.1441  0.2300
  739POPI   C1A10679   5.556   4.701   6.303 -0.1800 -0.1311  0.1116
  739POPI   D2A10680   5.771   4.623   6.690  0.1513  0.1266  0.0451
  739POPI   C3A10681   6.052   4.750   6.942  0.0480  0.0015  0.4850
  739POPI   C4A10682   6.441   4.712   6.896 -0.1372 -0.0733  0.3999
  739POPI   C1B10683   5.237   4.421   6.519 -0.0940  0.4536 -0.3056
  739POPI   C2B10684   5.094   4.493   6.951  0.1027 -0.1794 -0.2088
  739POPI   C3B10685   4.802   4.455   7.228  0.0228  0.0431 -0.2401
  739POPI   C4B10686   4.349   4.502   7.262 -0.2137 -0.2517  0.0049
  740POPI    C110687   6.926  16.605   5.199  0.1587  0.1068 -0.0834
  740POPI    C210688   6.941  16.976   5.349  0.1831  0.0355  0.0927
  740POPI    C310689   7.260  16.822   5.164  0.0764  0.2089 -0.2435
  740POPI   PO410690   6.920  16.455   5.528  0.0670 -0.0758  0.2165
  740POPI   GL110691   7.123  16.397   5.913  0.0312  0.2368  0.2685
  740POPI   GL210692   7.449  16.277   5.901  0.4407 -0.2762 -0.1068
  740POPI   C1A10693   7.170  16.631   6.257  0.0475  0.1253 -0.1186
  740POPI   D2A10694   7.258  16.940   6.445 -0.0006 -0.1712  0.1467
  740POPI   C3A10695   7.410  16.995   6.804  0.1926  0.0104  0.1253
  740POPI   C4A10696   7.632  17.332   7.091  0.0359 -0.0104 -0.0672
  740POPI   C1B10697   7.341  16.096   6.345 -0.1728 -0.0552 -0.3231
  740POPI   C2B10698   7.458  16.001   6.784  0.0104  0.0345 -0.2669
  740POPI   C3B10699   7.564  15.998   7.159 -0.2307  0.1802  0.2092
  740POPI   C4B10700   7.499  16.173   7.572  0.1462 -0.0510  0.2099
  741POPI    C110701  13.914  17.135   5.309 -0.2496 -0.1513  0.3348
  741POPI    C210702  13.593  16.995   5.114  0.0084 -0.4615  0.1227
  741POPI    C310703  13.953  16.990   4.938  0.0881  0.1539  0.2451
  741POPI   PO410704  13.704  17.440   5.433 -0.0027  0.1080  0.1870
  741POPI   GL110705  13.730  17.460   5.782 -0.0047  0.0355 -0.0498
  741POPI   GL210706  13.451  17.628   5.877 -0.2109  0.0376 -0.0196
  741POPI   C1A10707  13.849  17.621   6.214  0.3591 -0.3810 -0.1400
  741POPI   D2A10708  13.768  17.771   6.678 -0.0274  0.1312  0.2934
  741POPI   C3A10709  13.830  17.682   7.061 -0.1840 -0.2275 -0.0631
  741POPI   C4A10710  13.925  17.879   7.422 -0.2165  0.4463  0.1104
  741POPI   C1B10711  13.411  17.258   6.173  0.0385 -0.1563 -0.1170
  741POPI   C2B10712  13.464  17.015   6.581 -0.1062 -0.0982 -0.2736
  741POPI   C3B10713  13.560  16.876   6.977 -0.1665 -0.1761  0.3687
  741POPI   C4B10714  13.484  16.953   7.417 -0.0552 -0.0988  0.0885
  742POPS   CNO10715  18.616  14.325   5.567  0.1815  0.2780  0.0458
  742POPS   PO410716  18.286  14.660   5.453  0.1320  0.1849 -0.2614
  742POPS   GL110717  18.500  14.914   5.743 -0.0553  0.0262  0.2878
  742POPS   GL210718  18.533  15.288   5.795 -0.4999 -0.1371 -0.1692
  742POPS   C1A10719  18.807  14.744   6.046 -0.0253  0.1845 -0.3524
  742POPS   D2A10720  19.274  14.730   6.171 -0.1607  0.1246 -0.4165
  742POPS   C3A10721  19.415  14.333   6.384 -0.1144 -0.2567  0.0058
  742POPS   C4A10722  19.454  14.226   6.815  0.1513  0.3199 -0.0130
  742POPS   C1B10723  18.528  15.595   6.085 -0.1612  0.1295 -0.0466
  742POPS   C2B10724  18.419  15.543   6.490  0.2242  0.0311 -0.1449
  742POPS   C3B10725  18.093  15.475   6.839 -0.0897 -0.0597 -0.2530
  742POPS   C4B10726  17.800  15.382   7.210 -0.1062  0.0899 -0.1018
  743POPS   CNO10727   5.418  10.077   5.164 -0.1566  0.0417 -0.1433
  743POPS   PO410728   5.937   9.942   5.247 -0.0449  0.2836  0.4041
  743POPS   GL110729   6.084   9.641   5.586 -0.2635 -0.1295  0.3505
  743POPS   GL210730   6.356   9.704   5.783 -0.1193  0.1842  0.4621
  743POPS   C1A10731   6.464   9.264   5.606 -0.2446 -0.0491 -0.0336
  743POPS   D2A10732   6.533   9.013   6.082  0.0379  0.2565 -0.0260
  743POPS   C3A10733   6.770   9.099   6.451 -0.0466 -0.0013 -0.2769
  743POPS   C4A10734   6.528   9.206   6.749  0.1461 -0.1563 -0.0459
  743POPS   C1B10735   6.159   9.876   6.151  0.2827  0.2434  0.1879
  743POPS   C2B10736   5.893   9.853   6.586 -0.1260  0.1718  0.2565
  743POPS   C3B10737   6.109  10.092   6.778  0.1907  0.1188  0.0906
  743POPS   C4B10738   6.210  10.590   6.670  0.0527 -0.2945 -0.0024
  744POPS   CNO10739   5.279   5.465   5.126  0.2048 -0.3932 -0.0665
  744POPS   PO410740   5.077   5.886   5.262 -0.1158 -0.0305 -0.0720
  744POPS   GL110741   5.278   5.640   5.634  0.0239 -0.2003  0.2624
  744POPS   GL210742   5.025   5.433   5.585  0.2385 -0.3105 -0.0864
  744POPS   C1A10743   5.477   5.416   6.007  0.1438 -0.0869 -0.1121
  744POPS   D2A10744   5.298   5.016   5.963 -0.0828 -0.0337  0.0633
  744POPS   C3A10745   5.151   4.976   6.389  0.1426  0.0837 -0.1834
  744POPS   C4A10746   5.253   4.873   6.747  0.1697  0.1400  0.0851
  744POPS   C1B10747   4.928   5.552   6.024  0.1401  0.2170 -0.0831
  744POPS   C2B10748   4.891   5.828   6.403  0.2045  0.0984  0.0678
  744POPS   C3B10749   4.634   5.614   6.735  0.1331 -0.0332  0.0386
  744POPS   C4B10750   4.465   5.266   7.013 -0.0945 -0.0679 -0.2158
  745POPS   CNO10751   0.849  15.874   5.448 -0.1076  0.0136  0.0352
  745POPS   PO410752   0.765  15.549   5.399  0.4314  0.0904  0.0059
  745POPS   GL110753   0.798  15.253   5.794 -0.0982 -0.1658  0.0817
  745POPS   GL210754   0.506  15.235   5.932  0.1207  0.2878  0.1145
  745POPS   C1A10755   1.033  15.320   6.155 -0.1618 -0.1432 -0.0096
  745POPS   D2A10756   1.057  15.433   6.603  0.2628 -0.1531 -0.0726
  745POPS   C3A10757   1.353  15.801   6.616  0.1346 -0.3084  0.2110
  745POPS   C4A10758   1.744  15.650   6.602 -0.1108  0.0262  0.0810
  745POPS   C1B10759   0.532  15.508   6.230 -0.0645  0.1737 -0.0800
  745POPS   C2B10760   0.451  15.689   6.633 -0.1356  0.0056 -0.0742
  745POPS   C3B10761   0.768  15.705   7.034  0.1721  0.0976 -0.1902
  745POPS   C4B10762   0.577  15.557   7.397 -0.1691 -0.0524  0.0794
  746POPS   CNO10763  12.894   8.242   5.410 -0.2141  0.1867 -0.1264
  746POPS   PO410764  13.215   8.561   5.422 -0.0030  0.1949 -0.0848
  746POPS   GL110765  13.345   8.357   5.798 -0.0896  0.1589  0.0529
  746POPS   GL210766  13.056   8.130   5.913 -0.1246 -0.2283  0.0675
  746POPS   C1A10767  13.477   8.313   6.248 -0.1808 -0.1677  0.1198
  746POPS   D2A10768  13.727   8.176   6.692 -0.0170 -0.0707 -0.1540
  746POPS   C3A10769  13.653   8.089   7.082  0.2070 -0.1802  0.0834
  746POPS   C4A10770  13.519   7.747   7.362  0.2678  0.3445 -0.2966
  746POPS   C1B10771  12.922   8.345   6.227  0.1028  0.0776 -0.0177
  746POPS   C2B10772  12.783   8.533   6.636 -0.2591 -0.3075 -0.0070
  746POPS   C3B10773  12.860   8.507   6.984  0.0717  0.1958 -0.0910
  746POPS   C4B10774  12.893   8.900   7.344  0.2444 -0.3297  0.1115
  747POPS   CNO10775  18.157  16.913   5.538  0.0451  0.0373  0.0283
  747POPS   PO410776  17.930  16.575   5.708 -0.0449 -0.1141 -0.1555
  747POPS   GL110777  18.300  16.599   5.959  0.1194  0.4010 -0.0794
  747POPS   GL210778  18.087  16.662   6.265 -0.0840  0.1340 -0.0094
  747POPS   C1A10779  18.677  16.674   6.323  0.1592  0.0561 -0.1938
  747POPS   D2A10780  18.828  16.843   6.672  0.0370  0.2899 -0.1937
  747POPS   C3A10781  19.274  16.994   6.763  0.0093  0.0235 -0.1006
  747POPS   C4A10782  19.450  17.180   7.091 -0.0512  0.0472  0.3502
  747POPS   C1B10783  18.260  16.739   6.650 -0.1719  0.0568 -0.1584
  747POPS   C2B10784  18.428  16.744   6.976  0.0585 -0.0774  0.0788
  747POPS   C3B10785  18.414  16.401   7.199  0.0247  0.0054  0.1062
  747POPS   C4B10786  18.334  16.285   7.711  0.0084 -0.2552  0.3948
  748POPS   CNO10787  11.826  14.757   5.421 -0.2948 -0.2947 -0.2185
  748POPS   PO410788  11.982  14.346   5.481  0.2332  0.2860  0.2021
  748POPS   GL110789  11.767  14.101   5.787 -0.1275 -0.2583 -0.5045
  748POPS   GL210790  11.415  14.158   5.971 -0.1791  0.0024 -0.0031
  748POPS   C1A10791  11.723  13.850   6.165  0.0294 -0.2559 -0.3630
  748POPS   D2A10792  11.665  13.758   6.635  0.0579 -0.1647  0.1209
  748POPS   C3A10793  11.385  14.081   6.928  0.0214  0.0165 -0.2481
  748POPS   C4A10794  11.353  14.468   6.918 -0.1083 -0.0622 -0.0116
  748POPS   C1B10795  11.282  13.919   6.374  0.1014  0.1093 -0.3172
  748POPS   C2B10796  11.336  13.506   6.356  0.3070  0.2188  0.0806
  748POPS   C3B10797  11.323  13.355   6.789 -0.3390  0.1828  0.0660
  748POPS   C4B10798  11.174  13.214   7.198  0.2279  0.3614  0.1174
  749POPS   CNO10799   5.558   1.744   5.476 -0.0701 -0.1679  0.2870
  749POPS   PO410800   5.880   1.555   5.552  0.0293 -0.0026 -0.0174
  749POPS   GL110801   5.707   1.679   5.973 -0.1735  0.0153  0.0955
  749POPS   GL210802   5.566   1.949   5.998 -0.1119  0.1895  0.0744
  749POPS   C1A10803   5.773   1.577   6.362  0.0657  0.0891 -0.0036
  749POPS   D2A10804   5.790   1.326   6.796  0.4893 -0.3266  0.1476
  749POPS   C3A10805   5.686   1.625   7.073  0.0239 -0.4262 -0.0909
  749POPS   C4A10806   5.431   1.959   7.357  0.1630  0.0744  0.2135
  749POPS   C1B10807   5.441   2.012   6.458  0.1578  0.0822  0.2754
  749POPS   C2B10808   5.611   2.092   6.876 -0.1554  0.0156  0.0597
  749POPS   C3B10809   5.987   2.032   7.180  0.0704  0.1568 -0.1004
  749POPS   C4B10810   5.909   1.800   7.599  0.3355 -0.0969 -0.0623
  750POPS   CNO10811   3.769  12.023   5.488 -0.3426 -0.2339  0.1114
  750POPS   PO410812   3.411  12.321   5.380  0.0914 -0.1416  0.3522
  750POPS   GL110813   3.489  12.374   5.814  0.2389 -0.1687 -0.2295
  750POPS   GL210814   3.804  12.438   5.789 -0.2194 -0.0389 -0.0743
  750POPS   C1A10815   3.303  12.307   6.320  0.1279 -0.0347 -0.1214
  750POPS   D2A10816   3.127  12.126   6.709 -0.0531 -0.1773  0.1505
  750POPS   C3A10817   3.329  12.026   7.113 -0.0623 -0.0536 -0.4420
  750POPS   C4A10818   3.340  12.242   7.500  0.0647  0.1610  0.0265
  750POPS   C1B10819   3.968  12.443   6.120 -0.1764 -0.4118  0.1782
  750POPS   C2B10820   3.831  12.238   6.429 -0.1524  0.0384  0.2894
  750POPS   C3B10821   3.642  12.068   6.670 -0.2278 -0.0505  0.0228
  750POPS   C4B10822   3.299  11.616   6.646  0.2382 -0.0969 -0.0692
  751POPS   CNO10823   8.680  18.855   5.150  0.1866  0.1681  0.0159
  751POPS   PO410824   8.671  18.409   5.129 -0.1063  0.0856 -0.0275
  751POPS   GL110825   8.625  18.555   5.519 -0.3585 -0.3678 -0.1374
  751POPS   GL210826   8.870  18.537   5.677 -0.1118 -0.4033  0.1278
  751POPS   C1A10827   8.453  18.306   5.818 -0.1432  0.0216 -0.1433
  751POPS   D2A10828   8.250  18.410   6.161  0.1700 -0.1231 -0.0250
  751POPS   C3A10829   8.368  18.445   6.630  0.0478  0.1074  0.5171
  751POPS   C4A10830   8.333  18.637   7.020  0.0273  0.1344 -0.0250
  751POPS   C1B10831   8.877  18.775   6.068  0.0273 -0.2121 -0.0455
  751POPS   C2B10832   8.716  18.815   6.488 -0.1461  0.1237  0.0579
  751POPS   C3B10833   8.810  18.922   6.812 -0.0948  0.3791 -0.0327
  751POPS   C4B10834   8.587  19.021   7.196  0.3201  0.4313  0.3231
  752POPS   CNO10835   6.158  13.978   5.261  0.0531 -0.1993  0.0029
  752POPS   PO410836   6.460  14.086   5.625  0.0274 -0.0410 -0.2884
  752POPS   GL110837   6.502  13.992   6.032 -0.1090 -0.0305 -0.1523
  752POPS   GL210838   6.732  13.710   6.043 -0.1235  0.0955 -0.3494
  752POPS   C1A10839   6.292  13.977   6.409  0.2155 -0.0520  0.1302
  752POPS   D2A10840   6.048  14.239   6.673 -0.2856  0.0161  0.2751
  752POPS   C3A10841   5.674  14.293   6.434 -0.1682 -0.2748 -0.0863
  752POPS   C4A10842   5.536  14.156   6.097  0.2297 -0.1924 -0.1070
  752POPS   C1B10843   6.744  13.819   6.420 -0.1025 -0.0892 -0.0052
  752POPS   C2B10844   6.586  13.640   6.745 -0.1652 -0.0213 -0.0957
  752POPS   C3B10845   6.217  13.796   6.999 -0.2259  0.0220  0.2018
  752POPS   C4B10846   5.990  13.824   7.277 -0.1056 -0.0049 -0.0528
  753POPS   CNO10847  17.476  14.661   4.826 -0.0329  0.0192 -0.2653
  753POPS   PO410848  17.399  14.453   5.353 -0.0277  0.0485  0.0074
  753POPS   GL110849  17.590  14.375   5.770  0.0365 -0.0991 -0.1569
  753POPS   GL210850  17.833  14.676   5.663 -0.1761  0.1939  0.0580
  753POPS   C1A10851  17.361  14.424   6.133 -0.2170 -0.2721 -0.1386
  753POPS   D2A10852  17.113  14.784   6.212 -0.4292 -0.1136  0.0327
  753POPS   C3A10853  17.356  15.036   6.466 -0.3213 -0.3177  0.0030
  753POPS   C4A10854  17.534  15.427   6.722  0.1186  0.0677  0.1605
  753POPS   C1B10855  17.668  14.812   6.091  0.0308  0.0059  0.0290
  753POPS   C2B10856  17.721  14.576   6.509 -0.0456 -0.0325 -0.1527
  753POPS   C3B10857  17.949  14.346   6.779 -0.3263 -0.0226 -0.1941
  753POPS   C4B10858  18.029  13.966   6.913  0.1489 -0.1269 -0.2954
  754POPS   CNO10859  16.949   0.571   5.255 -0.2255  0.0683  0.1059
  754POPS   PO410860  17.035   0.688   5.756  0.2777  0.1407 -0.1941
  754POPS   GL110861  17.435   0.665   6.076 -0.0324  0.2459  0.4899
  754POPS   GL210862  17.535   0.340   6.170  0.2012  0.1506 -0.0806
  754POPS   C1A10863  17.547   1.008   6.237 -0.0989 -0.2117  0.1357
  754POPS   D2A10864  17.658   1.064   6.682  0.0798  0.2314 -0.0671
  754POPS   C3A10865  17.331   0.738   6.957  0.0822  0.0494 -0.2171
  754POPS   C4A10866  17.268   0.792   7.465 -0.0702  0.0375  0.3463
  754POPS   C1B10867  17.544   0.285   6.575 -0.0029 -0.0596  0.2322
  754POPS   C2B10868  17.602   0.231   6.972 -0.2854 -0.2280 -0.0475
  754POPS   C3B10869  17.590   0.113   7.364  0.0575 -0.0724  0.0301
  754POPS   C4B10870  17.286   0.278   7.657 -0.2435  0.1267 -0.1094
  755POPS   CNO10871  14.989  16.581   5.593 -0.1670 -0.0313  0.1655
  755POPS   PO410872  15.264  16.868   5.351  0.1037  0.0300  0.0392
  755POPS   GL110873  15.237  16.986   5.845 -0.0339 -0.3039 -0.0701
  755POPS   GL210874  14.978  17.154   6.009  0.1451 -0.2705  0.4291
  755POPS   C1A10875  15.335  16.792   6.213  0.1591  0.0094  0.3233
  755POPS   D2A10876  15.470  16.452   6.425 -0.0104  0.2204 -0.0364
  755POPS   C3A10877  15.622  16.116   6.332 -0.1681 -0.4454 -0.0145
  755POPS   C4A10878  15.813  15.980   6.042 -0.4506  0.0207 -0.2051
  755POPS   C1B10879  15.040  17.163   6.447 -0.1149 -0.1344  0.3931
  755POPS   C2B10880  15.253  16.866   6.677  0.0509  0.0138  0.3119
  755POPS   C3B10881  15.158  16.474   6.949  0.1057  0.1103  0.1068
  755POPS   C4B10882  14.845  16.443   7.363 -0.2109  0.1185  0.0969
  756POPS   CNO10883   3.819   9.153   5.236 -0.0712 -0.1027  0.0572
  756POPS   PO410884   3.637   9.091   5.586 -0.0198 -0.1881  0.4301
  756POPS   GL110885   3.499   8.797   5.871  0.2142 -0.1499  0.4295
  756POPS   GL210886   3.554   8.527   5.813 -0.0540 -0.1388 -0.2617
  756POPS   C1A10887   3.474   8.670   6.275 -0.3335  0.1134 -0.1599
  756POPS   D2A10888   3.570   8.911   6.615 -0.1006  0.1979  0.2273
  756POPS   C3A10889   3.483   8.834   6.965  0.5207 -0.1398 -0.4267
  756POPS   C4A10890   3.303   9.226   7.207  0.1042 -0.1765 -0.1681
  756POPS   C1B10891   3.741   8.288   6.226 -0.0505 -0.0722 -0.3429
  756POPS   C2B10892   4.084   8.159   6.496  0.0578 -0.0979 -0.0236
  756POPS   C3B10893   4.062   7.883   6.745 -0.3257  0.3557 -0.1729
  756POPS   C4B10894   3.845   7.555   7.004  0.1031 -0.2114  0.0958
  757POPS   CNO10895  11.641   1.202   5.248  0.0995  0.2102  0.0788
  757POPS   PO410896  11.317   1.484   5.437 -0.0587  0.2126 -0.0571
  757POPS   GL110897  11.482   1.770   5.820 -0.0893  0.2225  0.0912
  757POPS   GL210898  11.147   1.704   5.985  0.4900  0.0486 -0.3725
  757POPS   C1A10899  11.727   2.070   5.968 -0.0635  0.1946  0.1532
  757POPS   D2A10900  11.943   2.406   5.869  0.0052 -0.3788  0.0353
  757POPS   C3A10901  12.114   2.544   6.251  0.0159  0.1372 -0.1478
  757POPS   C4A10902  12.357   2.886   6.317 -0.1248 -0.2674  0.0083
  757POPS   C1B10903  11.439   1.636   6.312 -0.3565  0.0948 -0.2038
  757POPS   C2B10904  11.394   1.469   6.671 -0.2813 -0.0003  0.0215
  757POPS   C3B10905  11.461   1.552   7.083  0.1053  0.1642 -0.1857
  757POPS   C4B10906  11.365   1.327   7.470 -0.0866 -0.2322 -0.1448
  758POPS   CNO10907   5.358   1.372   5.709 -0.0087  0.1039  0.2079
  758POPS   PO410908   5.048   1.648   5.730 -0.0260 -0.4310  0.3275
  758POPS   GL110909   5.277   1.617   6.168  0.0382 -0.0524  0.1676
  758POPS   GL210910   5.109   1.300   6.254 -0.1017  0.5230 -0.0353
  758POPS   C1A10911   5.321   1.593   6.635  0.1772 -0.3555  0.0835
  758POPS   D2A10912   5.251   1.400   7.071 -0.0617 -0.1439 -0.1064
  758POPS   C3A10913   5.252   0.992   7.358  0.2132 -0.0819 -0.0914
  758POPS   C4A10914   5.482   0.700   7.476  0.2974 -0.0927  0.0208
  758POPS   C1B10915   4.858   1.335   6.676 -0.1741  0.0624  0.0442
  758POPS   C2B10916   4.708   1.322   7.215  0.3129  0.3010  0.1277
  758POPS   C3B10917   4.313   1.423   7.526  0.2773 -0.1692  0.0933
  758POPS   C4B10918   4.134   1.451   7.964  0.0314 -0.1830 -0.1459
  759POPS   CNO10919   5.393  18.823   5.269 -0.0934 -0.0684  0.3452
  759POPS   PO410920   4.950  18.999   5.284  0.1548  0.0131  0.2142
  759POPS   GL110921   5.095  18.947   5.697  0.0023 -0.3101 -0.1520
  759POPS   GL210922   4.859  19.017   5.820 -0.2450  0.1974  0.5434
  759POPS   C1A10923   5.322  19.306   5.849  0.0492  0.3463 -0.0166
  759POPS   D2A10924   5.410  19.423   6.151  0.0347 -0.0356  0.1307
  759POPS   C3A10925   5.361  19.384   6.573 -0.0025 -0.2478 -0.2794
  759POPS   C4A10926   5.327  19.541   6.992 -0.1880  0.4038 -0.4113
  759POPS   C1B10927   5.170  18.884   6.159  0.0558 -0.0615 -0.0080
  759POPS   C2B10928   5.298  18.914   6.561  0.2519  0.2389  0.1835
  759POPS   C3B10929   5.597  19.009   6.896 -0.3398  0.1949 -0.1555
  759POPS   C4B10930   5.801  19.276   7.315 -0.0556 -0.1339  0.1370
  760POPS   CNO10931   0.620  17.626   5.613  0.1425  0.1353  0.0675
  760POPS   PO410932   0.246  17.550   5.615 -0.0876  0.0394  0.3040
  760POPS   GL110933   0.108  17.667   6.079  0.1625  0.2186 -0.2379
  760POPS   GL210934   0.049  17.391   6.223 -0.1325 -0.0059  0.1450
  760POPS   C1A10935   0.363  17.745   6.465 -0.0423 -0.4248  0.4239
  760POPS   D2A10936   0.340  17.657   6.995  0.4502  0.1135  0.1823
  760POPS   C3A10937   0.420  17.947   7.238 -0.1113  0.3396 -0.3974
  760POPS   C4A10938   0.727  18.352   7.306  0.0054 -0.3470  0.0233
  760POPS   C1B10939   0.052  17.416   6.621  0.0172 -0.3575  0.2675
  760POPS   C2B10940   0.022  17.268   7.046 -0.1520  0.2022 -0.3713
  760POPS   C3B10941  -0.207  17.074   7.386  0.2089 -0.1089  0.2868
  760POPS   C4B10942  -0.376  16.743   7.537  0.1064  0.1414  0.1990
  761POPS   CNO10943  14.705   2.364   5.159  0.1397 -0.2164 -0.0974
  761POPS   PO410944  14.621   1.945   5.257 -0.0017  0.3323  0.1391
  761POPS   GL110945  14.642   2.071   5.645  0.1989 -0.1145  0.0862
  761POPS   GL210946  14.699   2.408   5.657 -0.0161 -0.0432 -0.2678
  761POPS   C1A10947  14.766   2.169   6.076  0.1951  0.1253 -0.0521
  761POPS   D2A10948  14.998   2.227   6.403 -0.0131 -0.1216 -0.0746
  761POPS   C3A10949  15.225   2.580   6.509 -0.2747 -0.3624 -0.2409
  761POPS   C4A10950  15.445   2.909   6.441  0.0888 -0.1072 -0.1661
  761POPS   C1B10951  14.759   2.878   5.710 -0.4649  0.1931 -0.2211
  761POPS   C2B10952  15.006   3.168   5.999  0.0613  0.0366  0.0537
  761POPS   C3B10953  15.392   3.372   6.163 -0.0264 -0.1247 -0.0963
  761POPS   C4B10954  15.517   3.410   6.613 -0.1430 -0.0999  0.3364
  762POPS   CNO10955  12.647   6.494   5.506  0.3731  0.0093  0.0891
  762POPS   PO410956  12.435   6.802   5.754  0.0821  0.2891  0.0303
  762POPS   GL110957  12.533   6.529   6.027  0.0770  0.0516 -0.2607
  762POPS   GL210958  12.797   6.386   5.989 -0.2013  0.1849  0.0334
  762POPS   C1A10959  12.571   6.275   6.436  0.0877 -0.0285 -0.0569
  762POPS   D2A10960  12.706   6.239   6.805  0.2355  0.0781  0.2139
  762POPS   C3A10961  12.998   6.023   7.003 -0.0164 -0.1452  0.2879
  762POPS   C4A10962  13.164   5.968   7.389  0.2387  0.0093 -0.0065
  762POPS   C1B10963  13.091   6.423   6.270  0.0554  0.1165 -0.3674
  762POPS   C2B10964  13.142   6.576   6.742 -0.0525 -0.1046 -0.3717
  762POPS   C3B10965  13.182   6.514   7.149  0.0619  0.0106 -0.2476
  762POPS   C4B10966  13.075   6.432   7.615 -0.4214  0.1092  0.1162
  763POPS   CNO10967  14.680   0.611   5.557  0.0341  0.1987 -0.0349
  763POPS   PO410968  14.524   0.260   5.664 -0.2273  0.2122  0.3017
  763POPS   GL110969  14.353   0.475   6.023 -0.0290 -0.2287  0.2703
  763POPS   GL210970  14.425   0.725   6.158  0.0369  0.1206  0.0769
  763POPS   C1A10971  14.059   0.219   6.324  0.1986  0.3531 -0.3712
  763POPS   D2A10972  13.693   0.065   6.655 -0.4091 -0.0204 -0.1270
  763POPS   C3A10973  13.669   0.306   6.991  0.0158  0.2368  0.2137
  763POPS   C4A10974  13.848   0.571   7.168 -0.0880  0.1929  0.2095
  763POPS   C1B10975  14.349   0.709   6.581 -0.0945 -0.0258  0.3205
  763POPS   C2B10976  14.371   0.617   7.018 -0.1244 -0.1334 -0.0471
  763POPS   C3B10977  14.741   0.517   7.336 -0.2185 -0.0361  0.0591
  763POPS   C4B10978  14.874   0.734   7.652 -0.0089 -0.1650  0.1739
  764POPS   CNO10979  15.902   5.579   5.814 -0.1078  0.1160 -0.0469
  764POPS   PO410980  16.288   5.610   5.994 -0.2415  0.0163 -0.1624
  764POPS   GL110981  16.426   5.600   6.402 -0.0705  0.0361 -0.2472
  764POPS   GL210982  16.595   5.356   6.566  0.1863  0.1173 -0.0875
  764POPS   C1A10983  16.234   5.690   6.693 -0.1640 -0.2274  0.0540
  764POPS   D2A10984  15.988   5.479   6.962  0.0751  0.3223 -0.1494
  764POPS   C3A10985  16.171   5.455   7.400  0.2865 -0.0224  0.2017
  764POPS   C4A10986  16.262   5.384   7.849 -0.3370 -0.0939  0.1949
  764POPS   C1B10987  16.517   5.281   7.052 -0.1464  0.0099  0.0170
  764POPS   C2B10988  16.694   5.375   7.495  0.0199  0.0406  0.0773
  764POPS   C3B10989  16.553   5.766   7.682  0.1431  0.1118 -0.0405
  764POPS   C4B10990  16.808   6.015   7.992 -0.1255 -0.1376  0.4048
  765POPS   CNO10991   1.366   6.022   5.664  0.0782  0.5146 -0.4191
  765POPS   PO410992   0.962   5.901   5.717 -0.2332 -0.2433 -0.3703
  765POPS   GL110993   1.019   6.191   6.029  0.1404  0.1182  0.1591
  765POPS   GL210994   0.791   6.484   5.925  0.1734  0.0064  0.3571
  765POPS   C1A10995   1.035   6.145   6.498  0.4344  0.1780  0.1733
  765POPS   D2A10996   1.173   6.095   6.955  0.8731 -0.1624 -0.0304
  765POPS   C3A10997   0.714   5.991   7.086  0.5870 -0.2989  0.1766
  765POPS   C4A10998   0.514   6.218   7.335 -0.2434  0.3248 -0.1311
  765POPS   C1B10999   0.613   6.441   6.277 -0.3912 -0.4699  0.1461
  765POPS   C2B11000   0.522   6.357   6.781  0.1201  0.0374 -0.5034
  765POPS   C3B11001   0.597   6.611   7.095  0.1357  0.2305 -0.1519
  765POPS   C4B11002   0.785   6.911   7.398 -0.1995  0.4336 -0.0853
  766POPS   CNO11003   0.989   8.444   5.028 -0.2375 -0.1293 -0.2134
  766POPS   PO411004   1.041   8.528   5.448 -0.3410  0.1221 -0.1782
  766POPS   GL111005   1.323   8.667   5.771  0.0474  0.2731 -0.0408
  766POPS   GL211006   1.140   8.803   5.928  0.1020  0.1427 -0.2771
  766POPS   C1A11007   1.634   8.449   6.156 -0.0448  0.0319 -0.2284
  766POPS   D2A11008   2.116   8.347   6.337  0.0550  0.1894  0.2192
  766POPS   C3A11009   2.373   8.459   6.719 -0.2384  0.1500  0.1469
  766POPS   C4A11010   2.653   8.248   6.886 -0.1557  0.1389  0.2474
  766POPS   C1B11011   1.394   8.863   6.263  0.1405  0.2007 -0.1282
  766POPS   C2B11012   1.429   8.543   6.602  0.0663 -0.0513  0.1019
  766POPS   C3B11013   1.436   8.453   7.064 -0.2377  0.1154  0.0787
  766POPS   C4B11014   1.312   8.313   7.398  0.0376 -0.0470  0.1687
  767POPS   CNO11015  18.345   3.314   5.846  0.1052  0.0022  0.0386
  767POPS   PO411016  18.008   3.396   5.638 -0.2947 -0.3656  0.0596
  767POPS   GL111017  17.811   3.282   5.948  0.1772  0.2620  0.2087
  767POPS   GL211018  17.934   2.934   6.121  0.0223 -0.4263  0.3809
  767POPS   C1A11019  17.700   3.341   6.317 -0.0110 -0.4079 -0.1553
  767POPS   D2A11020  17.537   3.695   6.460 -0.0392  0.2782  0.0610
  767POPS   C3A11021  17.886   4.053   6.411  0.0761  0.0595 -0.0531
  767POPS   C4A11022  18.143   4.369   6.535 -0.0033 -0.1715  0.3774
  767POPS   C1B11023  18.369   3.039   6.245  0.1653 -0.2550  0.0504
  767POPS   C2B11024  18.534   2.846   6.618  0.1063  0.0706 -0.0475
  767POPS   C3B11025  18.577   2.441   6.672  0.1457 -0.3510 -0.1829
  767POPS   C4B11026  18.389   2.182   6.891 -0.0941 -0.1149 -0.0424
  768POPS   CNO11027  18.503   5.630   5.768  0.1307 -0.2564 -0.2763
  768POPS   PO411028  18.261   5.906   5.890  0.2791  0.0361  0.0172
  768POPS   GL111029  18.437   6.169   6.178  0.0009  0.1455  0.0210
  768POPS   GL211030  18.524   5.956   6.382 -0.0612  0.1804 -0.3472
  768POPS   C1A11031  18.487   6.584   6.317 -0.1220 -0.0731 -0.0141
  768POPS   D2A11032  18.559   6.710   6.612  0.0162 -0.0162 -0.0058
  768POPS   C3A11033  18.595   7.091   6.914 -0.0372 -0.0050  0.2359
  768POPS   C4A11034  18.684   7.354   7.205  0.1560 -0.0530 -0.4189
  768POPS   C1B11035  18.453   6.171   6.665 -0.1311 -0.0227 -0.3144
  768POPS   C2B11036  18.346   6.476   7.043 -0.1299  0.1608 -0.0902
  768POPS   C3B11037  18.020   6.622   7.366  0.0504 -0.3325  0.2149
  768POPS   C4B11038  17.679   6.382   7.644  0.1545 -0.1039 -0.2500
  769POPS   CNO11039  18.228   4.443   5.572  0.0649 -0.0359  0.3497
  769POPS   PO411040  18.155   4.724   5.816 -0.0563  0.1328 -0.1998
  769POPS   GL111041  18.367   4.658   6.211  0.2168  0.4109  0.1600
  769POPS   GL211042  18.240   4.839   6.427 -0.0373 -0.2146 -0.0406
  769POPS   C1A11043  18.614   4.471   6.589  0.2194  0.2230  0.0110
  769POPS   D2A11044  18.649   4.356   7.036  0.1474 -0.0127  0.1667
  769POPS   C3A11045  19.024   4.441   7.135 -0.0663 -0.1796  0.4536
  769POPS   C4A11046  19.360   4.324   7.422  0.1235  0.2724  0.2380
  769POPS   C1B11047  18.222   4.807   6.800 -0.2051  0.4052  0.2793
  769POPS   C2B11048  18.123   4.564   7.045 -0.1809  0.0934  0.1038
  769POPS   C3B11049  17.878   4.495   7.245  0.0226  0.0799 -0.1992
  769POPS   C4B11050  17.571   4.262   7.497 -0.2057 -0.1298  0.0346
  770POPS   CNO11051  16.228   4.007   5.619  0.2079  0.4398  0.2074
  770POPS   PO411052  16.277   3.611   5.521 -0.2921 -0.2040 -0.0869
  770POPS   GL111053  16.310   3.491   5.988  0.1966  0.4931  0.1743
  770POPS   GL211054  16.216   3.158   6.047  0.0899  0.1177  0.0483
  770POPS   C1A11055  16.608   3.373   6.406 -0.1648  0.1073  0.0886
  770POPS   D2A11056  16.758   3.235   6.813  0.4215 -0.0013  0.0110
  770POPS   C3A11057  16.932   3.457   7.146 -0.2883  0.2675 -0.1337
  770POPS   C4A11058  16.781   3.581   7.574  0.1616 -0.0265  0.0521
  770POPS   C1B11059  15.881   2.995   6.279 -0.1524 -0.1018 -0.0194
  770POPS   C2B11060  15.862   2.928   6.774  0.2387  0.0536  0.0481
  770POPS   C3B11061  15.885   2.735   7.201 -0.0176 -0.1222 -0.0647
  770POPS   C4B11062  15.681   2.676   7.566 -0.0298 -0.1267  0.3409
  771POPS   CNO11063   1.217   1.010   5.085  0.0688 -0.3104  0.1112
  771POPS   PO411064   1.393   0.539   5.376 -0.1363  0.2297  0.0156
  771POPS   GL111065   1.161   0.423   5.711  0.1364  0.0214 -0.2055
  771POPS   GL211066   1.097  -0.011   5.869 -0.0044  0.1620  0.2053
  771POPS   C1A11067   0.856   0.575   6.032  0.0795 -0.3143  0.2789
  771POPS   D2A11068   0.715   0.227   6.237  0.0619  0.2629  0.0846
  771POPS   C3A11069   0.496   0.284   6.589 -0.0348  0.1880 -0.0947
  771POPS   C4A11070   0.117   0.213   6.946 -0.3145 -0.0880 -0.0489
  771POPS   C1B11071   1.223   0.267   6.268  0.2519  0.1084  0.0190
  771POPS   C2B11072   0.931   0.617   6.558 -0.2403  0.1956 -0.1671
  771POPS   C3B11073   0.627   0.905   6.400  0.1536 -0.0314  0.0240
  771POPS   C4B11074   0.558   1.313   6.262  0.2668 -0.1466 -0.1667
  772POPS   CNO11075  13.791  10.392   5.808  0.1967  0.0302 -0.3343
  772POPS   PO411076  13.993  10.066   5.800 -0.1069 -0.0671 -0.0247
  772POPS   GL111077  14.172  10.136   6.180  0.1164  0.2582  0.1784
  772POPS   GL211078  13.814  10.127   6.447 -0.4506 -0.4202 -0.0653
  772POPS   C1A11079  14.262  10.324   6.530 -0.0002 -0.3386 -0.0224
  772POPS   D2A11080  14.126  10.348   6.956  0.2599 -0.0984 -0.2229
  772POPS   C3A11081  13.991  10.804   7.116 -0.1136  0.0361  0.1790
  772POPS   C4A11082  13.713  10.814   7.581 -0.0257 -0.1457 -0.0381
  772POPS   C1B11083  13.553  10.219   6.895 -0.2403 -0.1035  0.1266
  772POPS   C2B11084  13.117  10.203   6.978 -0.1534 -0.1429 -0.0912
  772POPS   C3B11085  12.835  10.118   7.233  0.1436  0.1008  0.0307
  772POPS   C4B11086  12.605   9.863   7.520  0.2364 -0.0320  0.0015
  773POPS   CNO11087   6.234   3.637   5.420  0.1761  0.0544  0.0230
  773POPS   PO411088   5.874   3.931   5.234 -0.3680  0.2193 -0.1621
  773POPS   GL111089   5.845   3.854   5.719  0.0115 -0.1335 -0.1050
  773POPS   GL211090   5.738   4.101   6.006  0.0618 -0.3189 -0.0238
  773POPS   C1A11091   5.855   3.614   6.104  0.0756  0.0386  0.0855
  773POPS   D2A11092   5.801   3.231   6.113  0.0786 -0.0499  0.0441
  773POPS   C3A11093   5.784   3.172   6.608  0.2033 -0.1420  0.1314
  773POPS   C4A11094   5.557   3.182   6.975  0.2495  0.1162 -0.0591
  773POPS   C1B11095   5.650   4.147   6.405 -0.3925 -0.3021  0.0119
  773POPS   C2B11096   5.613   4.062   6.824  0.2291  0.1111  0.1372
  773POPS   C3B11097   5.653   3.995   7.261  0.1966  0.0302 -0.2048
  773POPS   C4B11098   5.402   3.742   7.604 -0.0774 -0.0415  0.1154
  774POPS   CNO11099  15.723   9.003   6.153 -0.0487 -0.2755  0.1190
  774POPS   PO411100  15.314   8.969   6.180 -0.0622  0.2451 -0.0344
  774POPS   GL111101  15.303   9.129   6.570 -0.0083 -0.0731  0.1401
  774POPS   GL211102  15.212   9.451   6.529 -0.2136  0.1834 -0.0568
  774POPS   C1A11103  15.520   9.250   6.983  0.0046 -0.1911  0.4011
  774POPS   D2A11104  15.691   9.259   7.334  0.1236  0.0513 -0.2132
  774POPS   C3A11105  15.952   9.453   7.482 -0.1476  0.2614  0.0419
  774POPS   C4A11106  16.128   9.512   7.947 -0.1335  0.0859  0.2040
  774POPS   C1B11107  15.097   9.596   6.949  0.2699 -0.1663 -0.3251
  774POPS   C2B11108  14.698   9.783   6.968  0.0450  0.0332 -0.1631
  774POPS   C3B11109  14.511  10.060   7.334  0.0651  0.1847 -0.2482
  774POPS   C4B11110  14.289   9.972   7.667 -0.1800  0.2506  0.0606
  775POPS   CNO11111  13.661  14.587   5.151  0.5831 -0.1779  0.0976
  775POPS   PO411112  13.621  14.359   5.574  0.0807  0.1942 -0.0084
  775POPS   GL111113  13.449  14.727   5.868  0.0209 -0.0672 -0.1839
  775POPS   GL211114  13.145  14.751   6.020  0.4408 -0.1230  0.1218
  775POPS   C1A11115  13.571  15.115   6.113 -0.0454  0.1581  0.1990
  775POPS   D2A11116  13.661  15.154   6.521  0.0287  0.1299  0.1839
  775POPS   C3A11117  13.802  15.533   6.675  0.1789 -0.0669 -0.1847
  775POPS   C4A11118  13.940  15.892   6.912  0.0243  0.1419 -0.0840
  775POPS   C1B11119  13.297  14.874   6.471  0.6249 -0.0757 -0.0266
  775POPS   C2B11120  13.523  14.791   6.831 -0.3819 -0.2105  0.0166
  775POPS   C3B11121  13.798  14.777   7.183  0.2507  0.0351  0.1821
  775POPS   C4B11122  13.830  14.884   7.609 -0.1047  0.2985  0.0848
  776POPS   CNO11123   4.495   9.685   5.480 -0.1426  0.2756  0.1660
  776POPS   PO411124   4.472   9.267   5.703  0.1269 -0.2369 -0.0919
  776POPS   GL111125   4.536   9.540   6.073  0.5074  0.1319 -0.2144
  776POPS   GL211126   4.265   9.614   6.196 -0.1186  0.0000 -0.1133
  776POPS   C1A11127   4.574   9.700   6.550  0.0927 -0.1467 -0.1750
  776POPS   D2A11128   4.611   9.614   6.948  0.1399  0.0552  0.2849
  776POPS   C3A11129   4.543   9.506   7.386 -0.2612  0.2532  0.0589
  776POPS   C4A11130   4.641   9.215   7.745 -0.2709 -0.3344  0.2552
  776POPS   C1B11131   4.102   9.625   6.696 -0.1220 -0.2142  0.1115
  776POPS   C2B11132   4.198   9.908   6.988 -0.0188 -0.1011  0.1261
  776POPS   C3B11133   4.307  10.394   6.892  0.0426 -0.0502  0.2676
  776POPS   C4B11134   4.600  10.657   6.582  0.0080 -0.1391 -0.0835
  777POPS   CNO11135  15.577  17.827   5.559 -0.2016 -0.3646 -0.0166
  777POPS   PO411136  15.452  18.260   5.581  0.1729 -0.2126 -0.0200
  777POPS   GL111137  15.095  17.989   5.541  0.1563  0.4063 -0.0392
  777POPS   GL211138  14.708  18.082   5.513  0.2587  0.1016  0.2721
  777POPS   C1A11139  14.838  17.772   5.857  0.1492 -0.3271 -0.1965
  777POPS   D2A11140  14.782  17.547   6.292 -0.2043  0.3445  0.3097
  777POPS   C3A11141  14.586  17.550   6.775  0.0302  0.1089 -0.0218
  777POPS   C4A11142  14.329  17.715   7.090  0.3283  0.0529  0.4281
  777POPS   C1B11143  14.562  18.331   5.879 -0.0465  0.2000 -0.3139
  777POPS   C2B11144  14.461  18.308   6.303  0.4141  0.1086  0.0683
  777POPS   C3B11145  14.291  18.229   6.726 -0.1818 -0.2402 -0.0188
  777POPS   C4B11146  14.071  18.138   7.040 -0.0219  0.1154 -0.0998
  778POPS   CNO11147  16.114   7.688   5.558 -0.0107  0.1795  0.1729
  778POPS   PO411148  16.514   7.770   5.596  0.2992  0.2929 -0.2322
  778POPS   GL111149  16.799   7.811   5.976 -0.0578 -0.1797  0.5130
  778POPS   GL211150  17.069   7.633   6.156 -0.3274 -0.1450 -0.0069
  778POPS   C1A11151  16.713   8.097   6.306 -0.1660  0.1758  0.0314
  778POPS   D2A11152  16.982   8.326   6.556 -0.0291 -0.1039  0.3684
  778POPS   C3A11153  17.012   8.279   7.033 -0.0938 -0.4187  0.1133
  778POPS   C4A11154  17.260   8.482   7.386 -0.0680 -0.1071 -0.2683
  778POPS   C1B11155  17.001   7.767   6.578  0.2411 -0.3381 -0.2077
  778POPS   C2B11156  16.786   7.902   6.848  0.1420  0.1129  0.0970
  778POPS   C3B11157  16.463   8.254   6.780  0.0744 -0.1181  0.1946
  778POPS   C4B11158  16.254   8.675   6.918  0.1872 -0.0799 -0.0962
  779POPS   CNO11159  15.774   1.174   5.867 -0.1863  0.0162  0.1385
  779POPS   PO411160  15.516   1.569   5.713 -0.1575  0.2767  0.3552
  779POPS   GL111161  15.257   1.782   6.062  0.2900  0.1375 -0.0869
  779POPS   GL211162  15.312   2.137   6.028 -0.0554 -0.0367 -0.1502
  779POPS   C1A11163  14.858   1.730   6.273  0.3765 -0.0623 -0.1442
  779POPS   D2A11164  14.576   1.937   6.445 -0.0779 -0.2750  0.0367
  779POPS   C3A11165  14.701   2.102   6.858 -0.1299  0.2609 -0.3218
  779POPS   C4A11166  14.997   2.402   6.887  0.4245  0.3817  0.1459
  779POPS   C1B11167  15.603   2.119   6.445 -0.0629  0.1265  0.1859
  779POPS   C2B11168  15.947   2.010   6.617  0.0128  0.1924  0.0165
  779POPS   C3B11169  16.342   2.084   6.658  0.1882 -0.1110 -0.1741
  779POPS   C4B11170  16.609   2.494   6.694  0.0727 -0.0230  0.2701
  780POPS   CNO11171  12.655  12.067   5.106  0.0319  0.3002 -0.1944
  780POPS   PO411172  12.569  12.315   5.502 -0.0389  0.0093 -0.1578
  780POPS   GL111173  12.634  12.120   5.803  0.2750 -0.2499  0.0174
  780POPS   GL211174  12.386  12.075   5.916  0.2459 -0.2336  0.2593
  780POPS   C1A11175  12.760  12.054   6.301 -0.1320 -0.2541 -0.0113
  780POPS   D2A11176  12.972  12.013   6.734 -0.2433 -0.1533  0.0470
  780POPS   C3A11177  13.217  12.286   6.719  0.2287  0.0264 -0.0014
  780POPS   C4A11178  13.595  12.037   6.570 -0.1897 -0.0031  0.0408
  780POPS   C1B11179  12.262  12.102   6.295  0.1831  0.0160 -0.1710
  780POPS   C2B11180  12.351  12.305   6.701  0.0125  0.0292 -0.0744
  780POPS   C3B11181  12.469  12.079   7.130 -0.0409 -0.2463  0.0231
  780POPS   C4B11182  12.586  11.879   7.482 -0.1922  0.1149 -0.1079
  781POPS   CNO11183   4.540  15.190   5.583  0.1468  0.0571  0.2580
  781POPS   PO411184   4.121  15.281   5.487  0.0459  0.1129  0.3895
  781POPS   GL111185   4.055  15.053   5.863  0.2416  0.0084  0.0102
  781POPS   GL211186   4.182  14.777   5.672  0.1355  0.0423 -0.1745
  781POPS   C1A11187   4.239  14.904   6.251  0.0307  0.3655 -0.0626
  781POPS   D2A11188   4.453  14.798   6.615  0.0177  0.1891 -0.1853
  781POPS   C3A11189   4.348  14.973   7.104 -0.1311  0.1200 -0.1233
  781POPS   C4A11190   4.478  15.071   7.475  0.3216 -0.1357 -0.1327
  781POPS   C1B11191   4.327  14.486   5.942 -0.1368  0.4046 -0.1049
  781POPS   C2B11192   4.477  14.339   6.309 -0.1287  0.1141 -0.2384
  781POPS   C3B11193   4.789  14.094   6.605 -0.0942 -0.0192 -0.1819
  781POPS   C4B11194   4.645  13.963   7.092 -0.2541  0.0365 -0.2477
  782POPS   CNO11195   5.218  16.651   5.358  0.1153 -0.4252 -0.2016
  782POPS   PO411196   5.372  17.049   5.378 -0.2695  0.0090 -0.1085
  782POPS   GL111197   5.625  16.871   5.756 -0.0678 -0.2794 -0.3456
  782POPS   GL211198   5.515  16.565   5.917  0.0818  0.3851  0.0781
  782POPS   C1A11199   5.767  16.893   6.205 -0.1722  0.4704 -0.0502
  782POPS   D2A11200   5.509  16.749   6.436 -0.3701 -0.3343  0.1761
  782POPS   C3A11201   5.533  16.910   6.822 -0.1489 -0.2290  0.0933
  782POPS   C4A11202   5.461  16.752   7.239  0.1349  0.1611 -0.0081
  782POPS   C1B11203   5.564  16.306   6.246 -0.0319 -0.2672  0.0593
  782POPS   C2B11204   5.822  16.104   6.610 -0.0554 -0.1211  0.2373
  782POPS   C3B11205   5.857  16.028   7.069 -0.3318 -0.2680  0.2820
  782POPS   C4B11206   6.105  15.662   7.349  0.1122 -0.0243  0.1642
  783POPS   CNO11207   6.509  15.486   5.851 -0.0257 -0.0293 -0.1396
  783POPS   PO411208   6.810  15.539   5.628 -0.1535 -0.1344  0.2899
  783POPS   GL111209   7.115  15.635   5.831  0.2218 -0.2662  0.0521
  783POPS   GL211210   6.981  15.935   6.022  0.2135  0.3606 -0.0772
  783POPS   C1A11211   7.482  15.655   6.113  0.0518 -0.0674 -0.0524
  783POPS   D2A11212   7.649  15.543   6.500  0.1528  0.2285  0.1558
  783POPS   C3A11213   7.534  15.538   6.932  0.2091 -0.1576 -0.1038
  783POPS   C4A11214   7.569  15.610   7.459 -0.3876 -0.1445  0.3261
  783POPS   C1B11215   6.608  16.213   6.209  0.1964  0.0811  0.3566
  783POPS   C2B11216   6.351  16.224   6.591 -0.1420 -0.0309  0.0899
  783POPS   C3B11217   6.341  16.248   7.030  0.3447 -0.1740 -0.0843
  783POPS   C4B11218   6.502  16.295   7.383 -0.2164 -0.2480 -0.3310
  784POPS   CNO11219   4.355   8.546   5.372 -0.2764  0.0586 -0.0002
  784POPS   PO411220   4.740   8.836   5.411 -0.1241 -0.0567 -0.1146
  784POPS   GL111221   4.504   8.546   5.849  0.2042  0.3018 -0.0490
  784POPS   GL211222   4.196   8.434   5.832 -0.0153 -0.2560  0.1416
  784POPS   C1A11223   4.546   8.233   6.271  0.3492 -0.5259  0.1902
  784POPS   D2A11224   4.482   7.928   6.455 -0.1222 -0.1078 -0.1218
  784POPS   C3A11225   4.513   7.962   6.888 -0.2375 -0.1262  0.0423
  784POPS   C4A11226   4.684   7.834   7.250 -0.1714 -0.1949  0.0185
  784POPS   C1B11227   4.053   8.673   6.269  0.0686 -0.2905  0.2679
  784POPS   C2B11228   3.909   8.581   6.700 -0.3379 -0.1701 -0.1125
  784POPS   C3B11229   3.476   8.340   6.689 -0.0586 -0.0209  0.1065
  784POPS   C4B11230   3.029   8.377   6.481 -0.2307 -0.0066 -0.1086
  785POPS   CNO11231   7.706  15.011   5.055 -0.1749  0.2357 -0.0146
  785POPS   PO411232   7.433  15.052   5.303  0.2580 -0.1135 -0.0929
  785POPS   GL111233   7.421  15.112   5.718  0.1742 -0.0749  0.0242
  785POPS   GL211234   7.533  14.840   5.889 -0.3607 -0.0957  0.0829
  785POPS   C1A11235   7.328  15.149   6.190 -0.0451 -0.2462  0.1571
  785POPS   D2A11236   7.120  15.133   6.604  0.3380 -0.0217 -0.1323
  785POPS   C3A11237   6.684  15.363   6.823  0.2771  0.2952  0.2522
  785POPS   C4A11238   6.364  15.299   7.170  0.0097  0.1205  0.4062
  785POPS   C1B11239   7.829  15.055   6.239  0.0826  0.0245 -0.2686
  785POPS   C2B11240   7.615  14.975   6.607 -0.0830 -0.0284 -0.0494
  785POPS   C3B11241   7.396  15.043   7.044 -0.0379 -0.0462 -0.0748
  785POPS   C4B11242   7.266  15.208   7.382  0.1047  0.0536  0.0368
  786POPS   CNO11243  15.576  12.137   5.729 -0.1714 -0.1562  0.0726
  786POPS   PO411244  15.623  12.617   5.920  0.1225  0.2269 -0.1792
  786POPS   GL111245  15.764  12.438   6.236 -0.0020 -0.2973  0.0850
  786POPS   GL211246  16.068  12.642   6.234  0.0921 -0.2556 -0.3453
  786POPS   C1A11247  15.846  12.435   6.703 -0.0880  0.2497  0.1787
  786POPS   D2A11248  16.126  12.319   7.016 -0.1993  0.0632 -0.2429
  786POPS   C3A11249  16.575  12.429   6.957 -0.0273 -0.0510 -0.3184
  786POPS   C4A11250  16.967  12.477   6.740  0.1724 -0.0059 -0.0627
  786POPS   C1B11251  16.233  12.721   6.695  0.2631  0.0615  0.2204
  786POPS   C2B11252  16.051  12.887   7.058 -0.1573  0.3501 -0.1391
  786POPS   C3B11253  16.092  13.185   7.335 -0.2844 -0.0085 -0.0538
  786POPS   C4B11254  15.674  13.466   7.476 -0.3211 -0.0383  0.1105
  787POPS   CNO11255  10.080   0.557   5.242 -0.1605 -0.0889 -0.1919
  787POPS   PO411256  10.089   0.173   5.459 -0.1826  0.1993 -0.0267
  787POPS   GL111257   9.829  -0.063   5.759 -0.2357 -0.3835 -0.2393
  787POPS   GL211258   9.660   0.213   5.964  0.0711 -0.0302 -0.1827
  787POPS   C1A11259   9.816  -0.254   6.199 -0.2340  0.1669 -0.0887
  787POPS   D2A11260   9.947  -0.255   6.633  0.1573  0.0542 -0.0472
  787POPS   C3A11261  10.066  -0.559   7.018 -0.1126 -0.1049 -0.2232
  787POPS   C4A11262  10.196  -0.819   7.235 -0.3216  0.0821  0.1148
  787POPS   C1B11263   9.848   0.247   6.363 -0.1814  0.1382 -0.0347
  787POPS   C2B11264  10.038   0.224   6.788  0.0261  0.1604  0.1390
  787POPS   C3B11265   9.954  -0.000   7.209 -0.1646 -0.1514  0.0895
  787POPS   C4B11266   9.945   0.156   7.626 -0.2367 -0.0316 -0.0533
  788POPS   CNO11267   5.648   2.729   5.755 -0.2681 -0.0803  0.2580
  788POPS   PO411268   5.273   2.662   5.584 -0.1442 -0.0308 -0.1645
  788POPS   GL111269   5.197   2.467   6.002  0.3340 -0.0368  0.2114
  788POPS   GL211270   5.041   2.091   6.096  0.0202 -0.2500 -0.2378
  788POPS   C1A11271   5.129   2.414   6.479 -0.2868 -0.2683 -0.4257
  788POPS   D2A11272   4.949   2.345   6.798  0.0367  0.1075  0.0750
  788POPS   C3A11273   4.606   2.140   6.977  0.0558 -0.3855  0.1468
  788POPS   C4A11274   4.470   1.804   7.248 -0.3235  0.2658  0.1691
  788POPS   C1B11275   4.888   1.938   6.510 -0.3221  0.0597 -0.2213
  788POPS   C2B11276   5.019   1.849   6.911 -0.1083 -0.1085  0.1568
  788POPS   C3B11277   4.990   1.723   7.444  0.2359  0.1314  0.1642
  788POPS   C4B11278   5.055   1.307   7.681 -0.1071  0.1344 -0.1664
  789POPS   CNO11279  15.263   5.493   5.315  0.1687 -0.0556  0.0612
  789POPS   PO411280  15.544   5.373   5.494 -0.1174  0.0729 -0.1144
  789POPS   GL111281  15.206   5.209   5.832  0.1998  0.1870 -0.0329
  789POPS   GL211282  15.509   5.338   6.101  0.4512 -0.4299 -0.0216
  789POPS   C1A11283  15.028   5.319   6.263 -0.0302 -0.0012  0.0665
  789POPS   D2A11284  15.038   5.482   6.711  0.3632 -0.2158  0.2869
  789POPS   C3A11285  15.047   5.960   6.766 -0.0916  0.1620 -0.0638
  789POPS   C4A11286  14.879   6.138   7.119  0.2574  0.2046  0.1446
  789POPS   C1B11287  15.519   5.355   6.506 -0.1591  0.2765 -0.0325
  789POPS   C2B11288  15.562   5.142   6.908 -0.2440 -0.1597  0.1857
  789POPS   C3B11289  15.496   4.902   7.203 -0.3807 -0.0547 -0.0048
  789POPS   C4B11290  15.676   4.760   7.632  0.0209  0.1037  0.0185
  790POPS   CNO11291  12.127   5.453   5.674 -0.2233 -0.1172  0.1717
  790POPS   PO411292  11.783   5.185   5.660  0.2568 -0.4405 -0.2148
  790POPS   GL111293  12.006   5.129   6.013 -0.2336 -0.1590 -0.2260
  790POPS   GL211294  12.399   5.246   6.087 -0.0811  0.0998 -0.2015
  790POPS   C1A11295  12.019   5.157   6.440 -0.1190 -0.0454  0.0214
  790POPS   D2A11296  12.125   5.184   6.923 -0.0186  0.1351  0.3142
  790POPS   C3A11297  12.240   5.605   7.143  0.1190  0.3269 -0.5021
  790POPS   C4A11298  12.507   5.913   7.086 -0.2365 -0.1527 -0.0464
  790POPS   C1B11299  12.802   5.433   6.187 -0.2584 -0.0341 -0.2504
  790POPS   C2B11300  13.133   5.434   6.431  0.0972 -0.1255  0.0491
  790POPS   C3B11301  13.425   5.183   6.655 -0.0001 -0.1288  0.0710
  790POPS   C4B11302  13.773   5.229   7.007 -0.1171 -0.1278 -0.1315
  791POPS   CNO11303  15.953   0.104   5.465  0.0048 -0.0822  0.0670
  791POPS   PO411304  15.729   0.169   5.767  0.2571 -0.1360  0.0981
  791POPS   GL111305  15.799   0.173   6.159 -0.2231 -0.2787 -0.0680
  791POPS   GL211306  15.965   0.031   6.311 -0.0617 -0.1098  0.1133
  791POPS   C1A11307  15.698   0.383   6.482 -0.2323  0.0333  0.0270
  791POPS   D2A11308  15.555   0.317   6.945 -0.3339  0.0423  0.1120
  791POPS   C3A11309  15.567   0.274   7.344 -0.3051 -0.1466  0.3104
  791POPS   C4A11310  15.329   0.585   7.486 -0.0868 -0.2410 -0.0936
  791POPS   C1B11311  15.755  -0.117   6.758  0.0278  0.3203  0.0458
  791POPS   C2B11312  15.854  -0.544   6.701 -0.0325  0.0571 -0.3513
  791POPS   C3B11313  15.678  -0.895   7.010 -0.3061 -0.3048  0.0427
  791POPS   C4B11314  15.523  -1.064   7.293 -0.0775 -0.1632 -0.0096
  792POPS   CNO11315  18.734  11.302   5.323 -0.0241 -0.1176 -0.0237
  792POPS   PO411316  18.885  10.941   5.609  0.0995 -0.0984  0.1822
  792POPS   GL111317  18.770  10.939   6.038 -0.0274  0.2678  0.0195
  792POPS   GL211318  18.645  10.754   6.110  0.0044  0.1080  0.1813
  792POPS   C1A11319  18.866  11.143   6.372  0.0291 -0.0053 -0.2782
  792POPS   D2A11320  19.056  11.457   6.276 -0.2513 -0.1154  0.2232
  792POPS   C3A11321  19.284  11.719   6.554 -0.0696 -0.1378 -0.2821
  792POPS   C4A11322  19.417  12.099   6.779  0.1407 -0.2139 -0.0720
  792POPS   C1B11323  18.705  10.731   6.555  0.2782 -0.0903 -0.1416
  792POPS   C2B11324  18.683  10.786   7.031  0.1520 -0.0129 -0.2003
  792POPS   C3B11325  18.781  10.883   7.412 -0.1198  0.3510 -0.1229
  792POPS   C4B11326  18.807  10.713   7.857  0.2915 -0.0501 -0.2435
  793POPS   CNO11327   0.906   6.836   5.538 -0.1313  0.1296 -0.0140
  793POPS   PO411328   1.313   6.596   5.565 -0.1800  0.1667 -0.2652
  793POPS   GL111329   1.598   6.416   5.962 -0.0046 -0.2593  0.0917
  793POPS   GL211330   1.635   6.019   6.044  0.0697 -0.0413  0.0233
  793POPS   C1A11331   1.684   6.315   6.466 -0.2994 -0.0319  0.2101
  793POPS   D2A11332   1.782   6.200   6.904  0.1557 -0.4705  0.0363
  793POPS   C3A11333   1.591   5.965   7.306 -0.0856  0.0930 -0.0434
  793POPS   C4A11334   1.214   5.896   7.658 -0.0605 -0.0242  0.1758
  793POPS   C1B11335   1.969   5.915   6.319 -0.1591  0.0791 -0.1055
  793POPS   C2B11336   2.257   5.710   6.555  0.0576  0.1274  0.2599
  793POPS   C3B11337   1.999   5.687   6.963 -0.0443  0.1685 -0.0530
  793POPS   C4B11338   1.790   5.508   7.293  0.0891  0.1128 -0.1782
  794POPS   CNO11339   1.768   2.918   5.643  0.0735  0.1625  0.1875
  794POPS   PO411340   2.244   2.863   5.523  0.3364  0.1091 -0.3880
  794POPS   GL111341   2.218   2.492   5.759  0.0187  0.1083  0.0023
  794POPS   GL211342   2.247   2.183   5.766 -0.2371  0.0191  0.0214
  794POPS   C1A11343   2.361   2.486   6.181 -0.1933  0.0046  0.0975
  794POPS   D2A11344   2.419   2.918   6.442 -0.0807 -0.0959  0.2614
  794POPS   C3A11345   2.661   3.082   6.812 -0.2732 -0.1856 -0.1346
  794POPS   C4A11346   2.923   3.054   7.189  0.2357  0.1337 -0.2000
  794POPS   C1B11347   2.247   1.998   6.245 -0.1332 -0.1140 -0.2746
  794POPS   C2B11348   2.437   1.739   6.546 -0.1216 -0.2280  0.0269
  794POPS   C3B11349   2.462   1.401   6.645  0.1273  0.0688 -0.1634
  794POPS   C4B11350   2.746   1.097   6.838 -0.1087 -0.0997  0.0907
  795POPS   CNO11351  13.193   3.632   5.495 -0.0840 -0.0655  0.0510
  795POPS   PO411352  13.603   3.606   5.423  0.2158  0.1681  0.0391
  795POPS   GL111353  13.889   3.558   5.775  0.0708  0.1679 -0.0730
  795POPS   GL211354  14.156   3.782   5.823  0.3122 -0.0814 -0.0227
  795POPS   C1A11355  13.862   3.367   6.142  0.0088  0.0971  0.0815
  795POPS   D2A11356  13.908   3.355   6.577  0.1157  0.1322  0.3791
  795POPS   C3A11357  13.629   3.246   6.916 -0.0410 -0.0881  0.1135
  795POPS   C4A11358  13.368   3.143   7.318  0.0970 -0.2765 -0.0102
  795POPS   C1B11359  14.189   3.893   6.200 -0.1890  0.0292  0.0742
  795POPS   C2B11360  14.123   3.962   6.583  0.1653 -0.3331  0.0558
  795POPS   C3B11361  14.013   3.731   6.887  0.1012 -0.1647  0.0654
  795POPS   C4B11362  13.818   3.661   7.174  0.1307  0.3372  0.0685
  796POPS   CNO11363   9.004   7.602   5.814  0.3801  0.2168  0.1060
  796POPS   PO411364   9.388   7.424   5.853 -0.0770 -0.1140  0.1268
  796POPS   GL111365   9.498   7.543   6.192 -0.1744  0.2031 -0.3424
  796POPS   GL211366   9.760   7.326   6.253  0.1174 -0.4027  0.4189
  796POPS   C1A11367   9.641   7.853   6.514  0.0281 -0.0830  0.0021
  796POPS   D2A11368   9.723   8.111   6.825 -0.0790  0.4311 -0.0542
  796POPS   C3A11369   9.696   7.971   7.178  0.1634 -0.0977  0.1033
  796POPS   C4A11370   9.926   7.842   7.507 -0.0057  0.1252 -0.2041
  796POPS   C1B11371   9.725   7.397   6.673  0.2406 -0.2543  0.0977
  796POPS   C2B11372   9.857   7.530   7.103 -0.0352  0.0792  0.1900
  796POPS   C3B11373   9.810   7.330   7.455  0.0404  0.1880  0.2942
  796POPS   C4B11374   9.483   7.071   7.589 -0.0003  0.2709  0.0938
  797POPS   CNO11375  11.381  17.233   5.348  0.1357  0.0942 -0.0685
  797POPS   PO411376  11.067  16.836   5.396  0.3397 -0.0483 -0.0830
  797POPS   GL111377  11.304  16.675   5.720 -0.3615  0.2737  0.1953
  797POPS   GL211378  11.315  16.273   5.780  0.1446 -0.2107  0.2032
  797POPS   C1A11379  11.534  16.727   6.084  0.0632 -0.0227  0.4406
  797POPS   D2A11380  11.558  16.961   6.507 -0.0869 -0.1483  0.1790
  797POPS   C3A11381  11.212  17.329   6.418  0.3079  0.0108 -0.2705
  797POPS   C4A11382  10.862  17.544   6.639  0.4779  0.3120 -0.1428
  797POPS   C1B11383  11.117  16.347   6.145  0.0221  0.3913 -0.0621
  797POPS   C2B11384  10.961  16.200   6.567 -0.0032 -0.2313  0.2030
  797POPS   C3B11385  10.746  16.385   6.901 -0.1333 -0.0708 -0.4092
  797POPS   C4B11386  10.372  16.262   7.111 -0.2928  0.0506 -0.4049
  798POPS   CNO11387  13.831  18.384   5.049 -0.1059 -0.1945 -0.1703
  798POPS   PO411388  13.769  18.309   5.466 -0.0589 -0.4584  0.1545
  798POPS   GL111389  13.660  18.084   5.756  0.3976  0.2126 -0.0731
  798POPS   GL211390  13.908  17.911   5.835  0.1200 -0.2963  0.2483
  798POPS   C1A11391  13.424  18.029   6.195  0.2219  0.2209 -0.2581
  798POPS   D2A11392  13.326  17.667   6.410 -0.0951  0.2975  0.1736
  798POPS   C3A11393  13.400  17.424   6.825 -0.0966  0.0912 -0.1978
  798POPS   C4A11394  13.431  17.426   7.253  0.0531 -0.0531 -0.2065
  798POPS   C1B11395  13.914  18.100   6.215 -0.0035 -0.2426 -0.2440
  798POPS   C2B11396  13.761  18.272   6.631 -0.2352  0.1640 -0.3145
  798POPS   C3B11397  13.514  18.072   6.940  0.1315 -0.1588  0.0494
  798POPS   C4B11398  13.494  18.088   7.372 -0.0287 -0.2178  0.2406
  799POPS   CNO11399   8.554  10.141   5.446  0.2331 -0.0680 -0.0890
  799POPS   PO411400   8.266   9.879   5.569  0.1508  0.3333  0.0505
  799POPS   GL111401   8.081   9.455   5.877 -0.1861  0.1064 -0.2444
  799POPS   GL211402   7.806   9.279   5.999 -0.0843 -0.1032 -0.1358
  799POPS   C1A11403   8.455   9.121   6.122  0.5086 -0.2270  0.4609
  799POPS   D2A11404   8.694   8.846   6.403  0.2853  0.0222 -0.0606
  799POPS   C3A11405   9.082   8.983   6.397 -0.0714 -0.0398  0.0873
  799POPS   C4A11406   9.409   9.230   6.629  0.1058  0.0406  0.1681
  799POPS   C1B11407   7.742   9.070   6.416 -0.1715 -0.1044  0.0024
  799POPS   C2B11408   7.489   9.096   6.867 -0.1677 -0.0070 -0.2396
  799POPS   C3B11409   7.444   8.770   7.197 -0.0658 -0.1673 -0.0955
  799POPS   C4B11410   7.275   8.391   7.461  0.0082 -0.2020 -0.1658
  800POPS   CNO11411  11.091   9.611   5.843  0.0887 -0.2785 -0.1134
  800POPS   PO411412  10.840   9.285   5.655  0.0255  0.0080  0.1536
  800POPS   GL111413  10.849   9.078   6.053 -0.0354  0.0810 -0.1910
  800POPS   GL211414  11.089   8.799   6.250 -0.3449 -0.3917  0.1026
  800POPS   C1A11415  10.864   9.235   6.465 -0.0781 -0.1139 -0.0724
  800POPS   D2A11416  10.986   9.304   6.770  0.1708  0.0146  0.0023
  800POPS   C3A11417  10.630   9.422   7.030  0.0101 -0.2131  0.2479
  800POPS   C4A11418  10.382   9.790   7.255  0.2206  0.0680 -0.0446
  800POPS   C1B11419  10.915   8.698   6.626  0.0413  0.0341 -0.3212
  800POPS   C2B11420  10.978   8.870   6.962 -0.1380 -0.0885  0.1297
  800POPS   C3B11421  11.208   9.200   7.220 -0.0905  0.1987  0.1214
  800POPS   C4B11422  11.219   9.377   7.591  0.0547  0.3308  0.0685
  801POPS   CNO11423   6.416  18.805   4.978  0.0905  0.1383  0.0112
  801POPS   PO411424   6.582  18.452   5.157  0.0861 -0.1840 -0.0115
  801POPS   GL111425   6.702  18.663   5.494 -0.0617 -0.3534 -0.0365
  801POPS   GL211426   6.816  18.421   5.718 -0.0750  0.4754 -0.1225
  801POPS   C1A11427   6.665  18.887   5.806  0.0331 -0.0240  0.0477
  801POPS   D2A11428   6.802  19.080   6.223 -0.0931  0.1962 -0.1403
  801POPS   C3A11429   6.814  19.012   6.641  0.0529  0.0964 -0.1038
  801POPS   C4A11430   6.741  19.123   6.938 -0.3223  0.3641 -0.0894
  801POPS   C1B11431   6.961  18.252   6.149  0.0481 -0.0761 -0.0416
  801POPS   C2B11432   7.105  18.061   6.491 -0.0522 -0.0199 -0.1584
  801POPS   C3B11433   7.078  18.090   6.979  0.2298  0.0725  0.2343
  801POPS   C4B11434   7.235  18.109   7.416 -0.1942  0.4843 -0.0558
  802POPS   CNO11435   1.003   5.157   6.014 -0.1839  0.0042  0.0603
  802POPS   PO411436   1.376   5.533   5.851  0.0372 -0.0541  0.1471
  802POPS   GL111437   1.191   5.742   6.237 -0.0738 -0.2712 -0.0260
  802POPS   GL211438   1.224   5.433   6.449  0.1178  0.2027 -0.0295
  802POPS   C1A11439   1.428   5.852   6.529 -0.1672 -0.1612  0.1291
  802POPS   D2A11440   1.479   5.654   6.900  0.2992  0.0883 -0.1655
  802POPS   C3A11441   1.057   5.620   6.957  0.0241 -0.0954  0.0270
  802POPS   C4A11442   0.806   5.679   6.658  0.1471 -0.1587  0.0013
  802POPS   C1B11443   1.222   5.179   6.889 -0.0718  0.4452  0.1462
  802POPS   C2B11444   1.231   5.183   7.365  0.0766 -0.2606  0.1326
  802POPS   C3B11445   1.053   4.966   7.684 -0.0448 -0.1226 -0.0551
  802POPS   C4B11446   0.638   5.019   7.867  0.0745  0.2069  0.4952
  803POPS   CNO11447   0.268  12.051   5.625 -0.1523 -0.1711 -0.0303
  803POPS   PO411448  -0.220  11.890   5.533  0.2591 -0.1289  0.1448
  803POPS   GL111449  -0.415  12.149   5.764  0.1873  0.0258 -0.2684
  803POPS   GL211450  -0.520  12.396   5.949 -0.1876  0.0220 -0.0436
  803POPS   C1A11451  -0.466  11.930   6.217 -0.1923 -0.1943 -0.0108
  803POPS   D2A11452  -0.421  11.934   6.577  0.0293 -0.1135  0.2333
  803POPS   C3A11453  -0.086  11.805   6.799 -0.1102 -0.0951 -0.0957
  803POPS   C4A11454   0.279  11.762   7.019  0.0534  0.2284 -0.1826
  803POPS   C1B11455  -0.625  12.541   6.411 -0.2348 -0.3077 -0.1988
  803POPS   C2B11456  -0.689  12.668   6.796  0.2061  0.3131  0.0494
  803POPS   C3B11457  -0.931  12.578   7.218  0.2655 -0.1184  0.0703
  803POPS   C4B11458  -0.771  12.610   7.650 -0.0715  0.1591  0.2443
  804POPS   CNO11459   9.307  10.576   5.536  0.1484  0.0125 -0.0245
  804POPS   PO411460   9.267  10.347   5.891  0.0155  0.0546 -0.1602
  804POPS   GL111461   9.034  10.424   6.239 -0.1283 -0.0738 -0.0427
  804POPS   GL211462   9.116  10.559   6.390 -0.1649  0.0895 -0.0578
  804POPS   C1A11463   8.819  10.214   6.551 -0.1537 -0.1250 -0.0400
  804POPS   D2A11464   8.745   9.847   6.643  0.0114  0.4274  0.1101
  804POPS   C3A11465   8.656   9.903   6.994 -0.0297 -0.1539 -0.4125
  804POPS   C4A11466   8.760   9.999   7.432 -0.0227 -0.0325 -0.0384
  804POPS   C1B11467   9.193  10.468   6.800  0.2771  0.0074  0.3259
  804POPS   C2B11468   8.862  10.381   7.132  0.0909 -0.4338  0.2874
  804POPS   C3B11469   8.399  10.470   7.174 -0.2547  0.1137 -0.2218
  804POPS   C4B11470   7.999  10.502   7.016 -0.3362  0.1389  0.4209
  805POPS   CNO11471   6.977   7.380   5.043 -0.2399 -0.1020 -0.0975
  805POPS   PO411472   6.816   7.516   5.371 -0.1776  0.0694  0.3773
  805POPS   GL111473   6.609   7.655   5.719  0.2322 -0.0543 -0.1738
  805POPS   GL211474   6.524   7.909   5.986  0.2153  0.0796  0.0412
  805POPS   C1A11475   6.502   7.424   6.092  0.1362  0.0239 -0.2920
  805POPS   D2A11476   6.268   7.206   6.192  0.2090 -0.3415  0.1536
  805POPS   C3A11477   5.758   7.270   6.205  0.0332  0.3689 -0.1109
  805POPS   C4A11478   5.376   7.324   6.175  0.0481 -0.1207  0.0169
  805POPS   C1B11479   6.591   8.091   6.370 -0.0748  0.3415 -0.2337
  805POPS   C2B11480   6.454   8.038   6.772 -0.2335 -0.0701  0.1103
  805POPS   C3B11481   6.111   7.940   7.087  0.0652 -0.3346  0.2040
  805POPS   C4B11482   6.196   7.588   7.338 -0.0619 -0.0106 -0.0231
  806POPS   CNO11483   6.342  14.844   5.198  0.0317 -0.1011  0.1661
  806POPS   PO411484   6.397  15.001   5.628  0.0003  0.1639 -0.3341
  806POPS   GL111485   6.368  14.917   5.960  0.1405  0.0865 -0.0422
  806POPS   GL211486   6.583  14.707   6.055  0.0619  0.1370  0.2120
  806POPS   C1A11487   6.285  15.201   6.248  0.0242 -0.0332  0.0373
  806POPS   D2A11488   6.221  15.382   6.657  0.4085 -0.0136  0.3577
  806POPS   C3A11489   6.214  15.790   6.860 -0.0225 -0.0293 -0.0708
  806POPS   C4A11490   6.540  15.836   7.206 -0.3039  0.0661  0.1293
  806POPS   C1B11491   6.736  14.920   6.360  0.1168 -0.0897 -0.0894
  806POPS   C2B11492   6.677  14.793   6.627  0.0612 -0.1729 -0.4461
  806POPS   C3B11493   6.548  14.868   7.085  0.0877 -0.2838 -0.0295
  806POPS   C4B11494   6.742  14.955   7.495  0.2538  0.2193  0.1585
  807POPS   CNO11495   9.424  13.707   5.483 -0.3374 -0.1996 -0.3513
  807POPS   PO411496   9.344  14.029   5.626 -0.1995 -0.0649 -0.0462
  807POPS   GL111497   9.599  13.851   5.929 -0.0855  0.1921  0.5090
  807POPS   GL211498   9.554  13.532   5.954 -0.1464  0.0412 -0.2777
  807POPS   C1A11499   9.955  13.953   6.291  0.0357  0.4146  0.0214
  807POPS   D2A11500  10.237  13.745   6.443 -0.0434 -0.1075 -0.0402
  807POPS   C3A11501  10.278  13.405   6.411  0.1848  0.1075  0.1849
  807POPS   C4A11502  10.456  13.112   6.155  0.2822 -0.2289  0.1076
  807POPS   C1B11503   9.574  13.445   6.373 -0.4162 -0.1030  0.1833
  807POPS   C2B11504   9.908  13.451   6.750  0.0300 -0.1624 -0.2978
  807POPS   C3B11505   9.851  13.375   7.190 -0.0949 -0.0601  0.0299
  807POPS   C4B11506  10.168  13.408   7.550  0.4635 -0.1691 -0.2090
  808POPS   CNO11507  14.801  12.547   5.297 -0.0333 -0.0633  0.0881
  808POPS   PO411508  14.809  12.670   5.810 -0.3725  0.2267 -0.3230
  808POPS   GL111509  14.572  12.463   6.128  0.2315  0.0363  0.1584
  808POPS   GL211510  14.625  12.105   6.216  0.0277  0.0886  0.0667
  808POPS   C1A11511  14.485  12.568   6.594  0.1236  0.0963 -0.1495
  808POPS   D2A11512  14.493  12.939   6.921 -0.1945  0.5826 -0.0479
  808POPS   C3A11513  14.086  13.223   6.920  0.3668  0.0439 -0.1418
  808POPS   C4A11514  13.845  13.471   7.120  0.1835 -0.0433  0.0147
  808POPS   C1B11515  14.490  12.030   6.463  0.3146  0.2474  0.3213
  808POPS   C2B11516  14.443  11.864   6.836  0.3302 -0.1556 -0.0713
  808POPS   C3B11517  14.375  11.711   7.311 -0.1563 -0.4056  0.1234
  808POPS   C4B11518  14.370  11.491   7.658 -0.3028 -0.4190 -0.1448
  809POPS   CNO11519  16.615  14.970   5.521 -0.0365  0.3351 -0.2739
  809POPS   PO411520  16.682  14.849   5.937  0.0554 -0.1718 -0.1067
  809POPS   GL111521  16.778  15.170   6.161  0.3176 -0.2292  0.0865
  809POPS   GL211522  16.498  15.187   6.329  0.4002  0.1074 -0.0176
  809POPS   C1A11523  16.941  15.315   6.532  0.0787  0.0264 -0.1514
  809POPS   D2A11524  17.087  15.264   6.926  0.0555 -0.0838 -0.1808
  809POPS   C3A11525  17.470  15.021   7.055  0.1598 -0.1462  0.0716
  809POPS   C4A11526  17.622  14.671   7.125  0.2635 -0.0899 -0.2351
  809POPS   C1B11527  16.475  15.346   6.671 -0.3579  0.1953  0.0702
  809POPS   C2B11528  16.542  15.312   7.113 -0.0001  0.4463 -0.0318
  809POPS   C3B11529  16.214  15.312   7.303 -0.1681  0.0594  0.0796
  809POPS   C4B11530  15.893  15.482   7.587  0.2459  0.0217  0.0387
  810POPS   CNO11531   9.979  11.017   5.686  0.0466  0.2543  0.1124
  810POPS   PO411532  10.039  10.570   5.616 -0.4131  0.3247 -0.0742
  810POPS   GL111533  10.192  10.793   6.074 -0.0814  0.1699 -0.1926
  810POPS   GL211534  10.250  11.152   6.125 -0.1668  0.0050  0.1944
  810POPS   C1A11535  10.044  10.844   6.490 -0.2288  0.0057  0.1488
  810POPS   D2A11536  10.223  10.816   6.952  0.0184 -0.0332 -0.0812
  810POPS   C3A11537  10.128  10.703   7.414 -0.1933 -0.3995  0.2491
  810POPS   C4A11538  10.333  10.635   7.816  0.1443  0.5759  0.1794
  810POPS   C1B11539  10.564  10.993   6.575  0.1589 -0.0843 -0.0225
  810POPS   C2B11540  10.813  11.034   6.930 -0.0835  0.1898  0.0043
  810POPS   C3B11541  11.029  11.058   7.386  0.0601 -0.2384  0.2020
  810POPS   C4B11542  11.071  11.348   7.676  0.0110  0.0424 -0.0070
  811POPS   CNO11543  11.951   0.413   5.454 -0.4008  0.0637 -0.0797
  811POPS   PO411544  11.970  -0.009   5.612  0.1096  0.0660 -0.2827
  811POPS   GL111545  11.960  -0.145   6.047  0.0337  0.2315 -0.1220
  811POPS   GL211546  11.786  -0.422   6.127  0.1298  0.0622  0.0932
  811POPS   C1A11547  12.158  -0.089   6.500 -0.2779  0.1358 -0.2738
  811POPS   D2A11548  12.503   0.070   6.758  0.1740  0.1604 -0.0846
  811POPS   C3A11549  12.918   0.045   7.074 -0.3061  0.1587  0.1185
  811POPS   C4A11550  13.210  -0.005   7.477  0.3106 -0.2109  0.0569
  811POPS   C1B11551  11.894  -0.467   6.464  0.2119  0.0599  0.1515
  811POPS   C2B11552  12.100  -0.365   6.928  0.1153  0.0817  0.0831
  811POPS   C3B11553  12.133  -0.399   7.372 -0.1209  0.0614 -0.0768
  811POPS   C4B11554  12.089  -0.044   7.596 -0.2717 -0.2449 -0.4183
  812YOPS   CNO11555  18.382  15.782   5.255  0.1147 -0.2468 -0.0372
  812YOPS   PO411556  17.992  15.812   5.479  0.1300  0.0853  0.0798
  812YOPS   GL111557  18.123  15.975   5.872 -0.0041 -0.0895  0.5347
  812YOPS   GL211558  18.392  16.080   5.936 -0.0049  0.1730 -0.0404
  812YOPS   C1A11559  18.067  15.900   6.328  0.2210  0.3049  0.0329
  812YOPS   D2A11560  18.246  15.994   6.698 -0.0639 -0.1675 -0.0990
  812YOPS   C3A11561  18.566  15.706   6.923  0.3825  0.2344  0.1971
  812YOPS   C4A11562  18.507  15.207   6.771 -0.1469 -0.1764 -0.0615
  812YOPS   C1B11563  18.572  16.148   6.218  0.1340 -0.2519 -0.1212
  812YOPS   C2B11564  18.641  16.288   6.654 -0.0569 -0.3237 -0.0500
  812YOPS   D3B11565  18.774  16.161   7.035 -0.2160 -0.1217  0.4253
  812YOPS   C4B11566  19.090  15.948   6.973 -0.2014  0.2005  0.0303
  813YOPS   CNO11567   8.054   4.521   5.010  0.1144 -0.1331  0.0337
  813YOPS   PO411568   7.687   4.344   5.154  0.1041 -0.0327 -0.1105
  813YOPS   GL111569   7.659   4.115   5.550 -0.0745 -0.2606 -0.1018
  813YOPS   GL211570   7.544   3.694   5.564 -0.0093 -0.3624  0.0993
  813YOPS   C1A11571   7.561   4.021   5.918  0.1113 -0.1266  0.0656
  813YOPS   D2A11572   7.226   4.070   6.195  0.3029  0.2017  0.0167
  813YOPS   C3A11573   7.078   4.350   6.526 -0.0521  0.2529  0.1850
  813YOPS   C4A11574   7.105   4.273   7.041 -0.3600  0.1721  0.0140
  813YOPS   C1B11575   7.222   3.615   5.933  0.1594 -0.3201  0.1268
  813YOPS   C2B11576   7.201   3.502   6.379  0.0939 -0.0350  0.0754
  813YOPS   D3B11577   6.999   3.236   6.793  0.2296  0.1133  0.4840
  813YOPS   C4B11578   7.320   3.283   7.083  0.0260 -0.1059 -0.2688
  814YOPS   CNO11579  14.648  14.057   5.098  0.0580 -0.0736  0.0372
  814YOPS   PO411580  14.470  14.329   5.275  0.0146 -0.1075  0.0925
  814YOPS   GL111581  14.632  14.553   5.601  0.0571  0.0564 -0.3028
  814YOPS   GL211582  14.842  14.392   5.805 -0.1007 -0.1628  0.3279
  814YOPS   C1A11583  14.418  14.692   5.934  0.0829 -0.1454  0.0695
  814YOPS   D2A11584  14.493  14.870   6.288 -0.3054 -0.1777 -0.0775
  814YOPS   C3A11585  14.495  14.904   6.799 -0.0058  0.1980  0.1221
  814YOPS   C4A11586  14.587  15.312   6.909  0.2163 -0.0378 -0.3786
  814YOPS   C1B11587  14.840  14.525   6.287  0.0503  0.3034  0.2110
  814YOPS   C2B11588  14.685  14.480   6.749  0.1127 -0.1068 -0.0905
  814YOPS   D3B11589  14.608  14.586   7.119 -0.2477  0.1524 -0.2228
  814YOPS   C4B11590  14.906  14.854   7.255 -0.0514  0.0454  0.1239
  815YOPS   CNO11591   0.767   9.930   5.510  0.2328 -0.2319 -0.0150
  815YOPS   PO411592   0.923  10.071   5.923  0.1879 -0.0590 -0.0116
  815YOPS   GL111593   0.963   9.904   6.274  0.1518  0.0796 -0.2587
  815YOPS   GL211594   1.117   9.555   6.332 -0.3216 -0.0824  0.1123
  815YOPS   C1A11595   0.814   9.689   6.710 -0.0174  0.2607 -0.0634
  815YOPS   D2A11596   0.932   9.349   6.921  0.2003  0.2736  0.2518
  815YOPS   C3A11597   1.030   9.131   7.309  0.1245 -0.2624 -0.1484
  815YOPS   C4A11598   1.340   8.870   7.472  0.0573 -0.1859  0.1083
  815YOPS   C1B11599   1.210   9.245   6.558  0.0931  0.0902  0.0271
  815YOPS   C2B11600   1.255   8.919   6.881 -0.0622  0.2237 -0.1435
  815YOPS   D3B11601   0.973   8.668   7.083 -0.0022  0.1816 -0.1352
  815YOPS   C4B11602   0.585   8.457   7.052 -0.0410 -0.1697  0.2364
  816YOPS   CNO11603  15.215  17.631   5.152  0.2623  0.1416  0.1132
  816YOPS   PO411604  15.228  17.334   5.524  0.0050  0.0491 -0.2679
  816YOPS   GL111605  15.292  17.522   5.838  0.4313 -0.2549 -0.3520
  816YOPS   GL211606  15.554  17.416   5.902 -0.1169 -0.3888 -0.0280
  816YOPS   C1A11607  15.252  17.720   6.248 -0.1457  0.1152 -0.0124
  816YOPS   D2A11608  15.150  17.763   6.609  0.1480  0.2176 -0.0026
  816YOPS   C3A11609  15.109  17.888   7.060  0.2249  0.3044  0.2778
  816YOPS   C4A11610  15.242  17.441   7.327 -0.0993  0.0573  0.2418
  816YOPS   C1B11611  15.499  17.296   6.302  0.1262 -0.0287 -0.2914
  816YOPS   C2B11612  15.389  17.386   6.771 -0.0686  0.1456  0.1048
  816YOPS   D3B11613  14.961  17.294   6.940  0.2438  0.2591 -0.0028
  816YOPS   C4B11614  15.049  16.921   7.123 -0.0745 -0.0669 -0.0506
  817YOPS   CNO11615  11.820  16.024   5.242 -0.1593 -0.3435  0.1585
  817YOPS   PO411616  11.907  16.511   5.203 -0.1584 -0.0692  0.1085
  817YOPS   GL111617  11.825  16.429   5.615  0.3329 -0.2074 -0.0718
  817YOPS   GL211618  11.908  16.696   5.733  0.0193 -0.0532 -0.1481
  817YOPS   C1A11619  11.733  16.258   6.018 -0.0011 -0.2175 -0.0877
  817YOPS   D2A11620  11.540  16.078   6.339 -0.1105  0.2387 -0.0174
  817YOPS   C3A11621  11.491  15.786   6.689 -0.0068 -0.0318 -0.3927
  817YOPS   C4A11622  11.536  15.923   7.215 -0.0381  0.1065  0.0326
  817YOPS   C1B11623  12.038  16.621   6.126 -0.2387  0.0604  0.0166
  817YOPS   C2B11624  11.900  16.469   6.435  0.0445 -0.1143 -0.0568
  817YOPS   D3B11625  11.763  16.213   6.842  0.0486  0.0758 -0.1422
  817YOPS   C4B11626  12.028  16.075   7.053  0.2039 -0.1300  0.1273
  818YOPS   CNO11627  18.853  18.728   5.583  0.1362 -0.2146 -0.0372
  818YOPS   PO411628  18.504  18.543   5.542  0.0251 -0.0505 -0.1993
  818YOPS   GL111629  18.762  18.224   5.831  0.2565  0.2058 -0.2241
  818YOPS   GL211630  19.046  18.068   5.746  0.0213  0.2653 -0.4759
  818YOPS   C1A11631  18.985  18.207   6.350  0.1906 -0.0614  0.0189
  818YOPS   D2A11632  18.726  18.263   6.674 -0.1067  0.0700  0.3408
  818YOPS   C3A11633  18.875  18.196   7.179  0.2830 -0.2110  0.2303
  818YOPS   C4A11634  19.184  18.361   7.457  0.0932 -0.1221 -0.1908
  818YOPS   C1B11635  19.407  18.321   5.958  0.0551 -0.1618  0.2525
  818YOPS   C2B11636  19.656  18.598   6.192  0.0934  0.3546  0.2442
  818YOPS   D3B11637  19.980  18.697   6.448  0.3202 -0.1194  0.1109
  818YOPS   C4B11638  19.857  18.981   6.727  0.2578 -0.0074 -0.1385
  819YOPS   CNO11639  14.589   3.759   5.393  0.1188  0.0287 -0.2447
  819YOPS   PO411640  14.302   3.379   5.459  0.2960  0.0794 -0.3254
  819YOPS   GL111641  14.235   3.231   5.811 -0.0153 -0.1374  0.1540
  819YOPS   GL211642  14.480   3.070   6.026  0.0278  0.4023  0.3175
  819YOPS   C1A11643  14.326   3.425   6.316  0.1083 -0.2495  0.3908
  819YOPS   D2A11644  14.367   3.393   6.771 -0.0444 -0.2977  0.1051
  819YOPS   C3A11645  14.692   3.392   7.118 -0.1192 -0.3847  0.0383
  819YOPS   C4A11646  15.055   3.568   6.951  0.0899 -0.1595 -0.0567
  819YOPS   C1B11647  14.229   2.979   6.390  0.0048  0.1778  0.0182
  819YOPS   C2B11648  14.105   2.961   6.812 -0.2835  0.0718 -0.3917
  819YOPS   D3B11649  14.016   3.127   7.115  0.3081 -0.2906 -0.0695
  819YOPS   C4B11650  14.253   3.458   7.338  0.3765  0.1848 -0.5274
  820YOPS   CNO11651   1.839   1.994   5.095  0.1607 -0.1851 -0.1255
  820YOPS   PO411652   1.858   2.132   5.473  0.1480  0.3723 -0.1700
  820YOPS   GL111653   1.823   2.071   6.011 -0.2338  0.1180 -0.0222
  820YOPS   GL211654   1.678   1.692   6.144 -0.1534  0.1524 -0.2512
  820YOPS   C1A11655   1.868   2.328   6.244  0.1619 -0.0458 -0.1351
  820YOPS   D2A11656   1.924   2.732   6.176 -0.0191  0.1009 -0.2111
  820YOPS   C3A11657   2.206   3.049   5.980  0.0737  0.1768  0.0982
  820YOPS   C4A11658   2.635   3.258   6.150 -0.3310 -0.2083  0.0176
  820YOPS   C1B11659   1.557   1.698   6.493 -0.0928 -0.4124 -0.0131
  820YOPS   C2B11660   1.472   1.872   6.829  0.1450  0.2538  0.2211
  820YOPS   D3B11661   1.145   1.912   7.149 -0.2563 -0.1102 -0.0972
  820YOPS   C4B11662   0.731   1.924   7.072 -0.0456  0.0208  0.2105
  821YOPS   CNO11663  16.628   5.914   6.060  0.1520 -0.2996  0.2055
  821YOPS   PO411664  16.978   5.814   5.891 -0.0428 -0.1220 -0.2168
  821YOPS   GL111665  17.078   6.029   6.261  0.2902  0.1756 -0.3044
  821YOPS   GL211666  17.465   5.870   6.328  0.1733 -0.3415 -0.3761
  821YOPS   C1A11667  17.052   6.200   6.678  0.1400  0.0215 -0.0101
  821YOPS   D2A11668  16.809   6.436   6.961 -0.0596  0.0516  0.0454
  821YOPS   C3A11669  16.786   6.621   7.444  0.1555 -0.0145 -0.0427
  821YOPS   C4A11670  16.457   6.455   7.776  0.0535  0.0994  0.3341
  821YOPS   C1B11671  17.515   5.914   6.771  0.2760 -0.0626 -0.1061
  821YOPS   C2B11672  17.510   5.885   7.197 -0.1566 -0.0413  0.1843
  821YOPS   D3B11673  17.611   5.845   7.595  0.0078  0.1693  0.0869
  821YOPS   C4B11674  17.305   6.078   7.775 -0.2016 -0.1974  0.0360
  822YOPS   CNO11675  17.082  17.154   5.793  0.6975 -0.2492  0.1024
  822YOPS   PO411676  16.775  16.689   5.722 -0.0479 -0.0092  0.1050
  822YOPS   GL111677  16.685  16.548   6.094  0.1212  0.1840  0.1698
  822YOPS   GL211678  16.919  16.817   6.201 -0.3264  0.0375  0.1085
  822YOPS   C1A11679  16.625  16.325   6.468  0.0601  0.2159 -0.5518
  822YOPS   D2A11680  16.670  16.250   6.868  0.0436  0.1562 -0.1601
  822YOPS   C3A11681  16.812  16.379   7.225  0.0878  0.0408 -0.0721
  822YOPS   C4A11682  17.164  16.273   7.539  0.0469  0.1599  0.1469
  822YOPS   C1B11683  16.931  16.822   6.660 -0.0781 -0.1687  0.0532
  822YOPS   C2B11684  17.131  16.752   7.019  0.2570  0.1337  0.0811
  822YOPS   D3B11685  17.483  16.809   7.320 -0.0722  0.1908  0.4567
  822YOPS   C4B11686  18.007  16.619   7.384  0.0414  0.0176  0.0118
  823YOPS   CNO11687   6.738   6.565   5.628 -0.0634 -0.0828  0.3059
  823YOPS   PO411688   6.353   6.604   5.346  0.1222 -0.2642 -0.0769
  823YOPS   GL111689   6.244   6.414   5.749  0.1172  0.2596 -0.0117
  823YOPS   GL211690   5.988   6.214   5.716 -0.3533 -0.0521 -0.2731
  823YOPS   C1A11691   6.407   6.572   6.066 -0.0031  0.2426  0.1015
  823YOPS   D2A11692   6.478   6.494   6.462 -0.2599  0.0588  0.1846
  823YOPS   C3A11693   6.706   6.644   6.817  0.2510  0.0272 -0.2459
  823YOPS   C4A11694   6.649   6.867   7.202  0.1943  0.1593  0.1544
  823YOPS   C1B11695   6.279   6.058   6.111  0.2790 -0.3819 -0.0660
  823YOPS   C2B11696   6.228   6.054   6.550 -0.0188 -0.0424  0.0982
  823YOPS   D3B11697   6.132   6.174   7.006  0.1554 -0.0472 -0.1896
  823YOPS   C4B11698   6.484   6.314   7.181  0.0128 -0.2330  0.1683
  824YOPS   CNO11699  17.127   5.102   5.898 -0.0793  0.1340 -0.0452
  824YOPS   PO411700  17.392   5.388   6.041 -0.0916  0.1969 -0.0935
  824YOPS   GL111701  17.322   5.127   6.421 -0.2193 -0.2176  0.0770
  824YOPS   GL211702  17.518   4.900   6.508 -0.1830 -0.0033  0.1748
  824YOPS   C1A11703  17.035   5.197   6.766  0.0327  0.2120 -0.0651
  824YOPS   D2A11704  17.059   5.222   7.206 -0.0089 -0.1086  0.0262
  824YOPS   C3A11705  16.977   4.982   7.633 -0.1780 -0.2465  0.3230
  824YOPS   C4A11706  16.775   5.176   8.030  0.3124 -0.2503 -0.2956
  824YOPS   C1B11707  17.715   4.513   6.733  0.1566  0.4759  0.2515
  824YOPS   C2B11708  17.720   4.116   6.844  0.2783  0.4486 -0.1196
  824YOPS   D3B11709  17.820   3.864   7.261 -0.0302  0.0645  0.1390
  824YOPS   C4B11710  17.963   4.017   7.752  0.0229 -0.1904  0.0279
  825YOPS   CNO11711   6.695   1.439   5.224  0.0028  0.2020  0.1792
  825YOPS   PO411712   6.321   1.698   5.315  0.2029  0.2633  0.0022
  825YOPS   GL111713   6.330   1.571   5.780 -0.3126 -0.0586  0.2377
  825YOPS   GL211714   6.218   1.787   6.023 -0.0565 -0.0887  0.1023
  825YOPS   C1A11715   6.493   1.302   5.932 -0.1231 -0.2724  0.1952
  825YOPS   D2A11716   6.520   0.922   6.149 -0.6494 -0.0483  0.2232
  825YOPS   C3A11717   6.626   1.107   6.626 -0.1179 -0.0309 -0.0269
  825YOPS   C4A11718   7.086   1.092   6.800  0.1066 -0.1803  0.3394
  825YOPS   C1B11719   6.349   1.645   6.366  0.3212 -0.3339 -0.0327
  825YOPS   C2B11720   6.316   1.482   6.811  0.0388 -0.3312  0.2736
  825YOPS   D3B11721   6.137   1.532   7.184  0.0309  0.0832  0.0762
  825YOPS   C4B11722   6.139   1.270   7.478 -0.0902  0.0413 -0.1110
  826YOPS   CNO11723   2.071   1.524   5.235 -0.0533 -0.2211  0.2322
  826YOPS   PO411724   2.112   1.175   5.271 -0.2990 -0.1786  0.4681
  826YOPS   GL111725   2.054   1.229   5.707  0.3323 -0.0563  0.1463
  826YOPS   GL211726   1.748   1.237   5.921  0.2190 -0.0897 -0.1194
  826YOPS   C1A11727   2.201   1.432   6.061  0.0675  0.0650 -0.1800
  826YOPS   D2A11728   2.002   1.551   6.509 -0.0541 -0.1119  0.1548
  826YOPS   C3A11729   1.830   1.544   6.920  0.0089 -0.0432 -0.2233
  826YOPS   C4A11730   2.140   1.396   7.188 -0.1133 -0.3467 -0.2183
  826YOPS   C1B11731   1.575   1.220   6.259 -0.1492 -0.2316 -0.0565
  826YOPS   C2B11732   1.568   1.214   6.640  0.0893  0.0423 -0.2586
  826YOPS   D3B11733   1.686   1.105   7.099 -0.0033  0.1873  0.0544
  826YOPS   C4B11734   1.944   0.740   7.300  0.1091  0.1372  0.4237
  827YOPS   CNO11735  13.587   5.030   5.157 -0.0344  0.0390  0.0005
  827YOPS   PO411736  13.479   5.370   5.373 -0.1337  0.1788  0.2295
  827YOPS   GL111737  13.671   5.587   5.679  0.2283  0.3131 -0.0453
  827YOPS   GL211738  13.900   5.893   5.564  0.2382  0.1042 -0.3924
  827YOPS   C1A11739  13.957   5.562   6.000 -0.1532 -0.0478 -0.4216
  827YOPS   D2A11740  14.165   5.849   6.250  0.0225 -0.2094  0.1889
  827YOPS   C3A11741  14.155   6.244   6.405  0.2151  0.1283  0.1748
  827YOPS   C4A11742  14.016   6.322   6.836  0.3629 -0.0943 -0.0513
  827YOPS   C1B11743  13.726   5.957   6.008 -0.1472  0.0226 -0.1352
  827YOPS   C2B11744  13.603   6.273   6.327 -0.1697 -0.0001  0.0846
  827YOPS   D3B11745  13.612   6.642   6.652  0.0010  0.2124  0.0658
  827YOPS   C4B11746  13.690   6.646   7.096 -0.4476 -0.1108 -0.1944
  828YOPS   CNO11747   3.389   0.738   4.924  0.0778 -0.1634  0.0784
  828YOPS   PO411748   3.635   0.511   5.241 -0.0456 -0.2280  0.1289
  828YOPS   GL111749   3.518   0.443   5.588  0.3489  0.1658  0.2633
  828YOPS   GL211750   3.628   0.265   5.833  0.0229  0.0817  0.0472
  828YOPS   C1A11751   3.417   0.704   5.910  0.0278 -0.0945 -0.0629
  828YOPS   D2A11752   3.428   0.740   6.346 -0.1008  0.1889  0.1349
  828YOPS   C3A11753   3.144   0.775   6.589  0.2495 -0.0631  0.1939
  828YOPS   C4A11754   3.230   1.096   6.920  0.0768  0.2733  0.0165
  828YOPS   C1B11755   3.634   0.170   6.299  0.0231 -0.0708 -0.1824
  828YOPS   C2B11756   3.514   0.259   6.719 -0.0273  0.1478  0.1593
  828YOPS   D3B11757   3.753   0.201   7.098 -0.0273 -0.0070 -0.0974
  828YOPS   C4B11758   3.643  -0.021   7.465 -0.2941 -0.2312  0.2079
  829YOPS   CNO11759  12.237  13.459   5.262  0.0465 -0.1251 -0.1011
  829YOPS   PO411760  12.140  13.174   5.428 -0.0395 -0.4674  0.0669
  829YOPS   GL111761  12.210  13.028   5.836  0.1977  0.0319 -0.0608
  829YOPS   GL211762  12.112  12.676   5.892 -0.1456  0.0431 -0.1360
  829YOPS   C1A11763  12.182  12.971   6.375  0.0769  0.0056  0.1717
  829YOPS   D2A11764  12.352  12.890   6.748 -0.3856  0.0231  0.0344
  829YOPS   C3A11765  12.369  13.286   7.082 -0.0607  0.4124 -0.0447
  829YOPS   C4A11766  12.616  12.948   7.391 -0.1399 -0.0521 -0.0888
  829YOPS   C1B11767  12.468  12.623   6.268 -0.0478  0.3024  0.3128
  829YOPS   C2B11768  12.693  12.607   6.484 -0.1462  0.2215 -0.1455
  829YOPS   D3B11769  12.773  12.473   6.957 -0.1387 -0.1696  0.0376
  829YOPS   C4B11770  12.998  12.233   7.179  0.1874  0.2747 -0.2174
  830YOPS   CNO11771  17.247  14.046   5.845  0.1900 -0.1041  0.1971
  830YOPS   PO411772  17.088  13.556   6.018 -0.1647  0.1482  0.2413
  830YOPS   GL111773  16.909  13.459   6.260  0.0141 -0.0359 -0.2609
  830YOPS   GL211774  17.125  13.251   6.383 -0.1533  0.1093 -0.1711
  830YOPS   C1A11775  16.607  13.457   6.559 -0.0439 -0.2031  0.0528
  830YOPS   D2A11776  16.574  13.727   6.750  0.1154 -0.4956  0.1374
  830YOPS   C3A11777  16.247  13.911   7.013  0.0040  0.1777 -0.1666
  830YOPS   C4A11778  16.074  14.019   7.429  0.3649  0.0958 -0.1354
  830YOPS   C1B11779  17.253  13.178   6.909 -0.0640  0.0344 -0.2913
  830YOPS   C2B11780  17.392  13.128   7.270  0.1645  0.2228 -0.3630
  830YOPS   D3B11781  17.624  13.195   7.604 -0.2233 -0.0175  0.0849
  830YOPS   C4B11782  17.788  12.914   7.759 -0.0661  0.0154  0.2855
  831YOPS   CNO11783   4.083  13.661   4.866  0.2179 -0.2033  0.0783
  831YOPS   PO411784   3.729  13.426   5.115  0.1898  0.0874 -0.1143
  831YOPS   GL111785   3.482  13.332   5.655 -0.1495  0.0001  0.0027
  831YOPS   GL211786   3.135  13.567   5.766 -0.0273 -0.0120  0.0171
  831YOPS   C1A11787   3.674  13.437   6.083 -0.1053  0.2564  0.2540
  831YOPS   D2A11788   3.915  13.746   6.277  0.2382  0.1939 -0.0842
  831YOPS   C3A11789   4.171  14.065   6.629 -0.0596  0.2083 -0.3726
  831YOPS   C4A11790   4.118  14.018   7.018 -0.0399 -0.1019  0.0001
  831YOPS   C1B11791   3.366  13.887   6.082 -0.5357 -0.1462  0.1284
  831YOPS   C2B11792   3.679  14.207   6.259  0.0571  0.2376  0.0620
  831YOPS   D3B11793   3.952  14.465   6.360 -0.2810  0.4149  0.1499
  831YOPS   C4B11794   3.796  14.653   6.004 -0.1447  0.2165 -0.3829
  832YOPS   CNO11795   1.646  18.344   4.902 -0.1269  0.2274  0.0391
  832YOPS   PO411796   1.329  18.351   5.290  0.3700 -0.1218 -0.2336
  832YOPS   GL111797   1.114  18.379   5.620  0.0334 -0.2751 -0.4408
  832YOPS   GL211798   0.997  18.104   5.836 -0.5414  0.0825 -0.0753
  832YOPS   C1A11799   1.329  18.402   6.086 -0.1498  0.0618  0.0682
  832YOPS   D2A11800   0.988  18.216   6.404 -0.1477 -0.0386 -0.2254
  832YOPS   C3A11801   0.545  18.212   6.416 -0.1778 -0.2067  0.1558
  832YOPS   C4A11802   0.297  18.269   6.822  0.0440 -0.1393  0.3761
  832YOPS   C1B11803   0.744  17.737   6.101  0.4067 -0.0925  0.1572
  832YOPS   C2B11804   0.640  17.309   6.289  0.0379  0.0525 -0.1906
  832YOPS   D3B11805   0.385  16.859   6.284 -0.2893 -0.4376  0.0475
  832YOPS   C4B11806   0.563  16.569   6.163 -0.0410 -0.3246  0.2123
  833YOPS   CNO11807   3.870   3.872   5.197 -0.0125 -0.1571  0.1686
  833YOPS   PO411808   4.011   4.174   5.228  0.2573  0.1556  0.7301
  833YOPS   GL111809   4.015   4.269   5.604 -0.4069  0.0867 -0.1973
  833YOPS   GL211810   3.791   4.054   5.716 -0.0768 -0.1440  0.5174
  833YOPS   C1A11811   4.117   4.510   5.918  0.3346 -0.0859 -0.0639
  833YOPS   D2A11812   4.182   4.381   6.359  0.0135  0.3042 -0.0068
  833YOPS   C3A11813   4.333   4.272   6.732  0.2151  0.1430 -0.0935
  833YOPS   C4A11814   4.706   4.213   6.800  0.2919 -0.3163  0.0374
  833YOPS   C1B11815   3.709   4.264   6.136 -0.1052  0.0354 -0.1039
  833YOPS   C2B11816   3.814   4.143   6.521 -0.0077 -0.0126 -0.0946
  833YOPS   D3B11817   3.951   3.936   6.849 -0.2305 -0.1794 -0.1757
  833YOPS   C4B11818   4.145   4.082   7.207  0.1912  0.3147  0.0776
  834YOPS   CNO11819   7.065   3.427   4.980  0.0546  0.2950  0.2740
  834YOPS   PO411820   6.650   3.225   5.226 -0.0211  0.0483  0.1980
  834YOPS   GL111821   6.686   3.405   5.672 -0.0806  0.1346  0.0068
  834YOPS   GL211822   6.825   3.079   5.821 -0.1066 -0.0397 -0.2568
  834YOPS   C1A11823   6.649   3.674   5.959 -0.0994  0.2103 -0.3635
  834YOPS   D2A11824   6.694   4.021   6.243 -0.4306 -0.3656 -0.0433
  834YOPS   C3A11825   6.624   4.236   6.614  0.2385  0.0555 -0.0509
  834YOPS   C4A11826   6.614   3.978   6.883 -0.4374  0.0675 -0.4010
  834YOPS   C1B11827   6.838   3.252   6.209  0.4055  0.0422  0.0722
  834YOPS   C2B11828   6.713   3.610   6.582 -0.4120 -0.1325  0.0279
  834YOPS   D3B11829   6.616   3.540   7.085  0.1242  0.0905 -0.1879
  834YOPS   C4B11830   6.682   3.797   7.427 -0.0378  0.1689 -0.1585
  835YOPS   CNO11831  16.321  14.152   5.893  0.0224 -0.0900  0.1048
  835YOPS   PO411832  16.259  13.744   5.837  0.1268 -0.0192  0.1514
  835YOPS   GL111833  16.204  13.642   6.204 -0.0549  0.1597  0.0958
  835YOPS   GL211834  16.343  13.864   6.333 -0.0427 -0.0999 -0.1321
  835YOPS   C1A11835  15.962  13.615   6.646 -0.0923  0.1393  0.1029
  835YOPS   D2A11836  15.772  13.895   7.027 -0.1183 -0.1822 -0.2756
  835YOPS   C3A11837  15.736  14.289   7.208 -0.3436 -0.3328  0.1163
  835YOPS   C4A11838  15.768  14.436   7.513 -0.0196 -0.1025  0.0171
  835YOPS   C1B11839  16.016  14.183   6.268  0.1445 -0.1906  0.0707
  835YOPS   C2B11840  15.811  14.570   6.260  0.0546  0.3052  0.3827
  835YOPS   D3B11841  15.889  15.003   6.312  0.2818 -0.0412 -0.2325
  835YOPS   C4B11842  16.097  15.005   6.774  0.0577  0.0671 -0.4434
  836YOPS   CNO11843   0.369   9.203   5.910 -0.0930 -0.3350  0.1470
  836YOPS   PO411844   0.155   9.571   5.841  0.2452 -0.0550 -0.1301
  836YOPS   GL111845   0.166   9.745   6.285  0.2500  0.1421 -0.0132
  836YOPS   GL211846   0.469   9.859   6.316  0.1851  0.0793 -0.2128
  836YOPS   C1A11847  -0.016   9.795   6.750  0.0579  0.1389  0.2952
  836YOPS   D2A11848  -0.181   9.968   7.144 -0.0428  0.1419  0.1901
  836YOPS   C3A11849  -0.440   9.744   7.452  0.3092  0.0607  0.0493
  836YOPS   C4A11850  -0.785   9.585   7.307 -0.0092 -0.1447 -0.1951
  836YOPS   C1B11851   0.503  10.134   6.650 -0.1337  0.0469  0.0835
  836YOPS   C2B11852   0.824  10.023   7.062 -0.1186 -0.2486  0.2139
  836YOPS   D3B11853   0.797  10.110   7.498 -0.0135 -0.1399  0.1255
  836YOPS   C4B11854   0.790  10.472   7.329  0.0376 -0.2155  0.0700
  837YOPS   CNO11855   6.964   1.055   5.516 -0.2351  0.2234  0.0821
  837YOPS   PO411856   7.150   1.550   5.443 -0.3660  0.0866  0.1786
  837YOPS   GL111857   6.989   1.487   5.791  0.0359  0.0830 -0.0769
  837YOPS   GL211858   6.834   1.743   5.971  0.0321 -0.1114  0.4930
  837YOPS   C1A11859   6.848   1.359   6.266  0.1438  0.2066 -0.0010
  837YOPS   D2A11860   6.862   1.513   6.659  0.1773  0.0743 -0.1158
  837YOPS   C3A11861   6.754   1.558   6.979 -0.0949 -0.4922 -0.0924
  837YOPS   C4A11862   7.060   1.301   7.262  0.2976  0.1845 -0.0080
  837YOPS   C1B11863   6.815   1.884   6.309 -0.1241 -0.0346 -0.1578
  837YOPS   C2B11864   6.574   1.965   6.716  0.4792 -0.1769 -0.0598
  837YOPS   D3B11865   6.180   1.945   6.727 -0.0438  0.1794 -0.1633
  837YOPS   C4B11866   5.935   2.098   6.366  0.0629  0.3319  0.0326
  838YOPS   CNO11867  12.895   3.116   5.203  0.2404  0.0732 -0.0166
  838YOPS   PO411868  13.144   3.104   5.603 -0.3513 -0.1174 -0.4736
  838YOPS   GL111869  13.089   3.296   6.030  0.3379 -0.1789  0.2651
  838YOPS   GL211870  13.067   3.644   6.030  0.0269  0.1521 -0.1745
  838YOPS   C1A11871  12.996   3.436   6.478  0.1019 -0.0723  0.0985
  838YOPS   D2A11872  12.895   3.832   6.750 -0.1587 -0.4740 -0.1753
  838YOPS   C3A11873  13.023   4.046   7.072 -0.0726  0.1219 -0.1249
  838YOPS   C4A11874  13.467   4.205   7.122  0.0670  0.2855 -0.0469
  838YOPS   C1B11875  13.003   4.071   6.342  0.2750  0.3160  0.0553
  838YOPS   C2B11876  13.293   4.248   6.685 -0.2940  0.1941  0.1553
  838YOPS   D3B11877  13.451   4.721   6.987  0.2572  0.1662 -0.1321
  838YOPS   C4B11878  13.096   5.034   7.085  0.0684 -0.4079 -0.2153
  839YOPS   CNO11879   9.553  12.032   5.601  0.1409  0.0546  0.0828
  839YOPS   PO411880   9.245  11.917   5.801  0.0829 -0.1893  0.1637
  839YOPS   GL111881   9.176  12.153   6.098  0.2657  0.2647  0.1997
  839YOPS   GL211882   9.325  12.562   6.061 -0.1887 -0.1155  0.1489
  839YOPS   C1A11883   9.237  12.153   6.528 -0.2677  0.1053  0.0423
  839YOPS   D2A11884   9.232  12.226   7.000  0.0948 -0.0199  0.3151
  839YOPS   C3A11885   8.947  12.549   7.247  0.4440 -0.0423  0.1139
  839YOPS   C4A11886   9.014  12.513   7.698 -0.1352  0.1008 -0.0689
  839YOPS   C1B11887   9.640  12.708   6.356 -0.1501 -0.3421  0.3145
  839YOPS   C2B11888   9.478  13.059   6.614  0.1616 -0.2583 -0.1755
  839YOPS   D3B11889   9.468  13.381   6.834 -0.2660 -0.2094  0.0226
  839YOPS   C4B11890   9.246  13.358   7.185  0.0108 -0.3540  0.0902
  840YOPS   CNO11891   0.542   5.216   5.846 -0.2256 -0.4232 -0.2500
  840YOPS   PO411892   0.096   5.357   5.843  0.2874  0.2911 -0.1368
  840YOPS   GL111893  -0.182   5.421   6.165 -0.2661  0.1578  0.0549
  840YOPS   GL211894  -0.582   5.462   6.304  0.3675  0.2240  0.0615
  840YOPS   C1A11895  -0.157   5.549   6.542  0.1115  0.2284  0.0473
  840YOPS   D2A11896  -0.260   5.788   6.929  0.0623  0.2549 -0.0250
  840YOPS   C3A11897  -0.271   6.020   7.255  0.1714  0.3658  0.3126
  840YOPS   C4A11898  -0.412   5.875   7.618  0.0559  0.2090 -0.2177
  840YOPS   C1B11899  -0.516   5.307   6.792 -0.1527  0.0281 -0.0045
  840YOPS   C2B11900  -0.515   5.191   7.137  0.0160 -0.0400  0.2309
  840YOPS   D3B11901  -0.102   5.074   7.548 -0.2294  0.0963  0.1316
  840YOPS   C4B11902   0.305   5.267   7.576 -0.1324 -0.1207  0.3995
  841YOPS   CNO11903  15.272   8.043   6.143  0.0929  0.3468  0.2361
  841YOPS   PO411904  15.178   8.463   6.088 -0.0101 -0.0235  0.1240
  841YOPS   GL111905  15.013   8.511   6.557 -0.0206  0.0654 -0.0118
  841YOPS   GL211906  14.714   8.290   6.566  0.3052 -0.1881 -0.1655
  841YOPS   C1A11907  14.989   8.782   6.825  0.3392 -0.1658  0.2531
  841YOPS   D2A11908  15.077   8.780   7.288  0.2747 -0.1690  0.0186
  841YOPS   C3A11909  14.959   8.584   7.591 -0.1608  0.1075  0.2760
  841YOPS   C4A11910  15.089   8.603   7.977 -0.1545 -0.3047 -0.2754
  841YOPS   C1B11911  14.857   8.224   6.972 -0.0107  0.0736 -0.1591
  841YOPS   C2B11912  14.958   8.066   7.364  0.1318  0.4265  0.5578
  841YOPS   D3B11913  15.001   8.076   7.783  0.0770  0.2325 -0.1897
  841YOPS   C4B11914  14.806   8.041   8.133  0.2042 -0.1320  0.0709
  842POPE   NH311915  18.352  16.255   5.482  0.3168  0.0543 -0.0252
  842POPE   PO411916  18.864  16.195   5.515  0.3811 -0.0058 -0.0229
  842POPE   GL111917  18.938  16.241   5.896  0.2828 -0.1653  0.2065
  842POPE   GL211918  19.029  15.853   5.950  0.0318 -0.1589  0.1549
  842POPE   C1A11919  19.122  16.299   6.217  0.1890 -0.0449  0.0187
  842POPE   D2A11920  19.192  16.147   6.562  0.0780  0.0093 -0.2031
  842POPE   C3A11921  19.149  16.437   6.852  0.0504  0.1446  0.1940
  842POPE   C4A11922  18.903  16.673   7.128 -0.1442 -0.0241  0.2564
  842POPE   C1B11923  18.980  15.759   6.308 -0.1465 -0.0092 -0.1333
  842POPE   C2B11924  18.917  15.470   6.655 -0.3213 -0.2545 -0.3080
  842POPE   C3B11925  19.171  15.374   6.963 -0.0615  0.1093  0.0502
  842POPE   C4B11926  19.345  15.046   7.170  0.2420  0.2376  0.0098
  843POPE   NH311927  18.466   5.109   5.927  0.2040 -0.1618  0.0964
  843POPE   PO411928  17.996   5.149   6.149  0.2377 -0.3015 -0.4541
  843POPE   GL111929  17.936   5.286   6.606 -0.1846  0.1553  0.1902
  843POPE   GL211930  17.661   5.467   6.493 -0.1404  0.2751  0.1177
  843POPE   C1A11931  17.785   4.965   6.917 -0.0466 -0.0326  0.2984
  843POPE   D2A11932  17.940   5.015   7.348  0.1035 -0.0083 -0.0826
  843POPE   C3A11933  18.313   5.196   7.640  0.5306 -0.1156 -0.2881
  843POPE   C4A11934  18.588   5.313   7.916  0.2184  0.1468 -0.0229
  843POPE   C1B11935  17.492   5.381   6.880 -0.0356 -0.2445  0.1559
  843POPE   C2B11936  17.538   5.345   7.275  0.0487 -0.1368 -0.1464
  843POPE   C3B11937  17.504   5.322   7.714  0.0619  0.1530  0.0547
  843POPE   C4B11938  17.876   5.198   7.851  0.0344  0.0857 -0.1426
  844POPE   NH311939   4.676  12.840   5.371  0.1284 -0.0680  0.2107
  844POPE   PO411940   4.781  13.248   5.254  0.1756  0.1372  0.1335
  844POPE   GL111941   4.980  13.367   5.634 -0.2555  0.0950  0.1279
  844POPE   GL211942   5.082  13.029   5.707 -0.0755  0.0464 -0.1806
  844POPE   C1A11943   4.891  13.461   6.026  0.0500  0.0693  0.0302
  844POPE   D2A11944   4.903  13.389   6.441  0.0423  0.2362 -0.1369
  844POPE   C3A11945   4.849  13.564   6.861  0.0683 -0.0224  0.0217
  844POPE   C4A11946   4.758  13.525   7.292 -0.0721 -0.0384  0.0330
  844POPE   C1B11947   4.922  12.954   5.999  0.0155  0.1316 -0.0603
  844POPE   C2B11948   5.143  12.880   6.427  0.1665 -0.1433 -0.2623
  844POPE   C3B11949   5.136  13.042   6.815  0.1617 -0.4265  0.3531
  844POPE   C4B11950   5.051  13.038   7.237 -0.3252  0.0329 -0.0789
  845POPE   NH311951   0.179   8.146   5.344 -0.0864 -0.1985  0.0525
  845POPE   PO411952  -0.058   8.514   5.308  0.0403 -0.3661  0.0869
  845POPE   GL111953  -0.295   8.509   5.735 -0.0653  0.1353 -0.0260
  845POPE   GL211954  -0.424   8.617   5.910  0.0302 -0.0329  0.2024
  845POPE   C1A11955  -0.011   8.630   6.147 -0.0455 -0.0198  0.0078
  845POPE   D2A11956  -0.095   8.613   6.505 -0.0085  0.1577 -0.0769
  845POPE   C3A11957  -0.178   8.422   6.891  0.1622  0.2203  0.1217
  845POPE   C4A11958   0.016   8.220   7.209 -0.3221  0.1049 -0.3546
  845POPE   C1B11959  -0.697   8.709   6.317 -0.2809 -0.1183  0.1379
  845POPE   C2B11960  -0.603   8.600   6.809 -0.1588 -0.2388 -0.1958
  845POPE   C3B11961  -0.647   8.665   7.214 -0.4461 -0.0363 -0.0405
  845POPE   C4B11962  -0.311   8.755   7.506  0.1008 -0.0838 -0.0000
  846POPE   NH311963  12.462  15.764   5.197  0.1399 -0.0987 -0.2105
  846POPE   PO411964  12.491  15.379   5.391  0.0733  0.0994 -0.0581
  846POPE   GL111965  12.599  15.266   5.787  0.1041  0.1522  0.0032
  846POPE   GL211966  12.697  15.026   5.975 -0.3370  0.1417 -0.0424
  846POPE   C1A11967  12.350  15.314   6.182  0.1460 -0.1274  0.0213
  846POPE   D2A11968  12.132  15.282   6.596 -0.0187 -0.1054  0.0928
  846POPE   C3A11969  11.948  15.586   7.034  0.0564 -0.1809 -0.0769
  846POPE   C4A11970  11.908  15.723   7.529 -0.1707  0.1817  0.2432
  846POPE   C1B11971  12.757  15.147   6.398  0.0177 -0.1966 -0.1469
  846POPE   C2B11972  12.872  15.134   6.961  0.2416  0.0214  0.4266
  846POPE   C3B11973  12.890  15.375   7.291 -0.1395 -0.2000  0.2206
  846POPE   C4B11974  13.018  15.731   7.398  0.1543 -0.1743  0.2973
  847POPE   NH311975   9.938  13.849   5.578  0.0846 -0.0623  0.2118
  847POPE   PO411976  10.367  13.914   5.510 -0.0237  0.1934  0.2023
  847POPE   GL111977  10.349  14.063   5.882  0.1343 -0.2568 -0.0836
  847POPE   GL211978  10.699  14.030   5.972  0.1570  0.0174 -0.3325
  847POPE   C1A11979  10.025  14.421   6.103  0.0754 -0.2818  0.0120
  847POPE   D2A11980   9.939  14.404   6.496 -0.3178 -0.4632 -0.2333
  847POPE   C3A11981   9.915  14.194   6.899  0.0197  0.0065  0.1051
  847POPE   C4A11982   9.778  14.452   7.327 -0.3984 -0.1026  0.0045
  847POPE   C1B11983  10.448  14.256   6.365  0.3028 -0.0787  0.1283
  847POPE   C2B11984  10.444  14.132   6.715  0.0166  0.2599 -0.0849
  847POPE   C3B11985  10.557  14.011   7.078  0.1262  0.1759 -0.0849
  847POPE   C4B11986  10.591  13.755   7.423 -0.1953 -0.0156  0.0318
  848POPE   NH311987  13.481  12.669   5.216 -0.1825  0.0343 -0.0523
  848POPE   PO411988  13.533  12.311   5.473  0.1179 -0.3439  0.4148
  848POPE   GL111989  13.541  12.128   5.808  0.0397  0.0968 -0.0622
  848POPE   GL211990  13.153  12.148   5.756  0.1873  0.1084 -0.1430
  848POPE   C1A11991  13.669  12.320   6.183 -0.0334  0.1141  0.1787
  848POPE   D2A11992  13.636  12.600   6.446 -0.2279  0.2764  0.2455
  848POPE   C3A11993  13.636  12.404   6.951  0.1201  0.0010  0.1158
  848POPE   C4A11994  13.486  12.135   7.230 -0.1203 -0.0324 -0.1492
  848POPE   C1B11995  13.236  11.994   6.156  0.3154  0.0640 -0.0841
  848POPE   C2B11996  12.982  11.632   6.311  0.0064  0.3507  0.1783
  848POPE   C3B11997  13.051  11.309   6.648  0.2322 -0.0371  0.2104
  848POPE   C4B11998  12.850  11.115   7.037 -0.0847  0.0653 -0.1619
  849POPE   NH311999  10.174   1.708   6.111  0.0744 -0.4317 -0.0526
  849POPE   PO412000  10.619   1.734   5.944  0.0244 -0.2852 -0.2205
  849POPE   GL112001  10.535   2.040   6.267 -0.0819  0.1024 -0.0750
  849POPE   GL212002  10.377   1.950   6.562  0.1765  0.3380 -0.1830
  849POPE   C1A12003  10.694   2.533   6.386 -0.0788 -0.0733 -0.0622
  849POPE   D2A12004  10.590   2.826   6.726  0.0394 -0.2221 -0.1143
  849POPE   C3A12005  10.469   3.218   6.866 -0.0277  0.1308  0.1119
  849POPE   C4A12006  10.439   3.667   7.039  0.2359  0.1214 -0.2270
  849POPE   C1B12007  10.197   1.728   6.988  0.3462  0.0630 -0.0395
  849POPE   C2B12008  10.435   1.770   7.361 -0.5598 -0.4383 -0.2144
  849POPE   C3B12009  10.774   1.587   7.516  0.2414 -0.0009 -0.0851
  849POPE   C4B12010  11.149   1.782   7.340 -0.0509 -0.2180  0.0583
  850POPE   NH312011  12.783   3.403   5.662 -0.1823 -0.0629 -0.0505
  850POPE   PO412012  12.434   3.096   5.531  0.3212  0.0302 -0.1199
  850POPE   GL112013  12.776   2.942   5.818 -0.1268 -0.1456 -0.0087
  850POPE   GL212014  12.879   2.675   5.789  0.0182 -0.0103 -0.1523
  850POPE   C1A12015  12.881   2.956   6.324  0.2712 -0.1582 -0.0664
  850POPE   D2A12016  13.156   2.976   6.673 -0.1573  0.3723 -0.2772
  850POPE   C3A12017  13.044   3.301   6.938  0.1934 -0.1834 -0.0935
  850POPE   C4A12018  12.737   3.247   7.298 -0.4490 -0.2719  0.2038
  850POPE   C1B12019  12.667   2.494   6.155 -0.1588  0.0138 -0.1317
  850POPE   C2B12020  12.493   2.230   6.476  0.3400  0.2394 -0.1219
  850POPE   C3B12021  12.642   2.314   6.892  0.0786 -0.0144 -0.3352
  850POPE   C4B12022  12.538   2.644   7.210 -0.2079 -0.1662 -0.2096
  851POPE   NH312023   8.788  10.561   5.737 -0.1801  0.1420  0.1081
  851POPE   PO412024   8.474  10.634   5.484 -0.0570 -0.3518 -0.1911
  851POPE   GL112025   8.266  10.586   5.859  0.1644  0.0069 -0.1976
  851POPE   GL212026   8.003  10.329   5.882  0.1311 -0.3733 -0.2865
  851POPE   C1A12027   8.265  10.412   6.311 -0.2557 -0.0992 -0.0840
  851POPE   D2A12028   8.348  10.147   6.696 -0.1392 -0.6351 -0.0192
  851POPE   C3A12029   8.125  10.008   7.106 -0.1379 -0.1546 -0.0942
  851POPE   C4A12030   8.013   9.644   7.368 -0.1640  0.1762  0.2212
  851POPE   C1B12031   7.820  10.124   6.247  0.0375 -0.0042 -0.1509
  851POPE   C2B12032   7.790  10.003   6.717  0.1293  0.0181 -0.2742
  851POPE   C3B12033   7.608  10.053   7.094 -0.1392  0.0373 -0.6932
  851POPE   C4B12034   7.384  10.321   7.451 -0.5273 -0.0986 -0.3099
  852POPE   NH312035  11.791   3.755   5.759 -0.5137 -0.2015 -0.3475
  852POPE   PO412036  11.780   3.293   5.739 -0.4015  0.2874 -0.2500
  852POPE   GL112037  11.881   3.171   6.129 -0.1578 -0.1959  0.2093
  852POPE   GL212038  11.684   2.955   6.139  0.0715 -0.0214  0.1306
  852POPE   C1A12039  12.014   3.189   6.486 -0.2985 -0.0640 -0.1046
  852POPE   D2A12040  11.842   3.235   6.974  0.0275  0.0349  0.0273
  852POPE   C3A12041  11.589   3.344   7.282 -0.2402 -0.0697  0.1388
  852POPE   C4A12042  11.278   3.450   7.541  0.0298 -0.1465 -0.0401
  852POPE   C1B12043  11.700   2.704   6.450 -0.2447  0.1561  0.0758
  852POPE   C2B12044  11.601   2.647   6.881  0.0395  0.0763  0.2852
  852POPE   C3B12045  11.436   2.744   7.247 -0.0574 -0.1152 -0.0833
  852POPE   C4B12046  11.023   2.938   7.461 -0.0533  0.1818 -0.1292
  853POPE   NH312047  12.126  12.674   5.373 -0.0845 -0.0574  0.0335
  853POPE   PO412048  11.970  12.256   5.596 -0.0628 -0.0224 -0.1537
  853POPE   GL112049  11.843  12.047   6.013  0.1848 -0.0319 -0.2638
  853POPE   GL212050  11.578  12.056   6.103  0.0743 -0.2305  0.0163
  853POPE   C1A12051  11.812  11.990   6.548 -0.2106  0.0708  0.0167
  853POPE   D2A12052  11.979  12.067   6.993 -0.2973  0.0607  0.1590
  853POPE   C3A12053  11.963  12.154   7.392 -0.1588 -0.3751  0.1532
  853POPE   C4A12054  12.085  11.813   7.597  0.1861  0.1583 -0.1072
  853POPE   C1B12055  11.316  11.964   6.482  0.0946  0.0608 -0.1671
  853POPE   C2B12056  11.458  11.990   6.896  0.2153 -0.0931  0.3506
  853POPE   C3B12057  11.401  12.214   7.294  0.3140  0.5489 -0.1024
  853POPE   C4B12058  11.139  12.327   7.723  0.0725 -0.0266  0.1931
  854POPE   NH312059  11.385  13.310   5.701  0.1331  0.2043 -0.0015
  854POPE   PO412060  11.717  12.944   5.667  0.0852  0.1943 -0.0731
  854POPE   GL112061  11.475  13.003   6.088  0.0341  0.2342 -0.1001
  854POPE   GL212062  11.726  13.287   6.038 -0.1812  0.2589  0.4256
  854POPE   C1A12063  11.473  12.932   6.576  0.0085 -0.5124 -0.0413
  854POPE   D2A12064  11.568  12.925   7.000  0.0596  0.2348  0.1974
  854POPE   C3A12065  11.634  12.618   7.261  0.1910 -0.3121 -0.1682
  854POPE   C4A12066  12.045  12.756   7.488  0.0154  0.4352 -0.0627
  854POPE   C1B12067  11.825  13.306   6.458 -0.2884  0.0946  0.4706
  854POPE   C2B12068  11.919  13.188   6.887  0.2129  0.1383  0.1340
  854POPE   C3B12069  11.881  13.235   7.270 -0.0549 -0.2360 -0.1037
  854POPE   C4B12070  11.649  12.961   7.593 -0.0977  0.2184  0.1754
  855POPE   NH312071   7.968   5.016   5.279  0.2599 -0.1611  0.0074
  855POPE   PO412072   8.290   4.891   5.523  0.0859 -0.1155  0.1134
  855POPE   GL112073   7.913   4.926   5.792 -0.2996 -0.4090 -0.0950
  855POPE   GL212074   7.860   5.213   5.894  0.0814  0.2089 -0.0489
  855POPE   C1A12075   8.074   4.794   6.210  0.0674 -0.1831  0.0105
  855POPE   D2A12076   8.362   4.557   6.334  0.1530 -0.1123  0.1086
  855POPE   C3A12077   8.154   4.542   6.763 -0.1025  0.1439 -0.0341
  855POPE   C4A12078   8.107   4.418   7.139 -0.0642  0.0142 -0.2290
  855POPE   C1B12079   7.694   5.127   6.274 -0.4242  0.0986  0.0558
  855POPE   C2B12080   7.848   5.043   6.633  0.1338 -0.2309 -0.0599
  855POPE   C3B12081   7.911   4.934   7.031 -0.0795  0.3743  0.0166
  855POPE   C4B12082   7.993   4.944   7.563 -0.4904  0.1563  0.3259
  856POPE   NH312083   9.101  14.503   5.572 -0.0588 -0.2923  0.0037
  856POPE   PO412084   8.820  14.843   5.734 -0.1810  0.1523  0.0270
  856POPE   GL112085   8.632  14.958   6.095  0.1853 -0.3190  0.1173
  856POPE   GL212086   8.421  14.797   6.058  0.0768 -0.0839 -0.0274
  856POPE   C1A12087   8.606  15.111   6.462 -0.2982 -0.0512 -0.0327
  856POPE   D2A12088   8.601  14.942   6.940  0.0703  0.1732 -0.1390
  856POPE   C3A12089   8.322  15.227   7.078  0.1464  0.0140  0.1095
  856POPE   C4A12090   7.863  15.153   7.095 -0.0425 -0.1041  0.0912
  856POPE   C1B12091   8.024  14.571   6.237 -0.0047 -0.0249 -0.3353
  856POPE   C2B12092   8.130  14.418   6.588 -0.0133 -0.1424 -0.2059
  856POPE   C3B12093   8.346  14.390   6.960  0.0839  0.0887  0.1702
  856POPE   C4B12094   8.625  14.141   7.223  0.3126  0.0045 -0.4251
  857POPE   NH312095   1.793  16.130   5.060  0.1291  0.3892  0.0845
  857POPE   PO412096   1.706  15.667   5.213  0.0342  0.0049 -0.1155
  857POPE   GL112097   1.945  15.823   5.502  0.1352 -0.0869 -0.0489
  857POPE   GL212098   2.219  15.583   5.402  0.1586 -0.3716 -0.1575
  857POPE   C1A12099   2.335  15.942   5.792 -0.1274 -0.0649 -0.3211
  857POPE   D2A12100   2.707  16.074   5.683  0.1428 -0.0301 -0.2116
  857POPE   C3A12101   2.661  16.450   5.544 -0.1232 -0.3005 -0.2863
  857POPE   C4A12102   2.787  16.755   5.903  0.0590  0.0507  0.0882
  857POPE   C1B12103   2.115  15.541   5.870  0.1286 -0.1602 -0.0300
  857POPE   C2B12104   2.085  15.837   6.239  0.1249 -0.4058 -0.1500
  857POPE   C3B12105   2.159  15.974   6.649  0.0789 -0.1793 -0.0980
  857POPE   C4B12106   2.034  16.366   6.859  0.2321  0.0525  0.1219
  858POPE   NH312107   1.927   7.688   5.670  0.1830  0.3915  0.2081
  858POPE   PO412108   2.360   7.818   5.767  0.2006  0.3084 -0.0358
  858POPE   GL112109   2.142   7.895   6.147  0.0158  0.2910 -0.1273
  858POPE   GL212110   1.824   7.929   6.174 -0.1069  0.2102 -0.2230
  858POPE   C1A12111   2.142   7.884   6.650 -0.0367 -0.2417 -0.1378
  858POPE   D2A12112   2.184   7.933   7.047  0.1649 -0.1144  0.0666
  858POPE   C3A12113   2.274   8.313   7.235  0.3619  0.1486 -0.2692
  858POPE   C4A12114   2.531   8.647   7.292  0.1852 -0.3301  0.2306
  858POPE   C1B12115   1.632   7.999   6.627 -0.1530  0.0451 -0.0552
  858POPE   C2B12116   1.549   7.969   7.047  0.2592 -0.2673 -0.3792
  858POPE   C3B12117   1.570   7.688   7.459 -0.0659  0.3011 -0.1161
  858POPE   C4B12118   1.684   7.250   7.531  0.0391 -0.1847  0.0835
  859POPE   NH312119   2.353  14.842   5.225  0.2828 -0.0559 -0.1269
  859POPE   PO412120   1.974  14.550   5.368 -0.2315 -0.1793  0.2919
  859POPE   GL112121   1.821  14.408   5.671 -0.3576  0.1007  0.0615
  859POPE   GL212122   1.689  14.037   5.685 -0.0942 -0.1393  0.3022
  859POPE   C1A12123   1.825  14.436   6.069 -0.1728  0.2018 -0.1180
  859POPE   D2A12124   1.586  14.543   6.390  0.0748 -0.2607  0.1292
  859POPE   C3A12125   1.537  14.304   6.647 -0.1542  0.2125  0.2197
  859POPE   C4A12126   1.575  14.128   6.957  0.0418 -0.1588 -0.0417
  859POPE   C1B12127   1.586  13.950   6.190  0.3724  0.0733 -0.0183
  859POPE   C2B12128   1.684  13.713   6.620 -0.2392  0.1714  0.1515
  859POPE   C3B12129   1.563  13.649   6.929  0.3145 -0.3642 -0.3752
  859POPE   C4B12130   1.369  13.811   7.278  0.0500 -0.0189 -0.1381
  860POPE   NH312131  13.797  15.689   5.248  0.0172 -0.1141  0.2539
  860POPE   PO412132  13.473  15.546   5.488  0.3573  0.1871 -0.1100
  860POPE   GL112133  13.364  15.690   5.867 -0.1242  0.1745 -0.0964
  860POPE   GL212134  13.247  16.033   5.861 -0.3080 -0.2383 -0.0694
  860POPE   C1A12135  13.654  15.747   6.227  0.1610  0.0620 -0.0668
  860POPE   D2A12136  13.526  15.912   6.588 -0.4829  0.5552  0.1915
  860POPE   C3A12137  13.425  15.660   7.004  0.0219 -0.0872  0.1869
  860POPE   C4A12138  13.366  15.337   7.042 -0.2503 -0.1800 -0.1763
  860POPE   C1B12139  13.248  16.043   6.235  0.0977  0.0927  0.3750
  860POPE   C2B12140  13.042  16.115   6.558 -0.0500 -0.1526 -0.1638
  860POPE   C3B12141  13.211  16.144   6.903 -0.0815  0.0124 -0.1355
  860POPE   C4B12142  13.191  16.431   7.137 -0.1168 -0.0012  0.1267
  861POPE   NH312143  17.542   2.313   5.878  0.1335  0.0164 -0.1907
  861POPE   PO412144  17.161   2.227   5.851 -0.0114  0.2127  0.0246
  861POPE   GL112145  17.166   2.637   6.088 -0.1377  0.2537  0.1208
  861POPE   GL212146  17.214   2.498   6.377  0.0104 -0.0949 -0.0080
  861POPE   C1A12147  17.447   2.973   6.232 -0.0260 -0.1840  0.5281
  861POPE   D2A12148  17.410   3.153   6.715  0.2175  0.1392 -0.0737
  861POPE   C3A12149  17.647   3.478   6.914  0.0978 -0.2805  0.0372
  861POPE   C4A12150  18.015   3.742   6.784 -0.1882  0.1765  0.3534
  861POPE   C1B12151  17.066   2.341   6.722  0.1243  0.2345  0.0641
  861POPE   C2B12152  16.937   2.406   7.243  0.0987 -0.1110 -0.0988
  861POPE   C3B12153  16.647   2.336   7.514  0.2407  0.0641 -0.0826
  861POPE   C4B12154  16.280   2.130   7.802 -0.0505  0.0603  0.4588
  862POPE   NH312155   6.343  15.681   5.380  0.2660  0.2459  0.2732
  862POPE   PO412156   6.105  16.036   5.468  0.1111 -0.0648  0.0323
  862POPE   GL112157   5.787  16.113   5.789  0.0456 -0.1691 -0.2101
  862POPE   GL212158   6.041  16.183   6.024  0.0028 -0.1006 -0.0193
  862POPE   C1A12159   5.354  16.031   5.904  0.0418 -0.0909 -0.1702
  862POPE   D2A12160   5.055  16.139   6.227 -0.2083 -0.0484 -0.2257
  862POPE   C3A12161   5.147  16.419   6.492 -0.1310 -0.3519  0.3568
  862POPE   C4A12162   5.081  16.641   6.886 -0.0325  0.1655 -0.0167
  862POPE   C1B12163   6.101  16.549   6.281  0.0935  0.1886 -0.1614
  862POPE   C2B12164   5.929  16.582   6.627  0.1292 -0.3675 -0.2380
  862POPE   C3B12165   5.882  16.514   7.102  0.0515 -0.2113 -0.1306
  862POPE   C4B12166   6.001  16.271   7.462  0.2113  0.0440 -0.1256
  863POPE   NH312167  16.505  13.335   5.940  0.0463 -0.0483  0.2098
  863POPE   PO412168  16.156  13.155   6.196  0.0277  0.2169 -0.0190
  863POPE   GL112169  16.181  13.191   6.517 -0.0418  0.1359  0.0219
  863POPE   GL212170  15.858  13.105   6.667 -0.0504 -0.0094  0.1881
  863POPE   C1A12171  16.262  13.379   6.931  0.0532 -0.0922 -0.0235
  863POPE   D2A12172  16.527  13.465   7.236  0.2202  0.0748  0.1463
  863POPE   C3A12173  16.480  13.771   7.454  0.0166  0.1314  0.1633
  863POPE   C4A12174  16.742  14.010   7.733 -0.3748  0.1881  0.0439
  863POPE   C1B12175  15.738  13.297   6.990 -0.2013  0.1717 -0.2015
  863POPE   C2B12176  15.366  13.441   7.122 -0.0341 -0.1526  0.1450
  863POPE   C3B12177  15.132  13.427   7.381 -0.1262 -0.0468  0.1409
  863POPE   C4B12178  14.750  13.662   7.342 -0.1564 -0.0310 -0.0605
  864POPE   NH312179  16.967   1.203   5.716 -0.1752 -0.1756  0.1041
  864POPE   PO412180  16.657   1.387   5.611  0.2611  0.1148 -0.2691
  864POPE   GL112181  16.546   1.374   6.020  0.0883  0.1343  0.3260
  864POPE   GL212182  16.264   1.155   6.098  0.1889 -0.1320 -0.3088
  864POPE   C1A12183  16.674   1.341   6.485  0.0328  0.0108  0.2635
  864POPE   D2A12184  16.628   1.316   6.979 -0.2239  0.1245 -0.0443
  864POPE   C3A12185  16.624   1.690   7.078 -0.1887 -0.1279 -0.0462
  864POPE   C4A12186  16.705   2.009   6.965  0.1259 -0.2245 -0.0994
  864POPE   C1B12187  16.181   1.350   6.419 -0.1037  0.0896  0.1179
  864POPE   C2B12188  16.225   1.633   6.773 -0.1135  0.3688  0.0588
  864POPE   C3B12189  16.195   1.478   7.191  0.2381 -0.0183 -0.1090
  864POPE   C4B12190  16.102   1.712   7.589 -0.2021  0.0625  0.0548
  865POPE   NH312191   8.133  13.467   5.568  0.1450  0.3314 -0.1147
  865POPE   PO412192   8.308  13.128   5.344  0.1339  0.0387  0.0762
  865POPE   GL112193   8.232  12.892   5.688 -0.3165 -0.0786 -0.3404
  865POPE   GL212194   7.918  12.907   5.746  0.0913 -0.2679  0.4465
  865POPE   C1A12195   8.297  13.028   6.218 -0.2223 -0.1213 -0.0431
  865POPE   D2A12196   8.599  13.215   6.533  0.0919  0.1943 -0.1260
  865POPE   C3A12197   8.905  12.997   6.647 -0.1686  0.0692  0.3172
  865POPE   C4A12198   9.114  12.632   6.581  0.5016  0.0775 -0.2262
  865POPE   C1B12199   7.946  12.684   6.076  0.1065 -0.0234  0.0527
  865POPE   C2B12200   7.842  12.545   6.469 -0.0052 -0.2560  0.0256
  865POPE   C3B12201   7.858  12.511   6.885  0.1731 -0.1720 -0.1283
  865POPE   C4B12202   7.539  12.405   7.321 -0.4611  0.1189  0.0163
  866POPE   NH312203  14.661  13.991   5.574  0.2069  0.1439  0.2393
  866POPE   PO412204  15.060  13.814   5.438 -0.0393  0.1593  0.1549
  866POPE   GL112205  15.064  13.823   5.834 -0.0689  0.0125  0.0406
  866POPE   GL212206  14.970  13.935   6.024 -0.0564  0.1609  0.1496
  866POPE   C1A12207  15.405  13.948   6.137  0.2425  0.1277  0.2444
  866POPE   D2A12208  15.630  14.032   6.559  0.0290 -0.0469  0.3183
  866POPE   C3A12209  16.040  14.319   6.732  0.2856 -0.1499 -0.0860
  866POPE   C4A12210  16.231  14.493   7.028 -0.0699 -0.1284  0.1193
  866POPE   C1B12211  14.924  14.067   6.444  0.2032  0.0636 -0.0237
  866POPE   C2B12212  14.820  14.015   6.834 -0.2001  0.1418 -0.0816
  866POPE   C3B12213  14.534  14.107   7.220 -0.0470 -0.0178 -0.4109
  866POPE   C4B12214  14.519  13.934   7.660 -0.4366  0.0043  0.0694
  867POPE   NH312215   6.124   4.233   5.540  0.2324 -0.0117 -0.0128
  867POPE   PO412216   5.950   4.511   5.748 -0.4157  0.3182 -0.0517
  867POPE   GL112217   6.146   4.638   6.019  0.0924  0.2161 -0.0679
  867POPE   GL212218   6.318   4.886   6.126 -0.0134  0.2674  0.2285
  867POPE   C1A12219   6.195   4.557   6.475  0.0544  0.1393  0.0270
  867POPE   D2A12220   6.080   4.271   6.838 -0.1313 -0.3474 -0.0428
  867POPE   C3A12221   5.998   4.331   7.302 -0.1366 -0.0777 -0.1519
  867POPE   C4A12222   6.068   4.506   7.808  0.2041 -0.0431  0.1620
  867POPE   C1B12223   6.267   5.011   6.479  0.1512 -0.2256  0.0762
  867POPE   C2B12224   6.187   5.245   6.691 -0.1798  0.0760  0.0459
  867POPE   C3B12225   6.058   5.631   6.852  0.2195 -0.0654  0.1009
  867POPE   C4B12226   5.946   5.699   7.329  0.0180 -0.0707 -0.1840
  868POPE   NH312227  13.609   1.231   5.247  0.2588  0.0960 -0.0624
  868POPE   PO412228  13.281   1.510   5.265 -0.3829 -0.0166  0.1663
  868POPE   GL112229  13.330   1.718   5.562  0.3841  0.1083 -0.1439
  868POPE   GL212230  13.105   1.758   5.791  0.3774 -0.0422  0.0905
  868POPE   C1A12231  13.580   1.897   5.879  0.0195 -0.1553 -0.0571
  868POPE   D2A12232  13.636   2.139   6.255 -0.1070  0.0172 -0.0930
  868POPE   C3A12233  14.206   2.214   6.270  0.0997  0.1287 -0.1455
  868POPE   C4A12234  14.219   2.576   6.065 -0.1485 -0.2001 -0.2313
  868POPE   C1B12235  13.189   1.605   6.162  0.3396  0.1114  0.2648
  868POPE   C2B12236  13.388   1.713   6.584 -0.0213  0.1884  0.1439
  868POPE   C3B12237  13.688   2.012   6.839  0.0249 -0.0217 -0.0195
  868POPE   C4B12238  13.537   2.137   7.186 -0.1425  0.1196 -0.0169
  869POPE   NH312239   3.746   6.209   4.939 -0.0089  0.0132 -0.2668
  869POPE   PO412240   3.938   5.970   5.162  0.1988 -0.3073  0.0334
  869POPE   GL112241   3.971   5.992   5.642  0.1404  0.0163 -0.1115
  869POPE   GL212242   4.147   6.217   5.646 -0.0673 -0.0614  0.3522
  869POPE   C1A12243   3.830   6.059   6.024  0.2017 -0.1688  0.1489
  869POPE   D2A12244   3.755   6.021   6.452 -0.4660 -0.2070  0.3653
  869POPE   C3A12245   3.567   5.601   6.612 -0.1884 -0.2492 -0.0937
  869POPE   C4A12246   3.253   5.531   6.645 -0.0100 -0.0612  0.0053
  869POPE   C1B12247   4.179   6.400   6.024 -0.3097 -0.0490  0.2318
  869POPE   C2B12248   4.253   6.449   6.435  0.1364  0.0101  0.1493
  869POPE   C3B12249   4.189   6.302   6.812 -0.0930 -0.0117 -0.0026
  869POPE   C4B12250   4.106   6.174   7.184 -0.1255  0.2029  0.2059
  870POPE   NH312251  10.075   1.973   5.666  0.0550  0.1834 -0.5200
  870POPE   PO412252   9.946   2.242   5.415 -0.1740  0.0968 -0.2512
  870POPE   GL112253  10.154   2.475   5.865 -0.1521 -0.1814  0.2856
  870POPE   GL212254  10.012   2.234   6.130  0.1931  0.0114 -0.0421
  870POPE   C1A12255  10.360   2.810   6.098 -0.0582  0.2440 -0.0764
  870POPE   D2A12256  10.186   3.105   6.261 -0.1806 -0.1689  0.1319
  870POPE   C3A12257  10.017   3.035   6.632  0.2793 -0.2939 -0.0022
  870POPE   C4A12258   9.762   3.023   6.977 -0.0310 -0.0519 -0.0276
  870POPE   C1B12259   9.747   2.271   6.470  0.0312 -0.1841  0.1508
  870POPE   C2B12260   9.880   2.329   6.911  0.3275  0.0701  0.0156
  870POPE   C3B12261  10.165   2.679   7.058  0.0254  0.2504  0.0023
  870POPE   C4B12262  10.353   3.023   7.285 -0.2270  0.1076  0.0531
  871POPE   NH312263   4.462  10.280   5.466 -0.2056 -0.1252  0.2727
  871POPE   PO412264   4.057  10.464   5.337  0.1743  0.0686  0.0336
  871POPE   GL112265   3.896  10.811   5.586 -0.0387  0.0136  0.2409
  871POPE   GL212266   4.106  11.123   5.508  0.0991 -0.3210 -0.0885
  871POPE   C1A12267   3.734  10.923   5.932 -0.0700 -0.0217  0.0048
  871POPE   D2A12268   3.306  10.837   6.188  0.0161 -0.3253  0.2355
  871POPE   C3A12269   2.977  10.519   6.135 -0.0589 -0.1703  0.0584
  871POPE   C4A12270   2.644  10.254   6.211 -0.1287 -0.3191  0.1047
  871POPE   C1B12271   4.238  11.242   6.001  0.1590  0.0748 -0.1003
  871POPE   C2B12272   4.191  11.614   6.333  0.2236 -0.0353  0.2579
  871POPE   C3B12273   3.878  11.712   6.520  0.0037 -0.1710 -0.3286
  871POPE   C4B12274   3.696  11.711   6.957  0.0874 -0.0437 -0.3178
  872YOPE   NH312275  14.641   6.049   5.661  0.3902 -0.2240  0.0532
  872YOPE   PO412276  14.747   5.656   5.524 -0.1946 -0.0754  0.0884
  872YOPE   GL112277  14.628   5.627   6.052  0.2598 -0.3028 -0.1737
  872YOPE   GL212278  14.706   5.943   6.195  0.1000 -0.1880 -0.1673
  872YOPE   C1A12279  14.515   5.400   6.366  0.1972 -0.1404 -0.0664
  872YOPE   D2A12280  14.683   5.081   6.616 -0.1625 -0.1212 -0.1250
  872YOPE   C3A12281  14.446   4.881   6.782  0.0075  0.0637  0.0993
  872YOPE   C4A12282  14.009   4.738   6.932 -0.0103  0.0526  0.2374
  872YOPE   C1B12283  14.602   5.842   6.583 -0.2989  0.2175 -0.1654
  872YOPE   C2B12284  14.623   5.521   6.913 -0.1896 -0.3930 -0.3293
  872YOPE   D3B12285  14.601   5.457   7.377  0.3396  0.5503  0.0490
  872YOPE   C4B12286  14.538   5.042   7.674 -0.0934 -0.1568  0.2769
  873YOPE   NH312287  15.293   7.387   5.794 -0.2208 -0.1745 -0.1302
  873YOPE   PO412288  14.980   7.198   5.887  0.2941  0.0625  0.2410
  873YOPE   GL112289  15.143   7.282   6.279 -0.0160  0.0752 -0.0317
  873YOPE   GL212290  15.379   7.539   6.293 -0.1033 -0.1808 -0.0141
  873YOPE   C1A12291  15.054   7.398   6.725  0.2067  0.3414 -0.3467
  873YOPE   D2A12292  14.839   7.257   7.067  0.0885 -0.1775  0.1135
  873YOPE   C3A12293  15.204   7.160   7.333 -0.0560 -0.1908 -0.0490
  873YOPE   C4A12294  15.327   7.311   7.688  0.3198 -0.0956  0.2834
  873YOPE   C1B12295  15.163   7.865   6.615 -0.0436 -0.4235  0.1068
  873YOPE   C2B12296  15.198   7.713   7.066  0.1552  0.1810 -0.0843
  873YOPE   D3B12297  15.583   7.475   7.311  0.1072 -0.1470 -0.0426
  873YOPE   C4B12298  15.966   7.280   7.311 -0.0569 -0.1689  0.3055
  874YOPE   NH312299   7.960  17.922   4.961  0.0039  0.0057  0.1076
  874YOPE   PO412300   7.833  17.579   5.322 -0.0581  0.0709 -0.1563
  874YOPE   GL112301   7.845  17.640   5.757 -0.1947  0.4123  0.3731
  874YOPE   GL212302   7.771  17.291   5.869 -0.0766  0.1777  0.0267
  874YOPE   C1A12303   7.868  17.708   6.210 -0.2229 -0.2192  0.0252
  874YOPE   D2A12304   7.802  17.566   6.593 -0.0568 -0.1513  0.1342
  874YOPE   C3A12305   7.728  17.162   6.512  0.0094 -0.0039 -0.3257
  874YOPE   C4A12306   7.747  16.777   6.230  0.0299  0.0351  0.1977
  874YOPE   C1B12307   8.039  17.233   6.140 -0.0595  0.1229  0.3717
  874YOPE   C2B12308   8.199  16.955   6.372 -0.3125  0.0283 -0.3221
  874YOPE   D3B12309   8.133  16.770   6.704 -0.3592  0.1911 -0.0341
  874YOPE   C4B12310   8.006  16.526   7.011  0.0268  0.0057 -0.2188
  875YOPE   NH312311   4.097  17.497   5.369  0.0127 -0.0695 -0.0648
  875YOPE   PO412312   3.987  17.024   5.461 -0.0410  0.0045  0.0288
  875YOPE   GL112313   3.958  17.028   5.770  0.0725 -0.0402  0.0495
  875YOPE   GL212314   3.976  17.353   5.812  0.2472 -0.2805 -0.4753
  875YOPE   C1A12315   3.806  16.888   6.211 -0.1889 -0.1516 -0.2095
  875YOPE   D2A12316   3.655  16.710   6.646  0.2100  0.3805  0.2027
  875YOPE   C3A12317   3.556  16.294   6.756 -0.1014  0.0503  0.1323
  875YOPE   C4A12318   3.370  16.351   7.287 -0.1285 -0.0502 -0.1275
  875YOPE   C1B12319   4.079  17.430   6.199 -0.0024 -0.0661  0.0453
  875YOPE   C2B12320   3.924  17.172   6.573 -0.1976  0.0414 -0.3854
  875YOPE   D3B12321   4.068  16.910   6.862 -0.1355  0.0526 -0.0932
  875YOPE   C4B12322   4.243  16.966   7.196 -0.0341 -0.0626  0.3881
  876YOPE   NH312323   7.136   7.183   5.480 -0.2269 -0.0252 -0.2957
  876YOPE   PO412324   7.172   6.785   5.421  0.0315  0.1481  0.1890
  876YOPE   GL112325   7.323   6.754   5.753  0.2437  0.1501  0.0715
  876YOPE   GL212326   7.034   6.903   5.911  0.1950 -0.1460 -0.0866
  876YOPE   C1A12327   7.500   7.057   6.110 -0.1233 -0.0386 -0.1257
  876YOPE   D2A12328   7.647   7.447   6.269  0.0988 -0.1527 -0.0448
  876YOPE   C3A12329   7.804   7.457   6.637  0.2129  0.1161  0.1218
  876YOPE   C4A12330   7.967   7.201   6.986  0.0924 -0.1909 -0.2027
  876YOPE   C1B12331   6.651   6.905   6.293 -0.2019  0.1643 -0.0429
  876YOPE   C2B12332   6.468   7.107   6.630  0.0528  0.2539 -0.1107
  876YOPE   D3B12333   6.543   7.342   7.065  0.2491  0.1023  0.1109
  876YOPE   C4B12334   6.622   7.515   7.508 -0.1008  0.0584  0.1596
  877YOPE   NH312335   6.669  13.742   5.414 -0.4309 -0.1630  0.1478
  877YOPE   PO412336   6.953  14.094   5.420 -0.0739  0.3420  0.1143
  877YOPE   GL112337   7.007  14.091   5.804 -0.1502 -0.2067 -0.1202
  877YOPE   GL212338   6.945  14.309   5.949 -0.0706 -0.1395  0.0022
  877YOPE   C1A12339   7.176  13.978   6.296  0.0610  0.1580 -0.1066
  877YOPE   D2A12340   7.112  13.689   6.776 -0.0619  0.0622  0.2249
  877YOPE   C3A12341   7.226  13.840   7.145  0.0836 -0.2218  0.3299
  877YOPE   C4A12342   7.531  13.885   7.490  0.1517  0.0951  0.1091
  877YOPE   C1B12343   6.792  14.372   6.371  0.1193  0.1324 -0.1031
  877YOPE   C2B12344   6.553  14.359   6.744  0.1079  0.0772 -0.0921
  877YOPE   D3B12345   6.253  14.296   7.090  0.1231 -0.0322  0.0122
  877YOPE   C4B12346   6.267  14.658   7.457  0.0750  0.1953  0.0067
  878YOPE   NH312347  12.727   9.154   5.682  0.0696  0.0308 -0.1494
  878YOPE   PO412348  12.387   9.413   5.558 -0.0515 -0.1083  0.0677
  878YOPE   GL112349  12.184   9.296   5.971  0.1185 -0.0090 -0.2580
  878YOPE   GL212350  11.911   9.029   5.932  0.2649 -0.0509 -0.1570
  878YOPE   C1A12351  11.957   9.391   6.330  0.3715 -0.3593  0.1578
  878YOPE   D2A12352  11.807   9.551   6.663 -0.2875 -0.0130 -0.0694
  878YOPE   C3A12353  11.656   9.307   6.996  0.1164 -0.4160  0.0689
  878YOPE   C4A12354  11.655   9.249   7.369 -0.1821 -0.1168  0.3471
  878YOPE   C1B12355  12.016   8.901   6.294  0.0663  0.3368  0.0430
  878YOPE   C2B12356  11.994   9.019   6.695  0.0526 -0.0385  0.0011
  878YOPE   D3B12357  12.202   9.342   6.894  0.2049 -0.0177 -0.0353
  878YOPE   C4B12358  12.506   9.375   7.313  0.2282 -0.2258 -0.1243
  879YOPE   NH312359  10.754   8.453   5.413 -0.3546  0.3306 -0.0821
  879YOPE   PO412360  11.095   8.235   5.626 -0.1610 -0.3911 -0.0243
  879YOPE   GL112361  11.371   8.318   5.981  0.2519 -0.0724 -0.1748
  879YOPE   GL212362  11.566   8.596   6.030 -0.1074 -0.0827  0.3622
  879YOPE   C1A12363  11.677   7.942   6.098 -0.3830  0.1567 -0.1715
  879YOPE   D2A12364  11.562   7.461   6.059 -0.0033  0.0384 -0.2646
  879YOPE   C3A12365  11.297   7.303   6.398 -0.0129  0.0368  0.1012
  879YOPE   C4A12366  11.131   7.075   6.903 -0.0528 -0.1825  0.2264
  879YOPE   C1B12367  11.361   8.386   6.443 -0.0276  0.1681 -0.2277
  879YOPE   C2B12368  11.197   8.369   6.801 -0.0529 -0.2615 -0.3745
  879YOPE   D3B12369  11.129   8.143   7.193 -0.0592  0.2696  0.2678
  879YOPE   C4B12370  10.806   8.171   7.612 -0.3780  0.1503 -0.2217
  880YOPE   NH312371   6.598  10.791   5.093 -0.0478 -0.1555  0.0939
  880YOPE   PO412372   6.800  11.192   5.068  0.0707  0.1520 -0.0681
  880YOPE   GL112373   6.757  11.334   5.516  0.0004 -0.1073 -0.0084
  880YOPE   GL212374   6.465  11.506   5.634  0.1211  0.2522  0.1077
  880YOPE   C1A12375   7.123  11.547   5.790 -0.1779  0.1358  0.2741
  880YOPE   D2A12376   7.363  11.839   5.999 -0.2869  0.1542 -0.0048
  880YOPE   C3A12377   7.164  11.864   6.430  0.0251 -0.0001  0.3394
  880YOPE   C4A12378   7.040  11.759   6.851 -0.2153  0.2997 -0.0431
  880YOPE   C1B12379   6.667  11.712   5.965 -0.4907 -0.0471  0.2188
  880YOPE   C2B12380   6.434  11.967   6.260 -0.1906 -0.1019 -0.4338
  880YOPE   D3B12381   6.422  11.957   6.727 -0.1374 -0.2729 -0.0210
  880YOPE   C4B12382   6.624  11.890   7.190 -0.0614 -0.0926  0.0296
  881YOPE   NH312383   1.887   0.770   5.465 -0.0148  0.2673  0.0418
  881YOPE   PO412384   2.052   0.421   5.423  0.5230 -0.1077  0.0342
  881YOPE   GL112385   1.910   0.407   5.855 -0.0229  0.2435 -0.0799
  881YOPE   GL212386   1.627   0.298   5.727 -0.1464 -0.2109 -0.0295
  881YOPE   C1A12387   1.782   0.299   6.332  0.0479 -0.0330  0.1599
  881YOPE   D2A12388   1.509   0.012   6.596 -0.0442  0.0737 -0.0466
  881YOPE   C3A12389   1.356  -0.347   6.939 -0.3157 -0.1302  0.0720
  881YOPE   C4A12390   1.163  -0.750   7.022  0.1282 -0.3062 -0.2828
  881YOPE   C1B12391   1.661  -0.096   6.043 -0.0638 -0.0047  0.2373
  881YOPE   C2B12392   1.802  -0.358   6.280 -0.5090 -0.1911  0.2666
  881YOPE   D3B12393   1.601  -0.620   6.500  0.0372 -0.0199 -0.0158
  881YOPE   C4B12394   1.696  -0.774   6.880  0.0924  0.0823  0.0135
  882YOPE   NH312395   8.356   5.899   5.564  0.1196 -0.0971  0.1147
  882YOPE   PO412396   8.584   6.357   5.521 -0.0985 -0.2601 -0.1367
  882YOPE   GL112397   8.673   6.168   5.850 -0.0967 -0.2404  0.3012
  882YOPE   GL212398   8.828   5.949   5.821 -0.3469  0.3644 -0.0063
  882YOPE   C1A12399   8.640   6.370   6.220  0.3470  0.1156  0.1180
  882YOPE   D2A12400   8.647   6.593   6.552  0.2092  0.0861 -0.0481
  882YOPE   C3A12401   8.974   6.836   6.416  0.1156  0.1084  0.0597
  882YOPE   C4A12402   9.325   7.133   6.386  0.0315 -0.2211  0.2066
  882YOPE   C1B12403   8.522   5.861   6.183 -0.1074  0.1411 -0.3347
  882YOPE   C2B12404   8.510   5.569   6.537  0.1706 -0.0883 -0.4227
  882YOPE   D3B12405   8.325   5.202   6.827 -0.2587 -0.1068  0.3011
  882YOPE   C4B12406   8.363   5.204   7.268 -0.3414  0.0548  0.0199
  883YOPE   NH312407   9.167  17.440   4.643  0.1459  0.2992 -0.1266
  883YOPE   PO412408   9.114  17.403   5.142 -0.2326  0.0433  0.3836
  883YOPE   GL112409   9.160  17.551   5.501  0.1124 -0.0139 -0.0626
  883YOPE   GL212410   8.839  17.572   5.623  0.2464  0.0073 -0.0262
  883YOPE   C1A12411   9.064  17.604   6.021 -0.0596 -0.1295  0.0056
  883YOPE   D2A12412   8.730  17.713   6.360  0.4535 -0.2082  0.0733
  883YOPE   C3A12413   8.290  17.511   6.466 -0.2927  0.2367  0.0905
  883YOPE   C4A12414   8.106  17.317   6.835 -0.4444  0.1273 -0.1194
  883YOPE   C1B12415   8.582  17.802   5.839 -0.3625  0.1463 -0.2106
  883YOPE   C2B12416   8.355  17.898   6.122  0.2011 -0.0925  0.1982
  883YOPE   D3B12417   8.155  18.012   6.547 -0.0648  0.2017  0.3439
  883YOPE   C4B12418   8.417  18.026   6.947 -0.0496  0.1023  0.0584
  884YOPE   NH312419   4.950  10.986   5.276  0.0174 -0.2695  0.0518
  884YOPE   PO412420   5.313  11.098   5.413 -0.0182  0.1467 -0.2204
  884YOPE   GL112421   5.159  11.196   5.761  0.1673  0.4366 -0.3873
  884YOPE   GL212422   5.501  11.236   5.930  0.0119  0.0129 -0.2023
  884YOPE   C1A12423   5.023  11.104   6.081  0.2981  0.1812  0.1263
  884YOPE   D2A12424   4.643  11.057   6.250 -0.1370  0.0646 -0.2547
  884YOPE   C3A12425   4.395  11.134   6.588  0.0975 -0.0035 -0.0534
  884YOPE   C4A12426   4.332  10.953   6.912  0.2798 -0.2134  0.1381
  884YOPE   C1B12427   5.703  11.606   6.171 -0.0681  0.2130  0.3111
  884YOPE   C2B12428   6.100  11.582   6.231  0.2151  0.1147 -0.1911
  884YOPE   D3B12429   6.436  11.257   6.060  0.2548 -0.3525 -0.1687
  884YOPE   C4B12430   6.805  11.102   5.958  0.1130  0.2075 -0.1556
  885YOPE   NH312431  18.255   8.677   5.463 -0.2811  0.0133 -0.1285
  885YOPE   PO412432  17.895   9.042   5.580  0.0343 -0.1469  0.3692
  885YOPE   GL112433  17.725   9.156   5.996  0.1415  0.0107  0.3121
  885YOPE   GL212434  17.452   8.956   5.911 -0.1565  0.1809  0.1186
  885YOPE   C1A12435  17.569   9.095   6.404 -0.0142  0.0906 -0.0527
  885YOPE   D2A12436  17.527   9.348   6.717 -0.5052 -0.0832 -0.1479
  885YOPE   C3A12437  17.582   9.376   7.267 -0.0376  0.0749 -0.1299
  885YOPE   C4A12438  17.519   9.321   7.717  0.1105 -0.1343  0.0124
  885YOPE   C1B12439  17.189   8.826   6.285 -0.1825 -0.4109 -0.1396
  885YOPE   C2B12440  17.186   8.876   6.769 -0.1194 -0.0989 -0.2210
  885YOPE   D3B12441  17.368   8.997   7.042 -0.0547 -0.1303 -0.0218
  885YOPE   C4B12442  17.386   8.908   7.472 -0.0428 -0.1693  0.0750
  886YOPE   NH312443  18.802   0.932   5.332  0.1841 -0.2204  0.0998
  886YOPE   PO412444  19.088   0.738   5.474 -0.0282 -0.0983 -0.0054
  886YOPE   GL112445  18.854   0.811   5.841  0.1624  0.1029  0.0684
  886YOPE   GL212446  18.532   0.749   5.995 -0.3257  0.1029  0.1268
  886YOPE   C1A12447  18.927   1.073   6.139  0.2279 -0.2069  0.0454
  886YOPE   D2A12448  19.087   1.188   6.537  0.1296 -0.0650  0.1385
  886YOPE   C3A12449  18.767   1.297   6.828  0.0091 -0.0592 -0.1374
  886YOPE   C4A12450  18.665   1.302   7.254  0.0328  0.1732  0.0224
  886YOPE   C1B12451  18.427   0.486   6.338  0.0186 -0.0497  0.0453
  886YOPE   C2B12452  18.509   0.288   6.798 -0.0508 -0.0308  0.0011
  886YOPE   D3B12453  18.738   0.582   7.119 -0.1861 -0.2658  0.1651
  886YOPE   C4B12454  18.747   0.654   7.561 -0.1010  0.1711  0.1580
  887YOPE   NH312455   2.240   9.269   5.523 -0.1547  0.0369 -0.1850
  887YOPE   PO412456   2.165   9.645   5.605 -0.0663 -0.2436  0.0656
  887YOPE   GL112457   2.299   9.886   5.967 -0.1366 -0.1765 -0.0376
  887YOPE   GL212458   2.041   9.890   6.121 -0.3756  0.2455 -0.1192
  887YOPE   C1A12459   2.547   9.773   6.245 -0.2589  0.1376  0.2776
  887YOPE   D2A12460   3.012   9.929   6.526 -0.1870  0.2336 -0.0510
  887YOPE   C3A12461   2.910  10.290   6.703 -0.3749 -0.3062  0.2369
  887YOPE   C4A12462   2.664  10.677   6.524  0.3582 -0.1166 -0.2178
  887YOPE   C1B12463   2.256  10.124   6.466  0.2302  0.4960 -0.1987
  887YOPE   C2B12464   2.428  10.331   6.831 -0.5676 -0.0205 -0.1090
  887YOPE   D3B12465   2.632  10.370   7.146 -0.0743 -0.0353 -0.3124
  887YOPE   C4B12466   2.807  10.152   7.578  0.0350  0.1032 -0.1747
  888YOPE   NH312467   5.687  11.288   5.164  0.0182  0.1009 -0.0431
  888YOPE   PO412468   5.887  10.901   5.280  0.1271  0.3015  0.0114
  888YOPE   GL112469   5.835  11.058   5.621 -0.2775 -0.2289  0.1214
  888YOPE   GL212470   5.971  11.379   5.648  0.0587 -0.2532  0.0358
  888YOPE   C1A12471   5.977  11.144   6.103  0.0681 -0.1304 -0.0883
  888YOPE   D2A12472   5.822  11.233   6.522  0.1937 -0.0174  0.1604
  888YOPE   C3A12473   5.820  10.899   6.712 -0.2899  0.1894  0.1606
  888YOPE   C4A12474   5.752  10.613   6.966  0.1943  0.3282  0.1832
  888YOPE   C1B12475   6.001  11.727   5.755  0.1182  0.2049 -0.3628
  888YOPE   C2B12476   6.256  12.030   5.809  0.0478  0.0923 -0.2195
  888YOPE   D3B12477   6.380  12.386   5.949 -0.0850 -0.2740 -0.4935
  888YOPE   C4B12478   6.490  12.790   6.098  0.0665 -0.1450 -0.0523
  889YOPE   NH312479   3.409   2.008   5.154  0.0958 -0.0582  0.1112
  889YOPE   PO412480   3.870   1.993   5.291 -0.2446 -0.0667 -0.0511
  889YOPE   GL112481   3.592   2.113   5.585 -0.0826 -0.0080  0.1372
  889YOPE   GL212482   3.404   1.781   5.575  0.0298  0.2902  0.0446
  889YOPE   C1A12483   3.561   1.993   6.005  0.2327 -0.2639  0.0829
  889YOPE   D2A12484   3.296   2.202   6.311 -0.1282 -0.1994 -0.0734
  889YOPE   C3A12485   3.309   2.579   6.489  0.1807 -0.0534  0.2823
  889YOPE   C4A12486   3.172   2.839   6.737  0.0871  0.2614 -0.0619
  889YOPE   C1B12487   3.189   1.637   5.941  0.3354  0.1137  0.1258
  889YOPE   C2B12488   3.106   1.747   6.256 -0.3446  0.0433 -0.2421
  889YOPE   D3B12489   3.032   1.611   6.746 -0.1854 -0.4548 -0.1783
  889YOPE   C4B12490   3.158   1.836   7.170  0.0568  0.3346  0.1775
  890YOPE   NH312491   4.819   1.169   5.645 -0.1113 -0.2429  0.0852
  890YOPE   PO412492   4.527   1.355   5.547  0.0896  0.2766  0.1270
  890YOPE   GL112493   4.537   1.633   5.897  0.0334  0.0105 -0.2337
  890YOPE   GL212494   4.781   1.613   6.116 -0.1553  0.0114 -0.0754
  890YOPE   C1A12495   4.144   1.816   6.191 -0.1441  0.3137  0.1946
  890YOPE   D2A12496   3.819   1.922   6.569  0.0077  0.0823 -0.0000
  890YOPE   C3A12497   3.447   1.974   6.747  0.1111  0.0093  0.3545
  890YOPE   C4A12498   3.214   2.308   6.920  0.0460 -0.0500  0.1630
  890YOPE   C1B12499   4.554   1.580   6.430  0.0178 -0.0708  0.0536
  890YOPE   C2B12500   4.347   1.968   6.590 -0.0868  0.1652 -0.1677
  890YOPE   D3B12501   4.119   2.084   6.969  0.1970 -0.3516 -0.3333
  890YOPE   C4B12502   4.187   2.261   7.347  0.0372  0.0641 -0.2155
  891YOPE   NH312503   0.567  10.369   5.616  0.1369  0.0817 -0.0836
  891YOPE   PO412504   0.099  10.429   5.467 -0.2316 -0.2231 -0.2367
  891YOPE   GL112505   0.147  10.513   5.891  0.2568  0.0492  0.2408
  891YOPE   GL212506   0.427  10.756   5.873 -0.2507 -0.1024  0.0107
  891YOPE   C1A12507  -0.042  10.337   6.288 -0.0072 -0.0510  0.0796
  891YOPE   D2A12508   0.039  10.310   6.783 -0.0102  0.1109  0.0776
  891YOPE   C3A12509   0.293  10.044   7.090  0.1541  0.1145  0.0428
  891YOPE   C4A12510   0.330   9.867   7.564 -0.0486  0.1432 -0.1490
  891YOPE   C1B12511   0.252  10.757   6.270  0.1056  0.1545 -0.0138
  891YOPE   C2B12512   0.231  10.815   6.758  0.1604 -0.1475  0.1713
  891YOPE   D3B12513   0.381  10.928   7.136 -0.2792 -0.1308 -0.0941
  891YOPE   C4B12514   0.374  10.955   7.662  0.1732  0.0310 -0.2874
  892YOPE   NH312515   7.882  11.795   5.561  0.0229  0.0636 -0.0871
  892YOPE   PO412516   8.320  11.889   5.545  0.1508 -0.0520 -0.0546
  892YOPE   GL112517   8.213  11.990   5.904  0.0275  0.1477 -0.1463
  892YOPE   GL212518   8.128  11.745   5.981 -0.1718 -0.0354  0.2990
  892YOPE   C1A12519   8.227  12.291   6.272 -0.3499  0.3089 -0.1842
  892YOPE   D2A12520   8.154  12.139   6.665 -0.3358  0.1571  0.1257
  892YOPE   C3A12521   8.501  12.382   6.928  0.4741 -0.1954  0.0302
  892YOPE   C4A12522   8.590  12.937   7.030  0.0406 -0.1670  0.0128
  892YOPE   C1B12523   8.378  11.619   6.411  0.0852 -0.3188 -0.1661
  892YOPE   C2B12524   8.596  11.365   6.774  0.4163 -0.5291 -0.0680
  892YOPE   D3B12525   8.810  11.125   7.057 -0.1868 -0.0477 -0.0092
  892YOPE   C4B12526   8.886  10.857   7.468 -0.2944  0.0078 -0.0763
  893YOPE   NH312527  15.947  10.911   5.496  0.2224 -0.1662 -0.1401
  893YOPE   PO412528  16.083  11.360   5.616  0.1590 -0.0689  0.1252
  893YOPE   GL112529  16.246  11.225   5.932 -0.0862  0.0094 -0.0618
  893YOPE   GL212530  16.168  10.968   6.085  0.0714  0.0769  0.1550
  893YOPE   C1A12531  16.613  11.349   6.157  0.2751  0.4794  0.2870
  893YOPE   D2A12532  16.918  11.259   6.459 -0.0620  0.1118 -0.1465
  893YOPE   C3A12533  17.270  11.435   6.689 -0.0610  0.0939  0.0368
  893YOPE   C4A12534  17.543  11.652   7.019 -0.1053 -0.0976  0.4024
  893YOPE   C1B12535  16.368  11.033   6.471 -0.1030 -0.1429  0.1401
  893YOPE   C2B12536  16.505  11.090   6.777  0.0863 -0.2384 -0.0279
  893YOPE   D3B12537  16.578  10.925   7.097 -0.0903  0.1682 -0.0131
  893YOPE   C4B12538  16.690  10.474   7.346 -0.1017  0.0831 -0.0538
  894YOPE   NH312539   3.824  12.620   5.273  0.2803  0.2203  0.1820
  894YOPE   PO412540   4.256  12.662   5.534  0.0395 -0.1431  0.2622
  894YOPE   GL112541   4.336  12.960   5.802 -0.1989 -0.2800 -0.0958
  894YOPE   GL212542   4.550  13.153   5.739 -0.0093 -0.0462  0.0441
  894YOPE   C1A12543   4.055  12.945   6.163  0.1679  0.2012  0.1299
  894YOPE   D2A12544   3.807  13.247   6.489 -0.2126  0.2058 -0.3981
  894YOPE   C3A12545   3.693  13.203   6.873  0.3431 -0.0016  0.2812
  894YOPE   C4A12546   3.459  13.107   7.197  0.3901  0.4180  0.0296
  894YOPE   C1B12547   4.527  13.043   6.251 -0.3417 -0.0164  0.1148
  894YOPE   C2B12548   4.648  12.970   6.646 -0.1069  0.0980 -0.1979
  894YOPE   D3B12549   4.626  13.066   7.084 -0.0983 -0.0916  0.3093
  894YOPE   C4B12550   4.628  12.807   7.461 -0.1715 -0.2990 -0.0271
  895YOPE   NH312551   4.096   3.452   5.373  0.4615  0.0323 -0.2325
  895YOPE   PO412552   4.527   3.222   5.552 -0.0125 -0.0095 -0.3208
  895YOPE   GL112553   4.804   3.089   5.882  0.4727  0.1781  0.0454
  895YOPE   GL212554   4.882   2.835   5.851 -0.1470 -0.1308 -0.0090
  895YOPE   C1A12555   4.937   3.283   6.233 -0.1342 -0.0020  0.0153
  895YOPE   D2A12556   4.861   3.564   6.584  0.1464 -0.2463  0.1151
  895YOPE   C3A12557   5.053   3.268   6.841  0.2076 -0.2921 -0.0876
  895YOPE   C4A12558   5.052   3.143   7.203 -0.1186  0.0343  0.0992
  895YOPE   C1B12559   4.791   2.788   6.246  0.0139 -0.0206  0.0695
  895YOPE   C2B12560   4.798   2.867   6.677  0.1327  0.0335 -0.0221
  895YOPE   D3B12561   4.761   2.735   7.157  0.0232  0.2779 -0.3779
  895YOPE   C4B12562   5.039   2.699   7.551 -0.0730 -0.0657  0.2807
  896YOPE   NH312563  14.398  16.402   5.068  0.0541  0.1277  0.1322
  896YOPE   PO412564  14.081  16.193   5.334 -0.0721 -0.1848  0.0428
  896YOPE   GL112565  14.101  16.115   5.765 -0.0721 -0.0263  0.5854
  896YOPE   GL212566  13.849  16.241   5.933 -0.0677 -0.1882 -0.0703
  896YOPE   C1A12567  14.274  15.819   6.085  0.1988  0.2529  0.1903
  896YOPE   D2A12568  14.598  15.758   6.449  0.0888 -0.0390 -0.0750
  896YOPE   C3A12569  14.726  15.292   6.429  0.2099  0.0094 -0.2983
  896YOPE   C4A12570  14.918  14.971   6.592 -0.0225  0.3325 -0.1247
  896YOPE   C1B12571  13.929  16.147   6.340 -0.0924  0.0553  0.1028
  896YOPE   C2B12572  14.299  16.122   6.624 -0.0966 -0.1591 -0.1405
  896YOPE   D3B12573  14.420  15.825   6.972 -0.0670 -0.0699  0.5073
  896YOPE   C4B12574  14.425  15.644   7.286 -0.0028  0.2127  0.0567
  897YOPE   NH312575   5.690   2.744   5.267  0.2942  0.1750 -0.1969
  897YOPE   PO412576   6.031   2.491   5.183  0.1098 -0.5612 -0.0999
  897YOPE   GL112577   6.092   2.738   5.569 -0.1483  0.0220  0.1737
  897YOPE   GL212578   6.289   3.027   5.589 -0.0838 -0.0369  0.1710
  897YOPE   C1A12579   6.086   2.595   6.016  0.0317  0.1429  0.0048
  897YOPE   D2A12580   6.175   2.879   6.303  0.0319  0.1660 -0.0189
  897YOPE   C3A12581   6.614   2.898   6.447  0.4242  0.0128 -0.1364
  897YOPE   C4A12582   6.524   2.871   6.823  0.0832 -0.1341 -0.0930
  897YOPE   C1B12583   6.216   3.218   5.908  0.1623  0.0680  0.2306
  897YOPE   C2B12584   6.346   3.409   6.271  0.0423 -0.0199  0.0375
  897YOPE   D3B12585   6.292   3.247   6.610 -0.1296  0.1405 -0.0414
  897YOPE   C4B12586   6.205   3.206   7.035  0.3091  0.1771  0.2146
  898YOPE   NH312587  11.488  14.412   5.509 -0.0658  0.3384  0.2476
  898YOPE   PO412588  11.099  14.196   5.644 -0.1619  0.1688 -0.1734
  898YOPE   GL112589  11.012  14.460   6.071  0.2089 -0.1471  0.2974
  898YOPE   GL212590  10.734  14.617   5.965  0.0597  0.0910  0.0699
  898YOPE   C1A12591  10.921  14.303   6.479 -0.3624 -0.3244  0.0010
  898YOPE   D2A12592  10.818  14.380   6.906  0.0998 -0.0069 -0.0719
  898YOPE   C3A12593  10.996  14.514   7.346 -0.1461 -0.0589  0.1863
  898YOPE   C4A12594  10.871  14.806   7.635  0.0124  0.0452  0.1337
  898YOPE   C1B12595  10.622  14.735   6.367 -0.1462  0.2225  0.0604
  898YOPE   C2B12596  10.310  14.622   6.713 -0.4084 -0.0274 -0.0458
  898YOPE   D3B12597  10.272  14.506   7.177 -0.0983  0.0309  0.0664
  898YOPE   C4B12598  10.154  14.024   7.385  0.1784 -0.3559 -0.0070
  899YOPE   NH312599   3.950   9.466   5.624  0.0499  0.1105  0.0268
  899YOPE   PO412600   4.084   9.964   5.334 -0.2847 -0.2137 -0.2871
  899YOPE   GL112601   4.083  10.040   5.760 -0.1874 -0.5209  0.3427
  899YOPE   GL212602   4.110  10.364   5.835 -0.2495 -0.0462  0.1640
  899YOPE   C1A12603   3.853   9.952   6.086  0.1144 -0.1865  0.2923
  899YOPE   D2A12604   3.707   9.643   6.371  0.0320 -0.1582 -0.2445
  899YOPE   C3A12605   3.464   9.859   6.736  0.2446 -0.0517 -0.4005
  899YOPE   C4A12606   3.377  10.278   6.986  0.2061  0.0289  0.0654
  899YOPE   C1B12607   3.885  10.472   6.146  0.1513  0.3100  0.0976
  899YOPE   C2B12608   3.467  10.364   6.213 -0.1969 -0.1770  0.3481
  899YOPE   D3B12609   3.332   9.962   6.162 -0.1145 -0.1217 -0.1490
  899YOPE   C4B12610   3.076   9.593   6.129 -0.0194  0.1305  0.1110
  900YOPE   NH312611   5.679   3.474   5.107 -0.0195  0.2490  0.2440
  900YOPE   PO412612   5.427   3.165   5.398  0.1896 -0.0642  0.2832
  900YOPE   GL112613   5.396   3.161   5.793  0.1330  0.0420 -0.1306
  900YOPE   GL212614   5.351   3.589   5.922  0.0340  0.3013 -0.1870
  900YOPE   C1A12615   5.413   2.948   6.119  0.1861  0.0491  0.3049
  900YOPE   D2A12616   5.324   3.021   6.540  0.0584 -0.1546  0.0415
  900YOPE   C3A12617   5.266   2.780   6.882  0.2982  0.3195  0.0163
  900YOPE   C4A12618   5.276   2.418   7.180 -0.1243  0.0457 -0.2412
  900YOPE   C1B12619   5.380   3.477   6.373  0.0603  0.0422  0.2439
  900YOPE   C2B12620   5.483   3.570   6.648  0.1257  0.2509  0.2101
  900YOPE   D3B12621   5.315   3.562   7.096 -0.3596 -0.4460 -0.2675
  900YOPE   C4B12622   4.962   3.585   7.379  0.0836 -0.0353 -0.0700
  901YOPE   NH312623   9.123   1.033   5.524 -0.0930  0.1298  0.2051
  901YOPE   PO412624   9.213   0.570   5.537  0.0765 -0.3601 -0.0941
  901YOPE   GL112625   9.334   0.661   5.879  0.1119 -0.0275  0.1503
  901YOPE   GL212626   9.546   0.986   5.803  0.0442 -0.0245 -0.1857
  901YOPE   C1A12627   9.489   0.564   6.242 -0.2955  0.1481  0.0817
  901YOPE   D2A12628   9.574   0.572   6.668 -0.0496 -0.2838 -0.4122
  901YOPE   C3A12629   9.451   0.811   7.060  0.2729 -0.1751  0.0445
  901YOPE   C4A12630   9.147   1.073   7.248  0.0600 -0.1691 -0.2248
  901YOPE   C1B12631   9.765   0.969   6.133 -0.1521  0.3016  0.2209
  901YOPE   C2B12632  10.058   0.769   6.328  0.1080 -0.1569  0.1265
  901YOPE   D3B12633  10.324   0.521   6.463 -0.0901  0.0127 -0.1811
  901YOPE   C4B12634  10.589   0.495   6.817  0.0775 -0.0759 -0.2756
  902YOPE   NH312635  14.792   8.159   6.129  0.2092  0.1725  0.2651
  902YOPE   PO412636  14.451   8.028   5.847  0.0960 -0.2219  0.0249
  902YOPE   GL112637  14.284   8.163   6.216  0.1880  0.3029 -0.4038
  902YOPE   GL212638  13.951   8.137   6.240 -0.4196 -0.0403 -0.2206
  902YOPE   C1A12639  14.244   8.204   6.703 -0.1828 -0.0207  0.2021
  902YOPE   D2A12640  14.202   8.097   7.073  0.1062  0.0943  0.2712
  902YOPE   C3A12641  14.019   8.157   7.486  0.0145 -0.4718  0.2742
  902YOPE   C4A12642  13.650   8.081   7.735  0.0633  0.1091  0.1258
  902YOPE   C1B12643  14.093   7.748   6.500  0.0232  0.0994  0.1292
  902YOPE   C2B12644  14.142   7.627   6.916 -0.1281  0.0048 -0.3093
  902YOPE   D3B12645  14.006   7.595   7.350  0.1878 -0.1628  0.2616
  902YOPE   C4B12646  13.998   7.662   7.728  0.3604 -0.2780  0.1208
  903YOPE   NH312647   0.223  11.637   5.297  0.0901  0.2831  0.2133
  903YOPE   PO412648   0.589  11.617   5.507 -0.1396  0.0793 -0.1550
  903YOPE   GL112649   0.508  11.757   5.962 -0.2014 -0.1660 -0.2461
  903YOPE   GL212650   0.867  11.734   5.908 -0.0456  0.4282 -0.1303
  903YOPE   C1A12651   0.418  12.104   6.253 -0.2000 -0.3420  0.0404
  903YOPE   D2A12652   0.406  12.517   6.379 -0.1529 -0.2380 -0.3307
  903YOPE   C3A12653   0.462  12.602   6.782  0.0322 -0.2740 -0.3394
  903YOPE   C4A12654   0.397  12.480   7.171 -0.3357  0.3307  0.1500
  903YOPE   C1B12655   0.793  11.847   6.345  0.0995 -0.0471 -0.2023
  903YOPE   C2B12656   0.903  11.871   6.767  0.0087 -0.0819 -0.1999
  903YOPE   D3B12657   0.740  11.924   7.211 -0.0754  0.0295 -0.1149
  903YOPE   C4B12658   0.751  12.240   7.452 -0.5090 -0.0687 -0.0450
  904YOPE   NH312659   8.252   1.132   5.278  0.0112 -0.3099  0.0574
  904YOPE   PO412660   8.184   1.584   5.282  0.1034 -0.4167  0.0700
  904YOPE   GL112661   8.108   1.353   5.701  0.2504 -0.0314  0.1493
  904YOPE   GL212662   8.026   1.614   5.915 -0.0760 -0.1121 -0.2463
  904YOPE   C1A12663   7.800   1.126   5.986 -0.4744 -0.3176  0.2428
  904YOPE   D2A12664   7.649   0.867   6.262 -0.0651  0.1342 -0.0815
  904YOPE   C3A12665   7.453   1.156   6.455 -0.0465 -0.1813  0.1091
  904YOPE   C4A12666   7.306   1.566   6.462  0.1133 -0.2249 -0.0440
  904YOPE   C1B12667   7.872   1.604   6.322  0.1107  0.0946 -0.1546
  904YOPE   C2B12668   7.790   1.689   6.745  0.1510  0.0965  0.1770
  904YOPE   D3B12669   7.776   1.724   7.160  0.1324  0.2656  0.1346
  904YOPE   C4B12670   7.875   1.492   7.501  0.0792  0.3498  0.4149
  905YOPE   NH312671   9.028   1.664   5.939 -0.2297  0.1292  0.0553
  905YOPE   PO412672   9.209   1.318   5.925 -0.2016  0.0473 -0.1644
  905YOPE   GL112673   9.104   1.266   6.410 -0.1156 -0.1413  0.0584
  905YOPE   GL212674   9.175   0.942   6.382  0.2140 -0.4844 -0.1063
  905YOPE   C1A12675   8.725   1.372   6.607 -0.0481  0.0180  0.3032
  905YOPE   D2A12676   8.387   1.191   6.763  0.1524  0.0666 -0.1900
  905YOPE   C3A12677   8.430   1.208   7.113 -0.1104  0.0787  0.1300
  905YOPE   C4A12678   8.821   1.405   7.304  0.0945  0.2225  0.1201
  905YOPE   C1B12679   9.111   0.580   6.540 -0.1839  0.1500  0.3869
  905YOPE   C2B12680   9.163   0.364   6.980 -0.5246 -0.0291  0.0572
  905YOPE   D3B12681   9.088   0.583   7.272  0.0634 -0.0549 -0.1109
  905YOPE   C4B12682   8.775   0.923   7.532  0.2584  0.3603  0.0752
  906YOPE   NH312683   5.586  18.490   4.961 -0.2664  0.0808  0.0708
  906YOPE   PO412684   5.555  18.171   5.203 -0.1141  0.0678  0.0566
  906YOPE   GL112685   5.801  18.180   5.544 -0.0100 -0.1144  0.2756
  906YOPE   GL212686   5.580  18.446   5.610  0.1134 -0.1329 -0.0057
  906YOPE   C1A12687   6.164  18.263   5.713  0.1459 -0.0640  0.1621
  906YOPE   D2A12688   6.385  18.533   6.073 -0.0560 -0.3916 -0.2827
  906YOPE   C3A12689   6.586  18.494   6.421 -0.0566 -0.1402 -0.0833
  906YOPE   C4A12690   6.535  18.491   6.912  0.2593 -0.0121 -0.1224
  906YOPE   C1B12691   5.782  18.682   5.874 -0.1152 -0.2915 -0.2181
  906YOPE   C2B12692   5.683  19.039   6.080 -0.1706 -0.1796 -0.0239
  906YOPE   D3B12693   5.932  19.181   6.553  0.2182  0.3268  0.2329
  906YOPE   C4B12694   6.111  19.022   6.976 -0.2758 -0.0842 -0.2240
  907YOPE   NH312695   6.796  12.852   5.261  0.0817 -0.0149  0.1191
  907YOPE   PO412696   7.095  12.610   5.115 -0.0154  0.1236 -0.1145
  907YOPE   GL112697   7.044  12.484   5.536  0.0179 -0.2029 -0.1531
  907YOPE   GL212698   6.812  12.620   5.799  0.1372 -0.1580 -0.2706
  907YOPE   C1A12699   6.997  12.145   5.961  0.0586  0.1723  0.0110
  907YOPE   D2A12700   6.866  12.437   6.328  0.0826 -0.0918 -0.1909
  907YOPE   C3A12701   6.831  12.230   6.725 -0.0759 -0.0076  0.1101
  907YOPE   C4A12702   7.052  12.188   7.152  0.2288 -0.1487 -0.1910
  907YOPE   C1B12703   7.011  12.822   6.129 -0.2670  0.2360 -0.2239
  907YOPE   C2B12704   7.201  12.688   6.597  0.3161 -0.0691  0.0904
  907YOPE   D3B12705   7.349  12.357   6.782 -0.0510  0.2297  0.0272
  907YOPE   C4B12706   7.485  12.007   6.921  0.2770 -0.1027 -0.0561
  908YOPE   NH312707  15.740  11.696   5.525 -0.0269 -0.1995 -0.0905
  908YOPE   PO412708  16.148  11.952   5.708 -0.1565 -0.0841 -0.1160
  908YOPE   GL112709  15.934  11.823   6.065  0.0556  0.2278 -0.0949
  908YOPE   GL212710  15.919  11.590   6.075  0.0169 -0.0919  0.0363
  908YOPE   C1A12711  15.867  11.909   6.519 -0.1470 -0.2172 -0.2898
  908YOPE   D2A12712  15.839  11.946   6.896 -0.0876 -0.3040 -0.0898
  908YOPE   C3A12713  15.348  11.847   7.145 -0.5343 -0.1694 -0.3451
  908YOPE   C4A12714  15.078  11.808   7.514 -0.3537  0.1646 -0.3800
  908YOPE   C1B12715  15.814  11.258   6.401 -0.0441  0.1656  0.0707
  908YOPE   C2B12716  15.989  11.060   6.768  0.0450  0.0754 -0.0355
  908YOPE   D3B12717  16.105  11.041   7.121 -0.2299  0.3841  0.4182
  908YOPE   C4B12718  15.847  10.763   7.375  0.1628  0.4024 -0.2980
  909YOPE   NH312719   8.770   8.087   5.799  0.1420  0.2551 -0.2252
  909YOPE   PO412720   8.312   8.124   5.720  0.0056  0.0855  0.3241
  909YOPE   GL112721   7.980   8.203   6.053  0.1476 -0.0283  0.4260
  909YOPE   GL212722   7.949   7.936   6.195  0.1423  0.4316 -0.2202
  909YOPE   C1A12723   7.893   8.510   6.359  0.0658 -0.0678 -0.0188
  909YOPE   D2A12724   7.809   8.619   6.770  0.0366 -0.3761 -0.1244
  909YOPE   C3A12725   7.884   8.411   7.233 -0.2608 -0.1703 -0.1053
  909YOPE   C4A12726   7.873   8.267   7.679 -0.2338  0.1824  0.1225
  909YOPE   C1B12727   7.914   8.031   6.655  0.0847  0.1309 -0.3231
  909YOPE   C2B12728   8.010   7.785   6.989  0.1640 -0.1673  0.0183
  909YOPE   D3B12729   8.115   7.878   7.324 -0.0097 -0.0810  0.4615
  909YOPE   C4B12730   8.057   7.823   7.734 -0.4835 -0.1418 -0.0273
  910YOPE   NH312731   7.468  12.930   5.056 -0.0689  0.2947  0.1164
  910YOPE   PO412732   7.195  13.197   5.292  0.0021  0.0613  0.2462
  910YOPE   GL112733   7.363  13.014   5.656 -0.3913  0.3345  0.3760
  910YOPE   GL212734   7.453  12.753   5.549 -0.0962 -0.2066  0.2630
  910YOPE   C1A12735   7.512  12.926   6.101  0.1209 -0.0869  0.1939
  910YOPE   D2A12736   7.768  13.197   6.365  0.0225  0.1043 -0.1745
  910YOPE   C3A12737   7.592  12.963   6.783  0.0977  0.1446  0.1776
  910YOPE   C4A12738   7.841  12.938   7.171  0.0165  0.0896  0.5036
  910YOPE   C1B12739   7.371  12.533   5.876 -0.2514 -0.1309 -0.1573
  910YOPE   C2B12740   7.470  12.278   6.291  0.0578 -0.0736 -0.2764
  910YOPE   D3B12741   7.780  11.953   6.285 -0.1018  0.0852  0.0092
  910YOPE   C4B12742   7.848  11.727   6.687  0.1609 -0.1015  0.1095
  911YOPE   NH312743  18.263   2.948   5.544  0.3629 -0.0904 -0.0845
  911YOPE   PO412744  18.342   2.474   5.516 -0.0417 -0.2100 -0.0799
  911YOPE   GL112745  18.155   2.488   5.932 -0.0222  0.0914 -0.2319
  911YOPE   GL212746  18.039   2.248   6.052 -0.2653  0.1437 -0.3062
  911YOPE   C1A12747  18.184   2.602   6.354  0.2198 -0.0328 -0.2292
  911YOPE   D2A12748  18.127   2.568   6.859  0.3829 -0.2097 -0.0091
  911YOPE   C3A12749  18.357   2.773   7.174  0.2694 -0.1541 -0.0093
  911YOPE   C4A12750  18.337   3.052   7.562  0.2249 -0.0813 -0.0726
  911YOPE   C1B12751  18.117   2.153   6.464 -0.2407 -0.4207 -0.5522
  911YOPE   C2B12752  17.910   2.054   6.802 -0.0167 -0.2042 -0.1823
  911YOPE   D3B12753  17.804   2.031   7.164  0.0600  0.2516 -0.1489
  911YOPE   C4B12754  17.940   2.346   7.404  0.1266  0.4606 -0.1629
  912YOPE   NH312755   6.214   4.905   5.562  0.2348  0.4323  0.2091
  912YOPE   PO412756   6.508   4.606   5.619 -0.1657 -0.3408  0.2120
  912YOPE   GL112757   6.617   4.520   6.011  0.0179  0.0434 -0.1802
  912YOPE   GL212758   6.947   4.493   5.945 -0.1270 -0.1626 -0.3208
  912YOPE   C1A12759   6.697   4.673   6.418 -0.0865 -0.2725 -0.0376
  912YOPE   D2A12760   7.022   4.744   6.772  0.0933 -0.0029  0.0108
  912YOPE   C3A12761   6.873   4.700   7.161 -0.1601  0.0841  0.0353
  912YOPE   C4A12762   6.953   4.264   7.504 -0.0354  0.1403 -0.1838
  912YOPE   C1B12763   6.925   4.945   6.042 -0.2078  0.1798 -0.2143
  912YOPE   C2B12764   6.788   5.251   6.338  0.0717 -0.0763  0.0096
  912YOPE   D3B12765   6.717   5.124   6.813  0.0549 -0.0560 -0.2875
  912YOPE   C4B12766   6.387   5.195   7.161  0.0420  0.0235  0.1197
  913YOPE   NH312767   1.663  13.053   4.966  0.0422 -0.0942  0.0186
  913YOPE   PO412768   1.488  13.365   4.960 -0.0518 -0.2193 -0.0919
  913YOPE   GL112769   1.252  13.134   5.307  0.2097  0.1358  0.1044
  913YOPE   GL212770   1.476  12.950   5.423 -0.0795 -0.0344 -0.4341
  913YOPE   C1A12771   0.990  13.358   5.574 -0.3808  0.2385  0.0170
  913YOPE   D2A12772   0.696  13.780   5.659  0.0328 -0.1830 -0.1111
  913YOPE   C3A12773   0.664  14.062   5.990 -0.0071 -0.1013 -0.1158
  913YOPE   C4A12774   0.803  14.360   5.899 -0.0623  0.1113  0.1122
  913YOPE   C1B12775   1.660  13.100   5.839 -0.0264  0.2307  0.0353
  913YOPE   C2B12776   1.808  12.981   6.168  0.0468 -0.2194  0.0016
  913YOPE   D3B12777   2.125  12.793   6.454  0.1087 -0.1455 -0.0804
  913YOPE   C4B12778   2.170  12.950   6.936  0.0902  0.0640 -0.1321
  914YOPE   NH312779   5.679  12.735   5.081  0.1178 -0.0744 -0.1507
  914YOPE   PO412780   6.068  12.503   5.237  0.1303 -0.4148  0.0120
  914YOPE   GL112781   5.923  12.566   5.710 -0.0879 -0.1772  0.0836
  914YOPE   GL212782   5.512  12.629   5.731 -0.2193  0.0629 -0.1064
  914YOPE   C1A12783   5.905  12.394   6.163  0.1436  0.2339 -0.2908
  914YOPE   D2A12784   5.882  12.015   6.403  0.2029 -0.2459  0.0581
  914YOPE   C3A12785   5.778  12.099   6.857  0.1086 -0.0718  0.3803
  914YOPE   C4A12786   5.585  12.132   7.297 -0.0846 -0.0619  0.0439
  914YOPE   C1B12787   5.512  12.723   6.123 -0.2335 -0.0156  0.3502
  914YOPE   C2B12788   5.644  12.802   6.410 -0.2937  0.1446  0.2320
  914YOPE   D3B12789   5.838  12.603   6.691 -0.0834  0.1538 -0.3120
  914YOPE   C4B12790   5.877  12.612   7.199  0.0032 -0.1708 -0.3833
  915YOPE   NH312791  18.329  14.268   5.148 -0.0134 -0.1649  0.0285
  915YOPE   PO412792  18.657  13.994   5.189  0.1015 -0.0257  0.5407
  915YOPE   GL112793  18.788  13.841   5.532 -0.1457  0.0625  0.0127
  915YOPE   GL212794  19.045  14.043   5.620  0.1771  0.0246 -0.1075
  915YOPE   C1A12795  18.594  13.875   5.833 -0.4592 -0.1691 -0.2817
  915YOPE   D2A12796  18.672  14.030   6.256  0.0496 -0.7573  0.1315
  915YOPE   C3A12797  18.431  14.076   6.630  0.0448 -0.4134  0.0911
  915YOPE   C4A12798  18.474  14.247   7.000 -0.0593 -0.1949  0.0135
  915YOPE   C1B12799  19.004  14.291   6.034 -0.1723 -0.4174 -0.2260
  915YOPE   C2B12800  18.982  14.485   6.542 -0.2354  0.0384  0.1620
  915YOPE   D3B12801  18.928  14.426   6.932  0.1286 -0.0264 -0.2174
  915YOPE   C4B12802  18.711  14.498   7.354 -0.0819  0.2205  0.0362
  916YOPE   NH312803  18.110   1.288   5.430 -0.0075  0.1212  0.0479
  916YOPE   PO412804  18.547   1.239   5.666 -0.3826  0.2479 -0.0762
  916YOPE   GL112805  18.685   1.502   6.037  0.1167  0.1076 -0.2496
  916YOPE   GL212806  18.529   1.336   6.267 -0.0177  0.0677 -0.1630
  916YOPE   C1A12807  18.930   1.606   6.360  0.1812  0.1483 -0.1049
  916YOPE   D2A12808  19.150   1.679   6.807 -0.0988  0.0862 -0.0540
  916YOPE   C3A12809  19.224   1.258   7.035  0.1452 -0.3977 -0.2815
  916YOPE   C4A12810  19.076   0.888   7.266  0.1190 -0.0279 -0.1108
  916YOPE   C1B12811  18.519   0.968   6.561 -0.0523  0.2610  0.0137
  916YOPE   C2B12812  18.494   0.936   6.926  0.0913 -0.1434  0.0720
  916YOPE   D3B12813  18.301   0.991   7.273  0.3467  0.1956 -0.1170
  916YOPE   C4B12814  18.072   1.018   7.685 -0.1351  0.3439 -0.2751
  917YOPE   NH312815   5.008  11.489   5.234  0.2702 -0.0033 -0.0011
  917YOPE   PO412816   5.441  11.596   5.550 -0.2165  0.2846  0.5500
  917YOPE   GL112817   5.046  11.703   5.785 -0.0147 -0.0322  0.4000
  917YOPE   GL212818   4.952  11.993   5.755  0.0201 -0.0373 -0.1778
  917YOPE   C1A12819   5.106  11.623   6.153  0.0635 -0.1477 -0.1065
  917YOPE   D2A12820   5.346  11.375   6.414 -0.1871  0.1696  0.1617
  917YOPE   C3A12821   5.377  11.253   6.857  0.3430  0.0631  0.0992
  917YOPE   C4A12822   5.535  11.115   7.121 -0.3223 -0.0587  0.0291
  917YOPE   C1B12823   4.811  12.012   6.183 -0.1348  0.1279  0.2481
  917YOPE   C2B12824   4.410  12.025   6.461 -0.2514  0.0225 -0.1641
  917YOPE   D3B12825   4.132  12.058   6.923 -0.0017 -0.0054 -0.0447
  917YOPE   C4B12826   4.140  11.755   7.304 -0.0507  0.0023  0.2626
  918YOPE   NH312827   5.043  15.224   5.534  0.1811  0.3893 -0.3252
  918YOPE   PO412828   4.981  15.687   5.388 -0.3844  0.0999  0.0888
  918YOPE   GL112829   4.746  15.666   5.754  0.0988  0.4528  0.2803
  918YOPE   GL212830   4.781  15.478   5.934 -0.1796  0.2301 -0.1598
  918YOPE   C1A12831   4.622  15.846   6.238  0.1211 -0.3773 -0.0497
  918YOPE   D2A12832   4.415  15.952   6.630  0.0205  0.2600 -0.3175
  918YOPE   C3A12833   4.501  15.926   6.876  0.1022 -0.2084 -0.2706
  918YOPE   C4A12834   4.229  15.900   7.150  0.1629  0.0112  0.0605
  918YOPE   C1B12835   5.057  15.541   6.222  0.1797 -0.2590 -0.5284
  918YOPE   C2B12836   5.255  15.481   6.634  0.0082  0.0442 -0.2360
  918YOPE   D3B12837   5.344  15.243   7.002  0.2519  0.2141  0.1806
  918YOPE   C4B12838   5.487  14.938   7.260  0.0434 -0.2725 -0.0273
  919YOPE   NH312839  14.716  12.156   5.733 -0.0008 -0.0239  0.0760
  919YOPE   PO412840  14.408  12.143   5.427 -0.2449 -0.0842  0.0822
  919YOPE   GL112841  14.124  12.097   5.692  0.1614  0.1509  0.1144
  919YOPE   GL212842  14.104  12.446   5.826 -0.0195  0.0789 -0.2018
  919YOPE   C1A12843  14.039  11.894   6.185  0.1970 -0.2915 -0.2021
  919YOPE   D2A12844  13.995  11.747   6.601  0.0738 -0.0154  0.1471
  919YOPE   C3A12845  13.918  11.921   6.999  0.2184 -0.0093 -0.0391
  919YOPE   C4A12846  13.794  11.743   7.460  0.1619 -0.2125 -0.0911
  919YOPE   C1B12847  14.051  12.596   6.251  0.2263  0.1984 -0.0798
  919YOPE   C2B12848  14.035  12.296   6.624  0.1838  0.2523 -0.0725
  919YOPE   D3B12849  14.194  12.313   6.931  0.2372 -0.0208 -0.1039
  919YOPE   C4B12850  14.166  12.240   7.266  0.1949  0.1539  0.0023
  920YOPE   NH312851   1.417  16.984   5.419 -0.3424 -0.1552  0.1943
  920YOPE   PO412852   1.556  16.611   5.075  0.1107 -0.1286 -0.0476
  920YOPE   GL112853   1.889  16.667   5.406  0.1282 -0.0537  0.0401
  920YOPE   GL212854   2.046  16.323   5.613 -0.1771 -0.0194  0.0935
  920YOPE   C1A12855   1.665  16.649   5.934 -0.2730  0.3560  0.2698
  920YOPE   D2A12856   1.472  16.914   6.278  0.2950 -0.1206  0.1910
  920YOPE   C3A12857   1.636  16.853   6.648  0.2166  0.0531 -0.0191
  920YOPE   C4A12858   1.893  16.876   6.963 -0.1832  0.3806 -0.3858
  920YOPE   C1B12859   2.307  16.423   6.009  0.0422 -0.0077  0.0845
  920YOPE   C2B12860   2.477  16.188   6.341 -0.1555 -0.0854 -0.1306
  920YOPE   D3B12861   2.605  16.219   6.753  0.1716  0.1285  0.0372
  920YOPE   C4B12862   2.462  16.163   7.084  0.1033  0.1634 -0.1568
  921YOPE   NH312863  16.836   7.270   5.808  0.1700  0.2134 -0.1806
  921YOPE   PO412864  17.354   7.296   5.787 -0.0378  0.1280  0.0542
  921YOPE   GL112865  17.764   7.288   5.985 -0.0506  0.1322 -0.0667
  921YOPE   GL212866  17.959   7.029   5.938 -0.2078 -0.0644  0.1286
  921YOPE   C1A12867  17.932   7.444   6.458  0.2266 -0.2019  0.5407
  921YOPE   D2A12868  17.995   7.815   6.788 -0.2581 -0.1105  0.3088
  921YOPE   C3A12869  18.468   7.980   6.692  0.0701  0.0181  0.1327
  921YOPE   C4A12870  18.484   8.290   6.355  0.0011  0.0239 -0.1717
  921YOPE   C1B12871  17.696   6.852   6.418  0.0635 -0.2923 -0.2711
  921YOPE   C2B12872  17.756   6.778   6.887  0.0606 -0.3795 -0.1444
  921YOPE   D3B12873  17.658   7.055   7.274 -0.0224 -0.1354  0.0088
  921YOPE   C4B12874  17.473   7.258   7.586  0.0241 -0.0702 -0.0527
  922YOPE   NH312875   2.616  18.463   5.311  0.0362 -0.3413  0.3420
  922YOPE   PO412876   2.797  18.062   5.199 -0.0735 -0.0496  0.2235
  922YOPE   GL112877   2.884  18.126   5.635  0.0061 -0.1087 -0.0141
  922YOPE   GL212878   2.849  18.437   5.766 -0.0302  0.0865  0.1649
  922YOPE   C1A12879   2.766  18.022   6.081 -0.3779 -0.1043  0.0629
  922YOPE   D2A12880   2.561  18.008   6.456  0.0399 -0.1145  0.1437
  922YOPE   C3A12881   2.721  18.071   6.793 -0.1270  0.0772 -0.0993
  922YOPE   C4A12882   2.641  17.856   7.227 -0.3166  0.0572  0.1700
  922YOPE   C1B12883   2.929  18.501   6.159 -0.1624 -0.0141  0.4145
  922YOPE   C2B12884   3.074  18.303   6.481 -0.0812 -0.0087  0.0731
  922YOPE   D3B12885   3.174  18.384   6.797 -0.2062  0.0623 -0.3084
  922YOPE   C4B12886   2.928  18.551   7.095 -0.0985 -0.1814  0.2822
  923YOPE   NH312887   9.322   3.772   5.447 -0.2475  0.0697  0.1180
  923YOPE   PO412888   8.965   3.741   5.570 -0.0661  0.0785  0.1671
  923YOPE   GL112889   8.831   3.702   6.020 -0.0012  0.0704  0.2037
  923YOPE   GL212890   9.078   3.450   5.975  0.0370 -0.0017 -0.1383
  923YOPE   C1A12891   8.541   3.800   6.241 -0.5099 -0.2059 -0.1422
  923YOPE   D2A12892   8.362   4.051   6.449  0.1666  0.1751  0.1839
  923YOPE   C3A12893   8.578   4.288   6.701  0.1184  0.0727 -0.1680
  923YOPE   C4A12894   8.612   4.331   7.164 -0.1343 -0.0404 -0.4363
  923YOPE   C1B12895   9.001   3.530   6.555 -0.0950 -0.1874 -0.0645
  923YOPE   C2B12896   8.696   3.794   6.835 -0.1859 -0.0355  0.1159
  923YOPE   D3B12897   8.828   3.919   7.303 -0.0365 -0.0271 -0.1342
  923YOPE   C4B12898   8.613   3.717   7.712  0.0609  0.0298  0.1401
  924YOPE   NH312899  17.609  15.585   5.703  0.0867  0.1012  0.2726
  924YOPE   PO412900  17.868  15.314   5.414  0.0337 -0.1667  0.0836
  924YOPE   GL112901  18.033  15.094   5.831  0.1181 -0.4093  0.2807
  924YOPE   GL212902  18.033  15.482   5.957  0.0366 -0.3161  0.1600
  924YOPE   C1A12903  18.186  14.984   6.145 -0.1604  0.3122  0.0527
  924YOPE   D2A12904  18.428  15.115   6.244  0.0728 -0.0253 -0.2698
  924YOPE   C3A12905  18.746  14.922   6.499  0.2771 -0.1040  0.0415
  924YOPE   C4A12906  18.927  14.916   7.009  0.0937  0.1966 -0.3612
  924YOPE   C1B12907  17.855  15.278   6.358 -0.1556  0.0085  0.0976
  924YOPE   C2B12908  17.856  15.037   6.632 -0.3757 -0.2599  0.2482
  924YOPE   D3B12909  18.052  15.001   6.981 -0.1647  0.2715 -0.2851
  924YOPE   C4B12910  17.961  14.914   7.445  0.0370 -0.0307  0.0788
  925YOPE   NH312911   1.802   5.815   5.648  0.2646 -0.1079  0.1528
  925YOPE   PO412912   2.285   5.566   5.645  0.2652  0.2377  0.1597
  925YOPE   GL112913   2.041   5.434   5.995 -0.1886  0.2295  0.0231
  925YOPE   GL212914   1.723   5.486   6.189 -0.0198  0.0818 -0.0763
  925YOPE   C1A12915   2.177   5.280   6.336  0.0939  0.0601  0.2198
  925YOPE   D2A12916   2.401   4.799   6.331  0.1859 -0.2222  0.3724
  925YOPE   C3A12917   2.601   4.744   6.766  0.0550 -0.3466 -0.1411
  925YOPE   C4A12918   2.742   4.693   7.160  0.0505 -0.0521  0.1973
  925YOPE   C1B12919   1.755   5.387   6.600 -0.0585  0.0610  0.1452
  925YOPE   C2B12920   1.760   5.095   6.951 -0.0981  0.1724  0.0832
  925YOPE   D3B12921   1.744   5.044   7.399  0.0036  0.0407 -0.1143
  925YOPE   C4B12922   1.554   5.222   7.827 -0.3194 -0.2942  0.0207
  926YOPE   NH312923   5.638   7.751   5.270  0.1196  0.1028  0.0450
  926YOPE   PO412924   5.194   7.569   5.267 -0.1308 -0.0410  0.1774
  926YOPE   GL112925   4.977   7.798   5.466  0.3595  0.0802 -0.5492
  926YOPE   GL212926   4.645   7.530   5.534 -0.0866 -0.2565  0.1995
  926YOPE   C1A12927   4.971   8.128   5.737  0.0094  0.1378  0.1557
  926YOPE   D2A12928   4.946   8.496   6.142  0.0164  0.0550  0.4446
  926YOPE   C3A12929   4.877   8.368   6.585  0.1433 -0.1432  0.0217
  926YOPE   C4A12930   5.035   7.969   6.741  0.2727  0.1215  0.1504
  926YOPE   C1B12931   4.934   7.427   5.962  0.1933 -0.2329 -0.2869
  926YOPE   C2B12932   4.880   7.508   6.437 -0.3344 -0.0395 -0.0575
  926YOPE   D3B12933   4.911   7.453   6.939  0.0911 -0.0521  0.0240
  926YOPE   C4B12934   4.817   7.322   7.304 -0.1855  0.0646  0.0358
  927YOPE   NH312935   7.435  14.096   5.522  0.1746 -0.0258  0.0194
  927YOPE   PO412936   7.874  14.121   5.444 -0.1383  0.3655 -0.0429
  927YOPE   GL112937   7.946  13.931   5.831 -0.1772  0.1767  0.0201
  927YOPE   GL212938   7.663  13.847   5.938 -0.1576  0.1267 -0.4341
  927YOPE   C1A12939   8.173  13.996   6.165 -0.1435 -0.0166  0.2481
  927YOPE   D2A12940   8.084  13.936   6.610  0.0960 -0.1396 -0.0594
  927YOPE   C3A12941   8.002  13.495   6.748  0.1414  0.1055 -0.1635
  927YOPE   C4A12942   8.140  13.112   6.691  0.0498 -0.0275  0.1022
  927YOPE   C1B12943   7.743  13.673   6.296 -0.0743 -0.5108  0.1024
  927YOPE   C2B12944   7.557  13.716   6.647  0.1888  0.0512 -0.0736
  927YOPE   D3B12945   7.816  13.847   7.079 -0.0027 -0.2814 -0.0725
  927YOPE   C4B12946   7.976  14.143   7.067  0.2833 -0.1784  0.2440
  928YOPE   NH312947   6.888   2.817   5.369 -0.0491 -0.1805  0.0545
  928YOPE   PO412948   6.835   2.386   5.463  0.0709  0.5052  0.3093
  928YOPE   GL112949   6.810   2.213   5.907 -0.2944 -0.1615 -0.0829
  928YOPE   GL212950   6.436   2.271   6.116 -0.2863  0.2997  0.4170
  928YOPE   C1A12951   6.936   2.414   6.228  0.2205 -0.0725  0.0636
  928YOPE   D2A12952   6.822   2.397   6.675 -0.0140  0.1386 -0.1466
  928YOPE   C3A12953   6.936   2.693   6.778 -0.1654 -0.3366  0.2378
  928YOPE   C4A12954   7.059   2.815   7.164  0.5289 -0.0205 -0.0021
  928YOPE   C1B12955   6.352   2.399   6.547 -0.0331 -0.3654 -0.0731
  928YOPE   C2B12956   6.381   2.384   6.943  0.1951  0.2405  0.0031
  928YOPE   D3B12957   6.618   2.495   7.250  0.1351  0.1130 -0.0399
  928YOPE   C4B12958   6.961   2.396   7.440 -0.0767  0.0441  0.1234
  929YOPE   NH312959   6.335  10.063   5.500 -0.1976 -0.2246  0.1231
  929YOPE   PO412960   6.755   9.890   5.587  0.0227 -0.3201 -0.1462
  929YOPE   GL112961   6.605  10.173   5.885  0.1190  0.2652 -0.2032
  929YOPE   GL212962   6.888  10.264   5.984 -0.2312 -0.2842  0.0466
  929YOPE   C1A12963   6.513  10.198   6.404  0.2503 -0.1179  0.0828
  929YOPE   D2A12964   6.678  10.397   6.598 -0.0318 -0.2309 -0.2215
  929YOPE   C3A12965   6.772   9.988   6.765 -0.0927  0.0273  0.0074
  929YOPE   C4A12966   6.720   9.624   6.998  0.2932  0.0860  0.0066
  929YOPE   C1B12967   7.105  10.142   6.400  0.0023 -0.0254  0.0749
  929YOPE   C2B12968   7.380  10.231   6.719  0.1676  0.3145 -0.0213
  929YOPE   D3B12969   7.524  10.514   6.965 -0.0698 -0.1663 -0.2466
  929YOPE   C4B12970   7.625  10.728   7.333 -0.3882  0.0909 -0.0947
  930YOPE   NH312971  13.221   2.640   5.277  0.0843 -0.0190  0.1025
  930YOPE   PO412972  13.662   2.587   5.208 -0.1829  0.1715 -0.1823
  930YOPE   GL112973  13.593   2.487   5.602  0.3504  0.0443  0.0430
  930YOPE   GL212974  13.399   2.720   5.816  0.0772 -0.1992  0.1488
  930YOPE   C1A12975  13.734   2.563   6.099 -0.0336 -0.0150  0.1572
  930YOPE   D2A12976  13.887   2.469   6.580  0.3058 -0.0626 -0.2461
  930YOPE   C3A12977  13.702   2.909   6.554  0.1767 -0.0124  0.2065
  930YOPE   C4A12978  13.439   3.262   6.335  0.1171 -0.1859  0.0037
  930YOPE   C1B12979  13.271   2.699   6.280 -0.2416  0.1638  0.1443
  930YOPE   C2B12980  13.380   2.491   6.501  0.3412  0.4837 -0.1385
  930YOPE   D3B12981  13.268   2.367   6.918 -0.1393  0.3192 -0.2063
  930YOPE   C4B12982  13.021   2.718   7.088 -0.1877  0.3003  0.0398
  931YOPE   NH312983   5.624  12.292   5.369 -0.0586 -0.0198  0.1026
  931YOPE   PO412984   5.206  12.617   5.342  0.2097 -0.0271 -0.1448
  931YOPE   GL112985   5.077  12.498   5.717  0.1719  0.0119 -0.1055
  931YOPE   GL212986   4.735  12.446   5.754  0.0098  0.0302  0.2648
  931YOPE   C1A12987   5.058  12.520   6.128  0.2809  0.1620  0.0121
  931YOPE   D2A12988   4.792  12.425   6.555 -0.0075 -0.1207  0.2774
  931YOPE   C3A12989   4.784  12.071   6.754  0.1153  0.2162 -0.0403
  931YOPE   C4A12990   5.194  11.992   7.046 -0.1785 -0.0794  0.0071
  931YOPE   C1B12991   4.528  12.406   6.100 -0.1886  0.4100 -0.2655
  931YOPE   C2B12992   4.323  12.470   6.614  0.1382 -0.0264  0.1347
  931YOPE   D3B12993   4.502  12.556   6.955  0.1684  0.4182  0.0677
  931YOPE   C4B12994   4.929  12.527   7.055  0.1270 -0.3040  0.0305
  932YOPE   NH312995  18.637   4.349   5.857  0.0336  0.2710 -0.3831
  932YOPE   PO412996  19.158   4.353   5.833  0.1193  0.0129 -0.3360
  932YOPE   GL112997  18.987   4.404   6.233  0.0731 -0.0587 -0.0560
  932YOPE   GL212998  19.197   4.521   6.446  0.0369 -0.0775  0.1309
  932YOPE   C1A12999  18.978   4.087   6.567  0.1854  0.1394 -0.0960
  932YOPE   D2A13000  18.930   3.879   6.938 -0.1707 -0.1391  0.0550
  932YOPE   C3A13001  18.922   3.563   7.298 -0.2439 -0.1224 -0.0027
  932YOPE   C4A13002  18.658   3.359   7.469 -0.2107 -0.0430 -0.1497
  932YOPE   C1B13003  19.221   4.848   6.746 -0.0241  0.1623  0.1285
  932YOPE   C2B13004  19.158   4.957   7.170 -0.2744  0.0980 -0.0313
  932YOPE   D3B13005  19.209   4.739   7.558  0.0682  0.0098  0.1185
  932YOPE   C4B13006  19.167   4.547   7.940  0.1084  0.1205  0.1254
  933YOPE   NH313007   0.266  12.844   5.180 -0.3639 -0.0743 -0.3389
  933YOPE   PO413008   0.464  12.439   5.262 -0.0300 -0.1577 -0.2190
  933YOPE   GL113009   0.480  12.537   5.636 -0.2323 -0.1770 -0.0123
  933YOPE   GL213010   0.446  12.521   5.862 -0.1926  0.0187  0.1402
  933YOPE   C1A13011   0.482  12.973   5.767  0.0820 -0.1049  0.0464
  933YOPE   D2A13012   0.632  13.305   5.880  0.2746  0.2138 -0.0444
  933YOPE   C3A13013   0.618  13.436   6.290  0.1999  0.4954  0.1988
  933YOPE   C4A13014   0.523  13.474   6.729  0.2266 -0.1016 -0.0032
  933YOPE   C1B13015   0.660  12.878   6.199  0.2871  0.1634  0.2188
  933YOPE   C2B13016   0.879  13.131   6.579  0.1618 -0.3003  0.4417
  933YOPE   D3B13017   1.157  13.478   6.688 -0.1583  0.2575  0.0607
  933YOPE   C4B13018   1.219  13.871   6.623 -0.0141  0.1418 -0.0493
  934YOPE   NH313019  12.034  15.178   5.601 -0.0934 -0.1242 -0.1004
  934YOPE   PO413020  12.036  15.620   5.452  0.2286  0.0315 -0.0105
  934YOPE   GL113021  12.149  15.840   5.787  0.2533  0.1064 -0.1753
  934YOPE   GL213022  12.438  15.701   5.748  0.1272  0.4245  0.1322
  934YOPE   C1A13023  12.221  16.161   6.043 -0.1603  0.1403 -0.3294
  934YOPE   D2A13024  12.515  16.587   5.916 -0.2596 -0.1144  0.0396
  934YOPE   C3A13025  12.546  16.915   6.197 -0.0874 -0.0746  0.2668
  934YOPE   C4A13026  12.389  17.302   6.311  0.0299 -0.0772 -0.2027
  934YOPE   C1B13027  12.509  15.771   6.251  0.0536  0.0917 -0.2563
  934YOPE   C2B13028  12.543  15.566   6.704  0.3340 -0.1043  0.0041
  934YOPE   D3B13029  12.384  15.784   7.135 -0.0147  0.5924 -0.0723
  934YOPE   C4B13030  12.301  16.074   7.485 -0.2200  0.0603  0.0676
  935YOPE   NH313031   2.016   3.385   5.534 -0.1796 -0.2766  0.0954
  935YOPE   PO413032   1.652   3.474   5.563 -0.0798 -0.0919 -0.0896
  935YOPE   GL113033   1.404   3.323   5.920  0.1819  0.0354  0.3578
  935YOPE   GL213034   1.099   3.486   5.899 -0.0269 -0.0378 -0.0285
  935YOPE   C1A13035   1.502   3.017   6.276 -0.1969 -0.1231 -0.0243
  935YOPE   D2A13036   1.734   2.910   6.679  0.0841  0.2404 -0.1299
  935YOPE   C3A13037   2.017   2.552   6.626 -0.2984  0.0567 -0.0346
  935YOPE   C4A13038   1.946   2.090   6.702 -0.1537  0.2425  0.1689
  935YOPE   C1B13039   1.140   3.311   6.292  0.0357 -0.0326 -0.0731
  935YOPE   C2B13040   1.256   3.139   6.701  0.1386 -0.2396  0.3393
  935YOPE   D3B13041   1.480   2.929   7.074 -0.0062 -0.0514  0.1197
  935YOPE   C4B13042   1.579   2.940   7.508  0.2508 -0.1224 -0.1361
  936YOPE   NH313043   0.232   2.985   5.074 -0.0517  0.1005  0.1785
  936YOPE   PO413044  -0.013   3.022   5.402 -0.0550 -0.3693  0.1033
  936YOPE   GL113045  -0.098   2.998   5.776  0.0889  0.0730  0.3162
  936YOPE   GL213046  -0.327   2.751   5.889  0.0243 -0.0618  0.0872
  936YOPE   C1A13047   0.036   2.975   6.289  0.1269  0.1402  0.2644
  936YOPE   D2A13048   0.266   3.008   6.630 -0.0665  0.1681  0.0448
  936YOPE   C3A13049  -0.039   2.923   6.998 -0.1185 -0.1682 -0.0549
  936YOPE   C4A13050  -0.110   2.823   7.443  0.0083  0.2421  0.1105
  936YOPE   C1B13051  -0.272   2.499   6.166 -0.0930 -0.1428  0.0734
  936YOPE   C2B13052   0.070   2.492   6.378 -0.1001 -0.1633 -0.2751
  936YOPE   D3B13053   0.218   2.465   6.695  0.1180 -0.1199  0.2564
  936YOPE   C4B13054   0.437   2.642   6.970 -0.3941 -0.0312 -0.0092
  937YOPE   NH313055  16.230  18.765   5.857 -0.0587 -0.2645 -0.0793
  937YOPE   PO413056  16.374  19.114   5.922 -0.1962 -0.0285 -0.0096
  937YOPE   GL113057  16.206  19.413   6.185  0.1623  0.2557  0.1848
  937YOPE   GL213058  16.559  19.513   6.328  0.1963 -0.4000  0.1584
  937YOPE   C1A13059  15.868  19.754   6.346  0.1689 -0.0454  0.2668
  937YOPE   D2A13060  15.492  19.733   6.361 -0.3492 -0.0419 -0.2710
  937YOPE   C3A13061  15.384  19.651   6.752  0.3751  0.1058  0.0188
  937YOPE   C4A13062  15.191  19.783   7.071  0.0398  0.0707  0.1754
  937YOPE   C1B13063  16.324  19.819   6.598  0.0911 -0.0021  0.0454
  937YOPE   C2B13064  16.168  20.058   6.854  0.1453  0.1766  0.0095
  937YOPE   D3B13065  15.752  20.137   6.849  0.0837  0.0524 -0.1320
  937YOPE   C4B13066  15.309  20.114   6.658  0.2710  0.1596  0.0807
  938YOPE   NH313067   2.161   0.165   4.975  0.0519  0.1772  0.0167
  938YOPE   PO413068   2.584   0.406   5.138  0.0199 -0.0760  0.1203
  938YOPE   GL113069   2.574   0.348   5.576  0.0832 -0.1793 -0.1480
  938YOPE   GL213070   2.428   0.480   5.790  0.2020 -0.0366  0.0383
  938YOPE   C1A13071   2.626   0.012   5.821 -0.0782  0.5159  0.0229
  938YOPE   D2A13072   2.559  -0.010   6.246  0.0033 -0.0820 -0.2455
  938YOPE   C3A13073   2.186  -0.039   6.443  0.1763  0.1430 -0.1767
  938YOPE   C4A13074   2.045  -0.144   6.815 -0.1506 -0.0207 -0.1033
  938YOPE   C1B13075   2.337   0.496   6.262  0.3084  0.1212  0.0665
  938YOPE   C2B13076   2.168   0.328   6.777  0.0178  0.0377 -0.2808
  938YOPE   D3B13077   1.748   0.254   6.985  0.1989  0.0515 -0.2631
  938YOPE   C4B13078   1.679  -0.071   7.369  0.2125 -0.1655 -0.3029
  939YOPE   NH313079  10.010   4.497   5.444  0.0212  0.0961 -0.2312
  939YOPE   PO413080  10.211   4.365   5.866 -0.0759  0.0915 -0.0524
  939YOPE   GL113081  10.267   4.668   5.904 -0.0853 -0.0945 -0.1476
  939YOPE   GL213082   9.905   4.752   5.864  0.0180 -0.0610  0.0528
  939YOPE   C1A13083  10.166   5.000   6.213 -0.1566  0.5513  0.1858
  939YOPE   D2A13084  10.113   5.426   6.427  0.1557  0.2585  0.3179
  939YOPE   C3A13085   9.945   5.443   6.858  0.0981  0.2664  0.2802
  939YOPE   C4A13086   9.646   5.510   7.149 -0.2211  0.0576 -0.1133
  939YOPE   C1B13087   9.779   4.697   6.234  0.1599  0.0349 -0.2273
  939YOPE   C2B13088   9.707   5.048   6.660 -0.2901 -0.1129  0.3226
  939YOPE   D3B13089   9.843   4.960   7.117  0.1333  0.1032  0.1345
  939YOPE   C4B13090   9.844   5.250   7.466 -0.4285 -0.2593 -0.4541
  940YOPE   NH313091  18.420  10.554   5.706 -0.0830 -0.2030 -0.0280
  940YOPE   PO413092  18.359  10.904   5.484 -0.0318 -0.0738  0.1414
  940YOPE   GL113093  18.268  11.136   5.847  0.1350 -0.6370  0.1630
  940YOPE   GL213094  18.473  11.395   5.785 -0.0897  0.2618 -0.1129
  940YOPE   C1A13095  18.292  11.061   6.336 -0.0214  0.5407  0.3000
  940YOPE   D2A13096  18.196  10.979   6.809 -0.1881  0.1482 -0.0025
  940YOPE   C3A13097  17.901  11.082   7.110  0.0846  0.1193 -0.0451
  940YOPE   C4A13098  17.876  10.987   7.556  0.0020 -0.0974  0.0331
  940YOPE   C1B13099  18.504  11.486   6.343  0.0443 -0.1629 -0.0224
  940YOPE   C2B13100  18.553  11.317   6.757  0.1269 -0.0518 -0.1676
  940YOPE   D3B13101  18.356  11.278   7.149 -0.1542 -0.2970  0.0722
  940YOPE   C4B13102  18.442  11.207   7.608 -0.1398 -0.0047 -0.2406
  941YOPE   NH313103   6.863   5.626   5.334 -0.0223  0.1801  0.3305
  941YOPE   PO413104   7.117   5.296   5.259  0.1072  0.1816  0.1229
  941YOPE   GL113105   7.219   5.361   5.681 -0.2550  0.0978  0.0797
  941YOPE   GL213106   7.088   5.688   5.773  0.1003  0.1746 -0.1625
  941YOPE   C1A13107   7.263   5.383   6.168 -0.0114  0.3150  0.0559
  941YOPE   D2A13108   7.273   5.144   6.514  0.2707 -0.0420 -0.3386
  941YOPE   C3A13109   7.445   5.003   6.930 -0.0045  0.2853 -0.2080
  941YOPE   C4A13110   7.444   4.975   7.362 -0.2177  0.0212 -0.0817
  941YOPE   C1B13111   6.772   5.679   6.092  0.1894 -0.0063  0.0120
  941YOPE   C2B13112   6.662   6.028   6.383 -0.1592 -0.0188  0.3168
  941YOPE   D3B13113   6.758   6.161   6.789 -0.1559  0.2411  0.1221
  941YOPE   C4B13114   6.960   5.848   7.073 -0.1717 -0.0634  0.4744
  942POPC   NC313115   1.897   8.604   5.269  0.1410  0.2654 -0.3025
  942POPC   PO413116   1.757   8.849   5.646 -0.1382 -0.0112 -0.1259
  942POPC   GL113117   1.941   8.852   6.109 -0.1785  0.1923 -0.1715
  942POPC   GL213118   2.290   8.882   6.011  0.2582  0.0499 -0.3330
  942POPC   C1A13119   2.220   8.880   6.466 -0.4827  0.2514  0.0131
  942POPC   D2A13120   2.686   8.912   6.555 -0.0217  0.1218 -0.1197
  942POPC   C3A13121   2.904   9.148   6.891 -0.1599  0.1696 -0.2436
  942POPC   C4A13122   2.657   9.345   7.153  0.0435 -0.0847 -0.1281
  942POPC   C1B13123   2.526   8.570   6.243 -0.2131 -0.0047  0.4428
  942POPC   C2B13124   2.504   8.064   6.372 -0.0920  0.0853  0.0309
  942POPC   C3B13125   2.749   7.830   6.418 -0.0993  0.3067  0.0732
  942POPC   C4B13126   2.883   7.485   6.634  0.1300 -0.1369  0.1320
  943POPC   NC313127  17.245  12.147   5.577  0.3974  0.0337  0.0096
  943POPC   PO413128  17.224  12.588   5.417 -0.0642  0.2237 -0.0520
  943POPC   GL113129  17.313  12.593   5.891 -0.0617  0.1356  0.1128
  943POPC   GL213130  17.451  12.874   6.126  0.0792 -0.0037  0.0588
  943POPC   C1A13131  17.422  12.318   6.276 -0.1329  0.3946  0.0743
  943POPC   D2A13132  17.716  12.284   6.518 -0.0690 -0.0227 -0.1425
  943POPC   C3A13133  18.159  12.150   6.764 -0.2154 -0.2098  0.1674
  943POPC   C4A13134  18.368  12.183   7.207 -0.3040 -0.4363 -0.1945
  943POPC   C1B13135  17.306  12.790   6.468 -0.1868 -0.3485  0.0004
  943POPC   C2B13136  17.443  12.620   6.803  0.0355 -0.1893  0.0989
  943POPC   C3B13137  17.635  12.238   7.009 -0.0963 -0.4420  0.1227
  943POPC   C4B13138  17.879  12.009   7.285 -0.0669  0.0374 -0.2006
  944POPC   NC313139  17.789   6.992   4.982  0.0664 -0.2635  0.0883
  944POPC   PO413140  18.046   7.247   5.252  0.1291  0.1094  0.1238
  944POPC   GL113141  18.208   7.404   5.690 -0.1975  0.1994 -0.0383
  944POPC   GL213142  18.567   7.334   5.829  0.0166 -0.1550  0.1641
  944POPC   C1A13143  18.095   7.642   5.956 -0.0529  0.1785 -0.0012
  944POPC   D2A13144  18.279   7.772   6.256 -0.2002  0.0775 -0.0445
  944POPC   C3A13145  18.488   7.452   6.591 -0.2856 -0.1869  0.0999
  944POPC   C4A13146  18.387   7.552   6.919  0.0540 -0.0438 -0.6227
  944POPC   C1B13147  18.400   7.234   6.164  0.1456  0.0369  0.4204
  944POPC   C2B13148  18.201   7.025   6.485  0.0318 -0.0597  0.1269
  944POPC   C3B13149  18.109   7.153   6.971  0.2848 -0.1561  0.3572
  944POPC   C4B13150  18.076   7.239   7.375  0.0697  0.0742 -0.2388
  945POPC   NC313151  17.735  10.174   5.732  0.1286 -0.0413  0.3375
  945POPC   PO413152  17.864  10.722   5.836  0.1579  0.2146 -0.0763
  945POPC   GL113153  18.166  10.647   6.142 -0.0479 -0.2611  0.1277
  945POPC   GL213154  18.371  10.321   6.152 -0.0348 -0.1420 -0.0582
  945POPC   C1A13155  18.219  10.517   6.540 -0.2587 -0.2609  0.2795
  945POPC   D2A13156  18.378  10.424   6.813 -0.1984  0.0649 -0.0495
  945POPC   C3A13157  18.265  10.028   7.006 -0.1634 -0.1845  0.1249
  945POPC   C4A13158  18.419   9.598   6.910 -0.0993 -0.1613  0.0300
  945POPC   C1B13159  18.485   9.978   6.519 -0.0640 -0.1559  0.1291
  945POPC   C2B13160  18.658   9.521   6.496 -0.4355  0.1155 -0.1579
  945POPC   C3B13161  18.884   9.309   6.792  0.2634 -0.2441 -0.0328
  945POPC   C4B13162  19.121   8.968   6.781  0.1530 -0.1004 -0.0086
  946POPC   NC313163  14.426  17.290   5.162  0.0178  0.0707  0.0841
  946POPC   PO413164  14.305  16.799   5.282 -0.1235 -0.2312 -0.1087
  946POPC   GL113165  14.291  16.930   5.793  0.2109 -0.4725  0.0146
  946POPC   GL213166  14.115  16.632   5.818 -0.2565  0.0812  0.0629
  946POPC   C1A13167  14.515  17.013   6.162 -0.2694 -0.1074  0.2169
  946POPC   D2A13168  14.515  17.125   6.580  0.1077 -0.1664 -0.1699
  946POPC   C3A13169  14.471  17.003   7.006 -0.5197 -0.0294 -0.0112
  946POPC   C4A13170  14.470  16.822   7.371  0.2485 -0.0849  0.0010
  946POPC   C1B13171  14.131  16.637   6.293  0.0573 -0.2229  0.2321
  946POPC   C2B13172  13.947  16.576   6.762 -0.5176  0.1919 -0.0922
  946POPC   C3B13173  13.700  16.386   7.047  0.2490 -0.1323 -0.2679
  946POPC   C4B13174  13.569  16.006   7.287  0.4987  0.4016 -0.1801
  947POPC   NC313175  14.858  18.909   5.325  0.0610 -0.0676  0.0328
  947POPC   PO413176  15.192  18.963   5.610  0.0933 -0.2861 -0.1479
  947POPC   GL113177  14.868  18.901   5.938 -0.0287 -0.0922 -0.1576
  947POPC   GL213178  14.819  19.218   6.039 -0.0796 -0.1814 -0.2153
  947POPC   C1A13179  14.748  18.677   6.432 -0.2604  0.1199 -0.1355
  947POPC   D2A13180  14.875  18.691   6.801 -0.2604 -0.1247 -0.0207
  947POPC   C3A13181  15.299  18.815   6.946  0.1455  0.0116 -0.0216
  947POPC   C4A13182  15.607  18.576   7.219 -0.0754  0.3437  0.1601
  947POPC   C1B13183  14.676  19.188   6.352 -0.1659 -0.0889  0.0815
  947POPC   C2B13184  14.633  19.115   6.793 -0.0973  0.1481  0.1511
  947POPC   C3B13185  14.412  19.069   7.178 -0.1552  0.3065  0.0153
  947POPC   C4B13186  14.236  19.279   7.430  0.0372  0.0760 -0.2333
  948POPC   NC313187  18.889   5.865   5.416 -0.1110 -0.0092 -0.0676
  948POPC   PO413188  18.939   5.814   5.943  0.1075  0.0851 -0.0200
  948POPC   GL113189  19.012   5.849   6.273 -0.0999 -0.0979 -0.1176
  948POPC   GL213190  19.353   5.996   6.412  0.0044 -0.0637 -0.0027
  948POPC   C1A13191  19.219   5.492   6.458 -0.1053  0.1389 -0.0692
  948POPC   D2A13192  19.162   5.318   6.837  0.0344 -0.0321 -0.0310
  948POPC   C3A13193  18.886   5.343   6.995  0.2050 -0.0076  0.5661
  948POPC   C4A13194  18.685   5.501   7.327  0.0063 -0.0699  0.0549
  948POPC   C1B13195  19.207   5.831   6.862  0.0170 -0.2038 -0.0568
  948POPC   C2B13196  19.090   5.712   7.231  0.2115 -0.0907 -0.0906
  948POPC   C3B13197  19.412   5.766   7.574 -0.1491  0.0064  0.0276
  948POPC   C4B13198  19.678   5.897   7.919  0.1382  0.2383 -0.1727
  949POPC   NC313199   6.994  10.905   5.404  0.2844 -0.0976 -0.0051
  949POPC   PO413200   6.656  10.580   5.510 -0.4752 -0.0477 -0.2352
  949POPC   GL113201   6.289  10.543   5.738  0.2622 -0.4792  0.2172
  949POPC   GL213202   6.246  10.846   5.902  0.1828  0.2235  0.1496
  949POPC   C1A13203   6.081  10.379   6.170  0.0657  0.0919 -0.0600
  949POPC   D2A13204   5.838  10.406   6.510  0.1316 -0.0822 -0.2902
  949POPC   C3A13205   5.518  10.220   6.673 -0.1220  0.1252 -0.3108
  949POPC   C4A13206   5.285  10.205   6.953 -0.2479 -0.2366 -0.1885
  949POPC   C1B13207   6.474  10.713   6.225  0.3085 -0.2555  0.1518
  949POPC   C2B13208   6.581  11.048   6.520  0.2248 -0.0528 -0.6194
  949POPC   C3B13209   6.254  11.153   6.866  0.1108  0.0313 -0.0716
  949POPC   C4B13210   6.042  11.121   7.349  0.1778 -0.2182  0.1567
  950POPC   NC313211  16.719  17.311   5.514 -0.1031  0.1807  0.0348
  950POPC   PO413212  17.063  17.675   5.561  0.0767 -0.1216  0.0948
  950POPC   GL113213  16.828  17.692   5.910  0.1871 -0.1808  0.1191
  950POPC   GL213214  16.910  17.519   6.082 -0.1372  0.1462 -0.0908
  950POPC   C1A13215  16.858  17.944   6.260  0.1388  0.0353 -0.0157
  950POPC   D2A13216  16.737  17.750   6.700 -0.2581  0.0797 -0.0355
  950POPC   C3A13217  16.391  17.729   6.914 -0.1640 -0.0552 -0.0897
  950POPC   C4A13218  16.287  17.739   7.328  0.0750  0.1637  0.0678
  950POPC   C1B13219  16.773  17.354   6.409 -0.1007  0.1401  0.0010
  950POPC   C2B13220  16.770  17.291   6.854  0.3389 -0.0569 -0.2992
  950POPC   C3B13221  16.768  17.544   7.204  0.1000  0.0539  0.2025
  950POPC   C4B13222  16.691  17.980   7.160 -0.0618 -0.1016  0.1066
  951POPC   NC313223   8.653   2.520   6.074 -0.3485 -0.0303 -0.1389
  951POPC   PO413224   8.838   2.910   6.018 -0.0727 -0.0487 -0.1347
  951POPC   GL113225   8.726   3.173   6.330 -0.1351 -0.1698  0.3279
  951POPC   GL213226   8.413   2.876   6.280  0.0517  0.1110  0.0198
  951POPC   C1A13227   8.555   3.228   6.756 -0.3871  0.0063  0.1277
  951POPC   D2A13228   8.174   3.241   7.052 -0.0750  0.0509  0.0859
  951POPC   C3A13229   8.313   3.515   7.236 -0.1385 -0.2019  0.2946
  951POPC   C4A13230   8.248   3.935   7.404  0.0493 -0.1435  0.3861
  951POPC   C1B13231   8.703   2.749   6.678 -0.3559 -0.0452  0.2153
  951POPC   C2B13232   8.974   2.428   6.837 -0.0800  0.0966  0.0239
  951POPC   C3B13233   9.264   2.028   6.783  0.1342  0.1331  0.0525
  951POPC   C4B13234   9.237   1.523   6.936 -0.0942  0.0611 -0.2079
  952POPC   NC313235  14.104   5.002   5.240  0.0922  0.0119  0.1246
  952POPC   PO413236  14.526   4.835   5.364 -0.0016 -0.1026 -0.0777
  952POPC   GL113237  14.386   5.126   5.681 -0.3588  0.0269  0.1402
  952POPC   GL213238  14.631   5.151   5.932  0.0971 -0.1113  0.1448
  952POPC   C1A13239  14.142   5.083   5.999 -0.1380  0.4224 -0.0825
  952POPC   D2A13240  14.213   4.810   6.334  0.3468  0.3098 -0.2986
  952POPC   C3A13241  13.804   4.808   6.512 -0.1920  0.1607 -0.4070
  952POPC   C4A13242  13.365   4.675   6.345 -0.3884 -0.3138 -0.0442
  952POPC   C1B13243  14.685   4.773   6.076  0.2331  0.1981  0.1174
  952POPC   C2B13244  14.840   4.549   6.501 -0.4125  0.3759  0.5427
  952POPC   C3B13245  14.847   4.514   6.859 -0.4184 -0.0374  0.1705
  952POPC   C4B13246  14.799   4.427   7.371 -0.0979  0.2772  0.0573
  953POPC   NC313247   4.660   4.303   5.161  0.0965  0.2084 -0.1361
  953POPC   PO413248   4.995   4.004   5.257  0.2441  0.0426 -0.0276
  953POPC   GL113249   4.799   4.064   5.580 -0.0905 -0.2385  0.0848
  953POPC   GL213250   4.528   4.084   5.636 -0.0062 -0.2057  0.0977
  953POPC   C1A13251   4.818   3.855   6.028 -0.1203  0.1569  0.0779
  953POPC   D2A13252   4.840   3.989   6.332  0.0738 -0.2286 -0.1374
  953POPC   C3A13253   5.151   3.986   6.705 -0.0883  0.1323  0.2474
  953POPC   C4A13254   5.161   4.068   7.152 -0.1740 -0.0606 -0.4756
  953POPC   C1B13255   4.285   4.071   6.025  0.1274 -0.0295  0.0018
  953POPC   C2B13256   4.273   3.834   6.495  0.0661  0.2246 -0.1097
  953POPC   C3B13257   4.470   3.756   6.890 -0.1285 -0.1889 -0.1544
  953POPC   C4B13258   4.615   3.928   7.287  0.2472  0.1599  0.1623
  954POPC   NC313259   3.343   7.967   5.051 -0.5772 -0.2369 -0.0483
  954POPC   PO413260   3.570   8.201   5.329 -0.5044  0.2099 -0.0877
  954POPC   GL113261   3.798   8.035   5.744 -0.1492 -0.2977 -0.0659
  954POPC   GL213262   3.502   7.921   5.935  0.0634 -0.0632  0.1847
  954POPC   C1A13263   4.141   7.985   6.005 -0.3229 -0.0154 -0.0108
  954POPC   D2A13264   4.544   7.789   5.990  0.3547 -0.2202  0.0277
  954POPC   C3A13265   4.993   8.004   6.213  0.1502  0.3048 -0.2054
  954POPC   C4A13266   5.350   8.307   6.348  0.4059  0.2222  0.0657
  954POPC   C1B13267   3.226   7.601   6.002 -0.1270 -0.0063  0.3765
  954POPC   C2B13268   3.292   7.584   6.436 -0.0111  0.4403 -0.1681
  954POPC   C3B13269   3.396   7.424   6.803 -0.0518 -0.1468  0.1721
  954POPC   C4B13270   3.501   7.877   7.122  0.0048  0.3620  0.2311
  955POPC   NC313271   3.088   9.014   5.654 -0.0485  0.0347  0.1785
  955POPC   PO413272   2.625   8.983   5.668  0.0464 -0.0893  0.0190
  955POPC   GL113273   2.770   9.058   6.059 -0.4426  0.3064  0.0020
  955POPC   GL213274   2.689   9.320   6.291 -0.0530 -0.2470 -0.2280
  955POPC   C1A13275   3.116   9.060   6.345 -0.0636 -0.0940 -0.0695
  955POPC   D2A13276   3.316   9.332   6.628  0.3866  0.0051  0.2431
  955POPC   C3A13277   3.734   9.309   6.921 -0.1499 -0.0078  0.1121
  955POPC   C4A13278   4.173   9.439   7.167 -0.1245 -0.5381  0.0775
  955POPC   C1B13279   2.741   9.566   6.705 -0.0458 -0.2082 -0.0990
  955POPC   C2B13280   2.613   9.916   6.862 -0.1224 -0.0771  0.3781
  955POPC   C3B13281   2.453   9.804   7.197  0.3036 -0.1737 -0.0402
  955POPC   C4B13282   2.324  10.118   7.538 -0.0313 -0.2453  0.0702
  956POPC   NC313283  14.396   0.759   5.175 -0.1221 -0.0557  0.5092
  956POPC   PO413284  14.107   1.045   5.307  0.1372 -0.0460  0.0234
  956POPC   GL113285  13.975   1.114   5.715  0.1641  0.0054  0.0283
  956POPC   GL213286  13.833   1.468   5.711  0.1943  0.1045  0.1593
  956POPC   C1A13287  14.088   1.108   6.134 -0.0059 -0.1874 -0.1436
  956POPC   D2A13288  14.169   1.273   6.469 -0.0101 -0.0932  0.0960
  956POPC   C3A13289  14.044   1.052   6.875 -0.0708  0.1642 -0.4635
  956POPC   C4A13290  13.856   1.055   7.224  0.1070 -0.3481 -0.2305
  956POPC   C1B13291  13.745   1.607   6.227  0.0000 -0.0839  0.0122
  956POPC   C2B13292  14.015   1.762   6.519  0.1817  0.0910  0.0534
  956POPC   C3B13293  14.218   2.099   6.770  0.0443 -0.0050  0.0376
  956POPC   C4B13294  14.010   2.282   7.101 -0.1178 -0.0766  0.0706
  957POPC   NC313295  16.290   7.334   5.937  0.2878  0.2337 -0.2050
  957POPC   PO413296  15.803   7.346   5.983 -0.1542  0.0321 -0.0119
  957POPC   GL113297  15.843   7.468   6.501 -0.1562  0.0419  0.0359
  957POPC   GL213298  16.093   7.293   6.410  0.0795  0.1176  0.1270
  957POPC   C1A13299  15.687   7.553   6.851  0.4381 -0.2133  0.1370
  957POPC   D2A13300  15.558   7.947   6.978 -0.1627 -0.0009  0.0973
  957POPC   C3A13301  15.384   8.341   6.885  0.0278 -0.0875  0.0410
  957POPC   C4A13302  15.543   8.783   7.149  0.1946  0.0938  0.2314
  957POPC   C1B13303  16.136   7.125   6.832  0.2585  0.2464  0.0338
  957POPC   C2B13304  15.967   6.764   7.052 -0.2089 -0.0076 -0.0759
  957POPC   C3B13305  15.828   6.420   7.188  0.1336  0.0296  0.4118
  957POPC   C4B13306  15.894   5.980   7.176 -0.0239  0.0122  0.1205
  958POPC   NC313307   0.322   1.990   5.341 -0.1118 -0.2267  0.4523
  958POPC   PO413308   0.495   1.709   5.628 -0.0305  0.2808 -0.2760
  958POPC   GL113309   0.788   1.757   6.044 -0.1051 -0.2117  0.0960
  958POPC   GL213310   0.959   1.531   6.186 -0.2097  0.2616  0.4669
  958POPC   C1A13311   0.614   1.765   6.511 -0.1111  0.1499  0.1216
  958POPC   D2A13312   0.780   1.373   6.853  0.2130 -0.0963 -0.1303
  958POPC   C3A13313   0.870   1.409   7.199  0.2558  0.0358 -0.2202
  958POPC   C4A13314   0.983   1.589   7.511  0.0650  0.1912 -0.0042
  958POPC   C1B13315   1.088   1.592   6.555 -0.0990 -0.0524 -0.0278
  958POPC   C2B13316   1.333   1.425   7.003  0.0879  0.0952 -0.0670
  958POPC   C3B13317   1.566   1.620   7.323  0.2482 -0.1251  0.1218
  958POPC   C4B13318   1.513   1.633   7.744  0.0122 -0.2174  0.1507
  959POPC   NC313319   1.029   7.311   5.652 -0.2296 -0.2300 -0.1294
  959POPC   PO413320   1.407   7.652   5.608 -0.2196 -0.0760  0.1083
  959POPC   GL113321   1.257   7.530   6.067  0.1093 -0.1647 -0.3680
  959POPC   GL213322   0.935   7.598   6.143 -0.1725  0.2926 -0.4411
  959POPC   C1A13323   1.259   7.661   6.557  0.1379  0.3103  0.3689
  959POPC   D2A13324   1.314   7.536   6.992 -0.0079  0.2381 -0.0336
  959POPC   C3A13325   1.049   7.311   7.195 -0.4316  0.1915  0.0556
  959POPC   C4A13326   0.694   7.425   7.407 -0.0013 -0.1330 -0.0776
  959POPC   C1B13327   0.597   7.881   6.376  0.2642  0.0488  0.3696
  959POPC   C2B13328   0.367   7.866   6.714  0.1964  0.3251  0.1925
  959POPC   C3B13329  -0.035   7.887   6.887 -0.0568  0.0155  0.0602
  959POPC   C4B13330  -0.235   7.822   7.383 -0.3700  0.0490 -0.0961
  960POPC   NC313331  13.270  10.865   5.216  0.1947  0.1212  0.1259
  960POPC   PO413332  13.476  11.341   5.178  0.1009  0.2989 -0.0239
  960POPC   GL113333  13.649  11.468   5.686  0.0771 -0.0870  0.0067
  960POPC   GL213334  13.763  11.710   5.765  0.1111 -0.0896  0.3101
  960POPC   C1A13335  13.860  11.251   5.962 -0.1463 -0.0789  0.5413
  960POPC   D2A13336  13.886  11.231   6.382 -0.1129  0.2120  0.0559
  960POPC   C3A13337  13.589  10.995   6.742  0.0230  0.1469  0.1112
  960POPC   C4A13338  13.362  11.123   7.148  0.1392  0.0439 -0.2508
  960POPC   C1B13339  13.629  11.613   6.200  0.0170 -0.2789  0.0438
  960POPC   C2B13340  13.439  11.561   6.672  0.2435  0.1235  0.1774
  960POPC   C3B13341  13.369  11.684   7.025  0.4535 -0.2083 -0.1491
  960POPC   C4B13342  12.887  11.719   7.124  0.2668 -0.2477  0.0510
  961POPC   NC313343   1.151   2.893   5.699  0.1156  0.0084 -0.0646
  961POPC   PO413344   0.817   2.612   5.643  0.0798 -0.1049 -0.1866
  961POPC   GL113345   0.698   3.061   5.854  0.2046 -0.0473  0.1154
  961POPC   GL213346   0.420   3.040   5.766 -0.2121  0.0658  0.2207
  961POPC   C1A13347   0.625   3.182   6.325 -0.2342  0.3094  0.1238
  961POPC   D2A13348   0.745   3.160   6.727 -0.0552  0.1892  0.0403
  961POPC   C3A13349   0.872   2.790   6.965  0.2063 -0.2864  0.2661
  961POPC   C4A13350   1.150   2.545   7.136 -0.1791  0.1217 -0.0893
  961POPC   C1B13351   0.453   2.722   6.173 -0.0297  0.3255  0.2763
  961POPC   C2B13352   0.663   2.636   6.517 -0.0146  0.3332 -0.2450
  961POPC   C3B13353   0.847   2.339   6.805  0.1713  0.2762 -0.0858
  961POPC   C4B13354   0.988   2.041   6.662 -0.0653 -0.0630 -0.3231
  962POPC   NC313355   6.214   1.214   5.372  0.0725  0.0667  0.0268
  962POPC   PO413356   5.956   0.896   5.528 -0.2558  0.1102  0.2283
  962POPC   GL113357   6.026   1.090   5.891  0.1886 -0.1567  0.4822
  962POPC   GL213358   5.737   1.136   5.868 -0.2855 -0.0568  0.0805
  962POPC   C1A13359   6.136   1.210   6.340 -0.2211  0.0324 -0.1697
  962POPC   D2A13360   6.174   1.000   6.780 -0.2939  0.1427 -0.2149
  962POPC   C3A13361   6.277   0.693   7.108 -0.0684  0.2740 -0.0825
  962POPC   C4A13362   6.555   0.425   7.400  0.1598 -0.0018 -0.2896
  962POPC   C1B13363   5.558   1.108   6.286  0.2249  0.1154 -0.1980
  962POPC   C2B13364   5.241   1.009   6.650  0.0285  0.1626 -0.3867
  962POPC   C3B13365   4.931   0.814   6.479  0.0496  0.3372 -0.1709
  962POPC   C4B13366   4.889   0.526   6.196  0.1012  0.0048  0.2167
  963POPC   NC313367  15.928   4.509   5.620 -0.2633  0.0906 -0.0710
  963POPC   PO413368  15.496   4.424   5.669 -0.0144  0.1042  0.2411
  963POPC   GL113369  15.632   4.353   5.993 -0.0063  0.2883 -0.1135
  963POPC   GL213370  15.871   4.166   6.007  0.0228  0.4227 -0.0260
  963POPC   C1A13371  15.665   4.698   6.341 -0.0573 -0.1275  0.3042
  963POPC   D2A13372  15.694   4.624   6.844 -0.2465  0.2962  0.0186
  963POPC   C3A13373  15.655   4.230   7.112 -0.0959  0.1626 -0.0598
  963POPC   C4A13374  15.451   3.871   7.384 -0.1497  0.3431 -0.0873
  963POPC   C1B13375  16.017   3.835   6.290 -0.0287  0.1845 -0.1949
  963POPC   C2B13376  16.147   3.491   6.515 -0.0303 -0.4817 -0.0258
  963POPC   C3B13377  16.284   3.443   6.742  0.0730 -0.2688 -0.0649
  963POPC   C4B13378  16.439   3.585   7.143  0.0085  0.1609 -0.0614
  964POPC   NC313379   5.108  14.499   5.328 -0.1552  0.3769  0.1756
  964POPC   PO413380   4.891  14.784   5.638  0.0388  0.2365  0.0381
  964POPC   GL113381   4.755  14.708   5.968 -0.1608 -0.0617 -0.1881
  964POPC   GL213382   4.679  14.985   6.084 -0.0023  0.1728 -0.1620
  964POPC   C1A13383   4.883  14.722   6.426 -0.2535  0.0227 -0.0929
  964POPC   D2A13384   4.879  14.868   6.837 -0.1974 -0.3961 -0.2933
  964POPC   C3A13385   4.710  15.174   6.920  0.2364 -0.3889  0.0106
  964POPC   C4A13386   4.442  15.460   7.132 -0.2378 -0.1555 -0.1667
  964POPC   C1B13387   4.780  15.215   6.419  0.1633 -0.0089  0.0992
  964POPC   C2B13388   4.776  15.613   6.639 -0.1389  0.2726  0.0390
  964POPC   C3B13389   4.955  16.026   6.710  0.5032  0.1820  0.4110
  964POPC   C4B13390   5.083  16.127   7.098  0.0345  0.1156 -0.0641
  965POPC   NC313391  11.829   0.196   5.034  0.0251  0.0924  0.3612
  965POPC   PO413392  11.509   0.160   5.363 -0.0774 -0.2963 -0.2115
  965POPC   GL113393  11.466  -0.075   5.750  0.1447 -0.1196 -0.2091
  965POPC   GL213394  11.287  -0.353   5.773 -0.1931 -0.0157  0.1144
  965POPC   C1A13395  11.255   0.182   6.061  0.1780 -0.1268 -0.1835
  965POPC   D2A13396  11.242   0.488   6.307  0.0072 -0.0988 -0.1078
  965POPC   C3A13397  11.206   0.415   6.760 -0.0470  0.0171  0.0808
  965POPC   C4A13398  11.121   0.570   7.157  0.1153 -0.1021  0.0354
  965POPC   C1B13399  10.981  -0.372   6.064  0.0347 -0.1827  0.3248
  965POPC   C2B13400  10.749  -0.494   6.339  0.0739  0.0260  0.0227
  965POPC   C3B13401  10.528  -0.564   6.759 -0.0819  0.0884 -0.0118
  965POPC   C4B13402  10.655  -0.691   7.214 -0.3675  0.1779  0.0043
  966POPC   NC313403  15.448   8.268   5.732 -0.2448 -0.0975  0.2514
  966POPC   PO413404  15.600   8.635   5.868 -0.0160 -0.1197 -0.0537
  966POPC   GL113405  15.652   8.398   6.306 -0.1458  0.0701 -0.1387
  966POPC   GL213406  15.504   8.616   6.465  0.1433  0.0049 -0.0579
  966POPC   C1A13407  15.944   8.403   6.734  0.0417  0.1590  0.1945
  966POPC   D2A13408  15.925   8.319   7.158 -0.2872  0.2156 -0.2303
  966POPC   C3A13409  15.912   8.311   7.582  0.1392  0.0459  0.2268
  966POPC   C4A13410  15.986   7.993   7.939 -0.2838 -0.0697  0.3541
  966POPC   C1B13411  15.790   8.862   6.708  0.3085  0.1447 -0.4918
  966POPC   C2B13412  16.034   9.128   6.995 -0.2399  0.0735 -0.0839
  966POPC   C3B13413  16.281   9.109   7.254  0.2420  0.0064 -0.0880
  966POPC   C4B13414  16.492   9.419   7.468  0.1963  0.0733  0.2149
  967POPC   NC313415   4.561  17.702   5.360 -0.2616  0.0883 -0.1142
  967POPC   PO413416   4.511  18.150   5.563  0.2864  0.0393  0.2969
  967POPC   GL113417   4.761  18.289   5.872 -0.1919 -0.4193  0.0183
  967POPC   GL213418   5.056  18.483   5.890 -0.4152 -0.1599  0.0837
  967POPC   C1A13419   4.672  18.580   6.220 -0.1164  0.1033  0.2492
  967POPC   D2A13420   4.619  18.611   6.658 -0.1166 -0.2325 -0.0067
  967POPC   C3A13421   4.486  18.952   6.771  0.0408 -0.3296 -0.2142
  967POPC   C4A13422   4.378  19.431   6.874  0.0292 -0.2183 -0.1102
  967POPC   C1B13423   5.290  18.136   5.901  0.2229 -0.0705 -0.0238
  967POPC   C2B13424   5.503  17.807   6.221 -0.0497  0.1999  0.1673
  967POPC   C3B13425   5.668  18.059   6.569  0.0027  0.1211  0.1237
  967POPC   C4B13426   5.572  18.505   6.764 -0.2149 -0.0848 -0.0453
  968POPC   NC313427  11.251   3.066   5.827 -0.0525  0.0714  0.1292
  968POPC   PO413428  11.303   2.642   5.560 -0.1794  0.0058 -0.4683
  968POPC   GL113429  11.373   2.569   6.011  0.0403  0.0525  0.4771
  968POPC   GL213430  11.135   2.669   6.135  0.0740 -0.1062  0.1050
  968POPC   C1A13431  11.516   2.229   6.384  0.3999  0.0219 -0.0633
  968POPC   D2A13432  11.400   1.942   6.701  0.0389  0.3589 -0.0443
  968POPC   C3A13433  11.414   2.168   7.120 -0.1707  0.1328  0.0641
  968POPC   C4A13434  11.471   2.079   7.563 -0.1575  0.1246 -0.0786
  968POPC   C1B13435  11.196   2.612   6.563  0.1617  0.2007  0.0047
  968POPC   C2B13436  11.047   2.647   7.010 -0.3565 -0.0534  0.0564
  968POPC   C3B13437  10.643   2.592   7.274 -0.1084 -0.4073 -0.3062
  968POPC   C4B13438  10.568   2.747   7.627  0.1665 -0.0850 -0.0853
  969POPC   NC313439   7.685  11.214   5.360 -0.2157 -0.3850  0.1041
  969POPC   PO413440   8.038  11.281   5.660 -0.3139  0.2711  0.1169
  969POPC   GL113441   8.178  11.269   6.126 -0.0085 -0.1842  0.0985
  969POPC   GL213442   8.059  11.005   6.089 -0.2956  0.0214  0.0988
  969POPC   C1A13443   8.065  11.198   6.593  0.0662  0.0105  0.0325
  969POPC   D2A13444   7.829  10.927   6.830 -0.0931  0.1317  0.0622
  969POPC   C3A13445   7.498  10.845   6.630  0.1145  0.0163 -0.0170
  969POPC   C4A13446   7.110  10.600   6.728 -0.1648 -0.0770 -0.1937
  969POPC   C1B13447   7.677  10.994   6.107  0.1118 -0.2954  0.1895
  969POPC   C2B13448   7.279  11.118   6.162 -0.0413 -0.4042  0.1354
  969POPC   C3B13449   6.962  11.412   6.366  0.1445 -0.0838  0.2506
  969POPC   C4B13450   6.601  11.524   6.683  0.0840  0.1773 -0.0913
  970POPC   NC313451  13.962  17.893   5.349 -0.1674 -0.0154  0.3878
  970POPC   PO413452  14.351  17.774   5.240 -0.0077  0.2553 -0.0760
  970POPC   GL113453  14.297  17.573   5.601  0.0522 -0.5307 -0.0243
  970POPC   GL213454  14.522  17.379   5.826  0.0042  0.1069  0.2558
  970POPC   C1A13455  14.346  17.848   6.000 -0.1475 -0.1237  0.0631
  970POPC   D2A13456  14.284  17.816   6.451 -0.0680 -0.0944 -0.3011
  970POPC   C3A13457  14.133  17.454   6.618  0.1688 -0.0841 -0.1223
  970POPC   C4A13458  14.028  17.215   6.971 -0.2599  0.0279 -0.0858
  970POPC   C1B13459  14.199  17.343   6.041  0.1888 -0.0353  0.1784
  970POPC   C2B13460  13.877  17.096   6.102 -0.2218 -0.2545 -0.0769
  970POPC   C3B13461  13.678  16.700   6.143 -0.1332  0.1166 -0.1138
  970POPC   C4B13462  13.483  16.442   6.546 -0.0668 -0.1979 -0.0400
  971POPC   NC313463   7.249  18.435   5.313  0.2128  0.4552  0.1287
  971POPC   PO413464   7.623  18.302   5.158 -0.0577 -0.1679 -0.1045
  971POPC   GL113465   7.941  18.139   5.464  0.2000 -0.0022  0.0917
  971POPC   GL213466   7.997  18.471   5.638  0.0014 -0.0072 -0.1661
  971POPC   C1A13467   7.852  18.085   5.899  0.2992 -0.0081  0.2172
  971POPC   D2A13468   7.805  18.331   6.218  0.1447  0.1092  0.1666
  971POPC   C3A13469   7.629  18.042   6.518 -0.1235  0.0363  0.3525
  971POPC   C4A13470   7.518  17.868   6.967 -0.2219 -0.2371  0.1585
  971POPC   C1B13471   7.797  18.695   5.905 -0.2070 -0.2028 -0.0023
  971POPC   C2B13472   7.598  18.845   6.415 -0.1285  0.1670  0.0337
  971POPC   C3B13473   7.788  18.650   6.801  0.2815 -0.1651  0.0280
  971POPC   C4B13474   7.995  18.290   6.916 -0.3220  0.1196  0.2824
  972POPC   NC313475  11.252  18.708   5.228  0.1963  0.3553  0.0080
  972POPC   PO413476  10.881  18.438   5.403 -0.0197 -0.0773  0.2153
  972POPC   GL113477  10.558  18.548   5.700  0.0913  0.1201 -0.0438
  972POPC   GL213478  10.421  18.873   5.782  0.2070 -0.0077  0.1917
  972POPC   C1A13479  10.200  18.453   5.920 -0.2907  0.2436  0.1778
  972POPC   D2A13480  10.129  18.267   6.336 -0.2332 -0.2589  0.2043
  972POPC   C3A13481   9.737  18.243   6.497 -0.1509  0.0857 -0.1694
  972POPC   C4A13482   9.407  17.951   6.766  0.1200 -0.2241  0.0644
  972POPC   C1B13483  10.269  18.872   6.217 -0.0095  0.1833  0.0438
  972POPC   C2B13484  10.398  18.851   6.602  0.1487 -0.0196 -0.0463
  972POPC   C3B13485  10.468  18.754   7.052  0.1275  0.1178 -0.0074
  972POPC   C4B13486  10.372  18.552   7.387 -0.3154 -0.0968  0.0240
  973POPC   NC313487   2.728  12.860   5.575 -0.3541  0.2218  0.0574
  973POPC   PO413488   2.939  13.161   5.480  0.0440 -0.1052  0.3136
  973POPC   GL113489   2.916  13.194   5.968  0.1748 -0.0447 -0.1785
  973POPC   GL213490   3.268  13.191   6.173  0.2757 -0.1820  0.1808
  973POPC   C1A13491   2.980  13.636   6.283 -0.2140 -0.0937  0.3769
  973POPC   D2A13492   2.999  13.821   6.746 -0.1820  0.0030  0.1091
  973POPC   C3A13493   2.717  13.991   7.104 -0.1126 -0.1010  0.1721
  973POPC   C4A13494   2.329  13.941   7.157 -0.0761  0.1295 -0.0761
  973POPC   C1B13495   3.316  13.191   6.527 -0.0221 -0.1579  0.2952
  973POPC   C2B13496   3.129  13.321   6.826  0.0516  0.1449 -0.2663
  973POPC   C3B13497   3.015  13.541   7.237 -0.2333  0.3370 -0.2249
  973POPC   C4B13498   2.916  13.788   7.539 -0.0671 -0.2165  0.1174
  974POPC   NC313499  16.173   1.511   5.763 -0.0504 -0.0095 -0.1422
  974POPC   PO413500  16.281   2.015   5.926 -0.0072  0.0618 -0.0761
  974POPC   GL113501  16.139   2.347   6.211  0.0007 -0.1994  0.1088
  974POPC   GL213502  16.035   2.514   6.003 -0.0459  0.1460 -0.2026
  974POPC   C1A13503  16.005   2.507   6.529  0.1183 -0.2240 -0.1882
  974POPC   D2A13504  15.575   2.496   6.792 -0.1587 -0.0016  0.0828
  974POPC   C3A13505  15.716   2.223   7.153 -0.1012  0.1096  0.0273
  974POPC   C4A13506  15.882   2.241   7.547  0.0464  0.1068  0.0623
  974POPC   C1B13507  15.622   2.534   6.141 -0.2135  0.2596  0.0499
  974POPC   C2B13508  15.188   2.619   6.045 -0.1148  0.0931 -0.0155
  974POPC   C3B13509  14.798   2.629   6.205  0.0970  0.3390 -0.1380
  974POPC   C4B13510  14.527   2.472   6.522  0.1476 -0.1767 -0.1678
  975POPC   NC313511   7.300   2.444   5.349 -0.1739  0.1471 -0.1713
  975POPC   PO413512   7.485   2.071   5.418  0.1621  0.3979 -0.1107
  975POPC   GL113513   7.286   1.910   5.740  0.1703 -0.1635  0.0236
  975POPC   GL213514   7.481   1.695   5.900  0.4189 -0.0954 -0.3080
  975POPC   C1A13515   7.338   2.123   6.163 -0.2421  0.1494 -0.1443
  975POPC   D2A13516   7.551   2.025   6.381 -0.0115  0.2445  0.2183
  975POPC   C3A13517   7.218   2.021   6.663 -0.7584  0.0722  0.1367
  975POPC   C4A13518   6.923   2.101   7.055 -0.1557 -0.1063 -0.0801
  975POPC   C1B13519   7.832   2.038   5.991  0.0149 -0.0177  0.0574
  975POPC   C2B13520   7.968   2.324   6.151  0.3223  0.0909 -0.0604
  975POPC   C3B13521   8.124   2.505   6.501 -0.0841  0.0304 -0.2461
  975POPC   C4B13522   8.247   2.788   6.833  0.0966 -0.0294  0.1382
  976POPC   NC313523  15.143  14.673   4.963 -0.0699 -0.2300  0.2101
  976POPC   PO413524  14.860  14.848   5.272 -0.2403  0.0186 -0.1135
  976POPC   GL113525  14.734  15.025   5.692  0.2604 -0.0623  0.3095
  976POPC   GL213526  14.923  14.945   6.080  0.0649 -0.1296  0.2925
  976POPC   C1A13527  14.599  15.291   5.962 -0.2183  0.0597 -0.3898
  976POPC   D2A13528  14.848  15.562   6.064 -0.4137 -0.1039 -0.1532
  976POPC   C3A13529  14.743  15.912   5.938 -0.1165 -0.0902 -0.1529
  976POPC   C4A13530  14.514  16.227   6.193  0.0428 -0.1341 -0.0957
  976POPC   C1B13531  15.265  15.061   6.212  0.1627  0.0916 -0.1773
  976POPC   C2B13532  15.437  15.029   6.542 -0.3260  0.0322  0.0939
  976POPC   C3B13533  15.697  15.326   6.741 -0.0135 -0.1470  0.0274
  976POPC   C4B13534  15.626  15.688   7.152 -0.0417  0.0614  0.2576
  977POPC   NC313535  12.257  10.259   5.614  0.1272  0.0088  0.1853
  977POPC   PO413536  11.752  10.166   5.587 -0.1887  0.1771 -0.1258
  977POPC   GL113537  11.560  10.142   5.936 -0.0080 -0.1767  0.0249
  977POPC   GL213538  11.399   9.910   6.055 -0.1725 -0.1565 -0.0484
  977POPC   C1A13539  11.788  10.382   6.326 -0.3389  0.0308 -0.4554
  977POPC   D2A13540  12.112  10.783   6.390  0.0735  0.0745  0.0595
  977POPC   C3A13541  12.079  11.193   6.334  0.1406  0.0931  0.2977
  977POPC   C4A13542  12.054  11.654   6.165 -0.0827 -0.2215 -0.1478
  977POPC   C1B13543  11.507  10.066   6.497 -0.2361 -0.2665  0.1517
  977POPC   C2B13544  11.524  10.382   6.764  0.0043  0.1464  0.0173
  977POPC   C3B13545  11.663  10.319   7.154 -0.0600  0.1168  0.0532
  977POPC   C4B13546  11.909  10.131   7.416 -0.1550 -0.0740 -0.3281
  978POPC   NC313547  11.156   6.500   5.191  0.0999  0.0495 -0.0004
  978POPC   PO413548  10.749   6.316   5.460 -0.2035 -0.1012 -0.2862
  978POPC   GL113549  10.625   6.309   5.831  0.0960  0.1630 -0.1506
  978POPC   GL213550  10.899   6.153   5.894  0.1961  0.2578 -0.1802
  978POPC   C1A13551  10.487   6.017   6.285 -0.0304 -0.0408 -0.0177
  978POPC   D2A13552  10.085   6.116   6.608  0.1522 -0.0360 -0.1319
  978POPC   C3A13553   9.916   5.996   6.925 -0.0362 -0.1368 -0.0583
  978POPC   C4A13554   9.543   6.042   7.119  0.4527  0.0351 -0.1982
  978POPC   C1B13555  10.965   5.889   6.202 -0.2151  0.3276  0.1325
  978POPC   C2B13556  10.950   5.808   6.603 -0.2949  0.0487  0.2447
  978POPC   C3B13557  10.945   5.876   6.976 -0.1679  0.0792 -0.2128
  978POPC   C4B13558  11.175   6.060   7.323 -0.0012 -0.0884  0.1211
  979POPC   NC313559   9.192  15.351   5.319  0.1114 -0.0360 -0.1625
  979POPC   PO413560   9.515  15.107   5.431 -0.0891 -0.0656  0.0725
  979POPC   GL113561   9.418  14.852   5.763  0.4915 -0.2852  0.0371
  979POPC   GL213562   9.270  15.082   5.856  0.1167  0.0356 -0.1392
  979POPC   C1A13563   9.567  14.599   6.065 -0.0822  0.1620  0.3993
  979POPC   D2A13564   9.468  14.516   6.378 -0.0683  0.0753  0.1082
  979POPC   C3A13565   9.035  14.398   6.595  0.1744 -0.0458 -0.0212
  979POPC   C4A13566   8.670  14.585   6.443 -0.0582 -0.3559  0.0283
  979POPC   C1B13567   9.002  15.340   6.049 -0.0620 -0.3387 -0.0724
  979POPC   C2B13568   8.669  15.614   6.373  0.0455 -0.1645 -0.1197
  979POPC   C3B13569   8.468  15.644   6.761  0.0828  0.1498  0.0088
  979POPC   C4B13570   8.472  15.660   7.278 -0.2663 -0.0330 -0.3118
  980POPC   NC313571  15.442  13.497   5.513 -0.0843 -0.2818  0.0719
  980POPC   PO413572  15.574  13.130   5.676  0.4353  0.0096  0.2416
  980POPC   GL113573  15.402  13.450   5.998  0.3360  0.3614  0.2717
  980POPC   GL213574  15.725  13.561   6.128  0.2309 -0.1919  0.0469
  980POPC   C1A13575  15.033  13.450   6.178 -0.1938 -0.0740 -0.0074
  980POPC   D2A13576  14.959  13.582   6.561  0.1343 -0.1027 -0.0444
  980POPC   C3A13577  15.273  13.852   6.859 -0.0524  0.1317 -0.1302
  980POPC   C4A13578  15.343  13.891   7.299  0.1589  0.1007  0.2194
  980POPC   C1B13579  15.439  13.568   6.458 -0.2463  0.1874  0.0626
  980POPC   C2B13580  15.295  13.183   6.656  0.0736  0.1376  0.0288
  980POPC   C3B13581  14.974  13.158   7.011  0.1699  0.2904  0.1238
  980POPC   C4B13582  14.863  13.041   7.442 -0.0672  0.3237 -0.0951
  981POPC   NC313583  12.036   0.918   5.400 -0.0043 -0.1287  0.3785
  981POPC   PO413584  12.046   0.805   5.804 -0.2241  0.2241 -0.2268
  981POPC   GL113585  12.132   1.027   6.132 -0.0525  0.0121 -0.0343
  981POPC   GL213586  12.424   0.940   6.180  0.3247  0.0808  0.1265
  981POPC   C1A13587  12.062   1.193   6.481 -0.0697  0.1781  0.1481
  981POPC   D2A13588  11.861   1.566   6.643  0.2173  0.0566  0.2115
  981POPC   C3A13589  11.869   1.867   6.987  0.1509 -0.5237 -0.3695
  981POPC   C4A13590  11.968   1.910   7.433  0.3288 -0.0040  0.0374
  981POPC   C1B13591  12.570   0.990   6.493  0.0474 -0.1420  0.0113
  981POPC   C2B13592  12.398   1.264   6.819  0.1581  0.1932 -0.1837
  981POPC   C3B13593  12.131   1.392   7.060  0.0239  0.0541  0.0051
  981POPC   C4B13594  11.846   1.375   7.405 -0.2238 -0.1001 -0.2510
  982YOPC   NC313595  11.594   8.770   5.560  0.1272 -0.1414  0.0005
  982YOPC   PO413596  12.017   8.547   5.506  0.0384 -0.1514 -0.1555
  982YOPC   GL113597  12.035   8.471   5.949 -0.1494 -0.2619  0.0391
  982YOPC   GL213598  12.151   8.134   6.016 -0.0284 -0.0324  0.1861
  982YOPC   C1A13599  11.851   8.318   6.376 -0.0015  0.0536 -0.0950
  982YOPC   D2A13600  12.081   8.065   6.546  0.1320  0.1067 -0.1467
  982YOPC   C3A13601  12.077   7.943   6.880 -0.0344  0.1098 -0.2600
  982YOPC   C4A13602  12.192   7.721   7.274  0.3782  0.0104  0.0370
  982YOPC   C1B13603  12.376   8.482   6.329 -0.0358  0.0277  0.0579
  982YOPC   C2B13604  12.217   8.537   6.731  0.1096 -0.0229 -0.1834
  982YOPC   D3B13605  11.918   8.577   6.825 -0.3723 -0.1339  0.0506
  982YOPC   C4B13606  11.671   8.162   6.780 -0.1244 -0.0785 -0.3252
  983YOPC   NC313607  16.187   2.364   5.519  0.1602 -0.0830 -0.0028
  983YOPC   PO413608  16.340   2.766   5.689  0.3784  0.1099  0.0499
  983YOPC   GL113609  16.671   2.909   6.090 -0.1971  0.1884 -0.1821
  983YOPC   GL213610  16.614   2.643   6.142  0.1999 -0.1899 -0.2334
  983YOPC   C1A13611  16.988   2.944   6.444  0.1995 -0.1253 -0.0861
  983YOPC   D2A13612  16.984   2.776   6.893 -0.0363  0.1649 -0.1570
  983YOPC   C3A13613  16.825   2.940   7.197  0.1231  0.3615 -0.1150
  983YOPC   C4A13614  16.525   3.123   7.372  0.1255  0.2182  0.0244
  983YOPC   C1B13615  16.373   2.858   6.469  0.1815  0.1055 -0.2808
  983YOPC   C2B13616  16.323   2.831   6.934 -0.0717 -0.0869 -0.1220
  983YOPC   D3B13617  16.208   2.437   7.010 -0.1142  0.2943 -0.0641
  983YOPC   C4B13618  16.219   1.998   7.193 -0.0579  0.1795 -0.2468
  984YOPC   NC313619   9.857   2.915   5.736 -0.1541 -0.1951 -0.3505
  984YOPC   PO413620   9.681   2.474   5.841  0.0534 -0.0109  0.3441
  984YOPC   GL113621   9.570   2.664   6.199  0.0739 -0.4345  0.2321
  984YOPC   GL213622   9.838   2.739   6.265 -0.1135  0.0586  0.1301
  984YOPC   C1A13623   9.451   2.567   6.649  0.3479 -0.1340  0.0019
  984YOPC   D2A13624   9.481   2.594   7.106 -0.1430  0.1433 -0.2956
  984YOPC   C3A13625   9.479   2.098   7.223  0.2348 -0.5149  0.0584
  984YOPC   C4A13626   9.170   1.783   7.400 -0.2140  0.2825  0.0514
  984YOPC   C1B13627  10.172   2.525   6.468  0.1166 -0.0233 -0.0844
  984YOPC   C2B13628  10.485   2.373   6.783 -0.0666  0.0182 -0.0015
  984YOPC   D3B13629  10.341   2.194   7.156  0.0437  0.1579 -0.2373
  984YOPC   C4B13630   9.927   2.046   7.370 -0.0803  0.0188  0.3849
  985YOPC   NC313631  15.508  18.676   5.903 -0.0414 -0.0295 -0.0828
  985YOPC   PO413632  15.831  18.434   6.055  0.0315 -0.0379  0.2047
  985YOPC   GL113633  15.470  18.482   6.353 -0.1077  0.0178  0.1226
  985YOPC   GL213634  15.420  18.244   6.490  0.1895 -0.1828 -0.0881
  985YOPC   C1A13635  15.222  18.885   6.445  0.0367  0.4280 -0.0651
  985YOPC   D2A13636  15.119  19.308   6.517 -0.0818  0.4273 -0.1975
  985YOPC   C3A13637  15.076  19.288   6.919 -0.0903  0.1038 -0.0048
  985YOPC   C4A13638  14.952  19.080   7.210  0.1080 -0.1576 -0.2087
  985YOPC   C1B13639  15.282  18.300   6.886  0.1225  0.1048 -0.1485
  985YOPC   C2B13640  15.216  18.276   7.313  0.1648 -0.1979 -0.1616
  985YOPC   D3B13641  14.920  18.514   7.285  0.1889  0.1089 -0.1440
  985YOPC   C4B13642  14.462  18.578   7.168 -0.0393 -0.1158  0.2859
  986YOPC   NC313643  18.147   6.353   5.692 -0.0049  0.1808 -0.0281
  986YOPC   PO413644  17.694   6.352   5.621  0.1090 -0.1428 -0.0114
  986YOPC   GL113645  17.749   6.285   6.053  0.1707  0.4285 -0.2566
  986YOPC   GL213646  18.013   6.524   6.163 -0.1462  0.2337  0.0241
  986YOPC   C1A13647  17.577   6.387   6.507 -0.1766 -0.1882  0.2081
  986YOPC   D2A13648  17.414   6.330   7.006  0.2896 -0.1892 -0.1167
  986YOPC   C3A13649  17.157   6.271   7.328  0.0848  0.0107 -0.1478
  986YOPC   C4A13650  16.786   6.158   7.537  0.0680 -0.1612  0.2689
  986YOPC   C1B13651  18.061   6.511   6.611 -0.0378  0.0604 -0.3596
  986YOPC   C2B13652  17.933   6.210   6.891  0.2891  0.2590  0.0509
  986YOPC   D3B13653  18.105   6.129   7.310 -0.1294  0.1631  0.0184
  986YOPC   C4B13654  18.117   6.126   7.766 -0.2115 -0.1397  0.4272
  987YOPC   NC313655  17.145  10.333   5.253  0.1565 -0.0374 -0.0989
  987YOPC   PO413656  17.366  10.479   5.615 -0.5144 -0.0873 -0.0910
  987YOPC   GL113657  17.355  10.712   6.034 -0.4282  0.0644 -0.1622
  987YOPC   GL213658  17.220  10.980   6.162 -0.0857 -0.0376  0.1799
  987YOPC   C1A13659  17.234  10.470   6.412 -0.3220 -0.1688 -0.1777
  987YOPC   D2A13660  17.377  10.471   6.861 -0.0372 -0.2875  0.2281
  987YOPC   C3A13661  17.289  10.186   7.247 -0.1341  0.3843 -0.1971
  987YOPC   C4A13662  17.263   9.745   7.435 -0.1524  0.0148  0.0709
  987YOPC   C1B13663  17.355  10.917   6.611 -0.0471  0.1461  0.2494
  987YOPC   C2B13664  17.408  11.104   6.950 -0.1755 -0.4508  0.0175
  987YOPC   D3B13665  17.479  11.221   7.320 -0.0849  0.0821 -0.0824
  987YOPC   C4B13666  17.875  11.516   7.407 -0.2110 -0.0443  0.2200
  988YOPC   NC313667   2.831  13.777   5.414  0.2034 -0.0941  0.0369
  988YOPC   PO413668   2.551  14.063   5.325 -0.3282 -0.0452  0.0459
  988YOPC   GL113669   2.437  14.393   5.503  0.0755  0.0708  0.1954
  988YOPC   GL213670   2.656  14.580   5.637  0.1465 -0.2232 -0.2259
  988YOPC   C1A13671   2.287  14.477   5.919  0.0395 -0.1465 -0.1758
  988YOPC   D2A13672   2.281  14.685   6.273  0.1560  0.0258 -0.0638
  988YOPC   C3A13673   2.052  14.599   6.586 -0.0217  0.2486 -0.0065
  988YOPC   C4A13674   1.702  14.790   6.821  0.0608 -0.0628 -0.0556
  988YOPC   C1B13675   2.755  14.604   6.148 -0.0366  0.0632  0.1555
  988YOPC   C2B13676   2.765  14.699   6.564 -0.1628 -0.1386 -0.2016
  988YOPC   D3B13677   3.034  14.794   6.929  0.4106  0.0107 -0.0510
  988YOPC   C4B13678   3.203  14.771   7.358  0.1313 -0.2940  0.0839
  989YOPC   NC313679  16.760   1.813   5.878  0.2915 -0.2789 -0.1169
  989YOPC   PO413680  17.141   1.690   5.942  0.0530  0.0124 -0.0172
  989YOPC   GL113681  17.134   1.264   6.283 -0.1057  0.0930 -0.0480
  989YOPC   GL213682  16.938   0.945   6.189  0.1057 -0.0524  0.0863
  989YOPC   C1A13683  17.082   1.078   6.650  0.2735  0.0555 -0.1129
  989YOPC   D2A13684  16.873   0.929   6.948 -0.1531 -0.2740 -0.0321
  989YOPC   C3A13685  16.859   1.046   7.338  0.0467 -0.3170  0.0551
  989YOPC   C4A13686  17.047   1.333   7.504 -0.0082  0.1051  0.0702
  989YOPC   C1B13687  17.191   0.608   6.448  0.0155  0.0288 -0.0415
  989YOPC   C2B13688  17.078   0.372   6.753 -0.2135  0.1461  0.2075
  989YOPC   D3B13689  16.860   0.435   7.012  0.2817  0.0538 -0.0665
  989YOPC   C4B13690  16.848   0.458   7.447  0.0845 -0.0730 -0.2173
  990YOPC   NC313691  16.233   6.422   5.932 -0.1863  0.0394 -0.0073
  990YOPC   PO413692  15.774   6.442   5.952 -0.0494 -0.0066  0.1632
  990YOPC   GL113693  15.912   6.127   6.323  0.1107 -0.0562 -0.1700
  990YOPC   GL213694  16.210   6.006   6.265  0.0385 -0.3549 -0.2103
  990YOPC   C1A13695  15.716   5.951   6.654 -0.0058 -0.0506  0.1004
  990YOPC   D2A13696  15.547   5.599   6.888  0.0928  0.1532  0.0705
  990YOPC   C3A13697  15.609   5.420   7.367  0.1871  0.1859 -0.1035
  990YOPC   C4A13698  15.426   5.345   7.691 -0.5614 -0.0061  0.1113
  990YOPC   C1B13699  16.139   6.242   6.728  0.0446  0.2270 -0.0005
  990YOPC   C2B13700  16.327   6.391   7.297 -0.0717 -0.0742 -0.1322
  990YOPC   D3B13701  16.161   6.118   7.561 -0.0286 -0.4066  0.0662
  990YOPC   C4B13702  15.926   5.726   7.722  0.0797 -0.0055 -0.0393
  991YOPC   NC313703   3.888  15.802   5.535  0.1066 -0.3317  0.2357
  991YOPC   PO413704   3.856  15.826   5.116  0.0754 -0.0696  0.2549
  991YOPC   GL113705   3.366  15.753   5.275 -0.0765  0.2964 -0.0744
  991YOPC   GL213706   3.441  16.038   5.491  0.3730 -0.1860  0.0675
  991YOPC   C1A13707   3.122  15.757   5.697 -0.0874 -0.2898  0.0907
  991YOPC   D2A13708   3.162  15.839   6.131 -0.0154 -0.1244 -0.0641
  991YOPC   C3A13709   3.332  15.874   6.520  0.1671  0.0368  0.0139
  991YOPC   C4A13710   3.179  16.019   6.913  0.0756 -0.0207 -0.1108
  991YOPC   C1B13711   3.496  16.199   5.919  0.2493  0.0720  0.2954
  991YOPC   C2B13712   3.617  16.326   6.247 -0.0665  0.0524 -0.0564
  991YOPC   D3B13713   4.029  16.505   6.422 -0.2871 -0.0882 -0.0419
  991YOPC   C4B13714   4.267  16.849   6.396 -0.1292 -0.1858  0.2055
  992YOPC   NC313715   4.137  18.444   5.453  0.0577  0.1945  0.0882
  992YOPC   PO413716   4.103  18.008   5.299 -0.1686 -0.1322  0.0722
  992YOPC   GL113717   3.800  17.866   5.637 -0.0845 -0.1438  0.2400
  992YOPC   GL213718   3.824  18.131   5.789  0.3922  0.0530 -0.1709
  992YOPC   C1A13719   3.662  17.799   6.059 -0.1776  0.1446 -0.0032
  992YOPC   D2A13720   3.729  17.692   6.534 -0.0195 -0.0869  0.2414
  992YOPC   C3A13721   4.050  17.661   6.674  0.0426  0.0828 -0.3092
  992YOPC   C4A13722   4.294  17.776   6.966  0.5107 -0.2235  0.3082
  992YOPC   C1B13723   3.863  18.271   6.087 -0.2385 -0.1321 -0.1166
  992YOPC   C2B13724   3.763  18.368   6.454  0.2004 -0.0828  0.3264
  992YOPC   D3B13725   3.414  18.594   6.390 -0.0440 -0.0298 -0.0269
  992YOPC   C4B13726   3.233  18.880   6.149 -0.3527  0.2172 -0.1957
  993YOPC   NC313727   9.863  12.869   5.336 -0.0815  0.1960 -0.0384
  993YOPC   PO413728   9.936  13.379   5.406  0.1371  0.0817  0.1949
  993YOPC   GL113729   9.896  13.125   5.800 -0.1605  0.0762  0.1069
  993YOPC   GL213730   9.642  12.946   5.844 -0.1909  0.0909 -0.0670
  993YOPC   C1A13731   9.904  13.121   6.232  0.2073  0.0368 -0.1703
  993YOPC   D2A13732   9.936  12.990   6.658  0.1743 -0.1893  0.0711
  993YOPC   C3A13733   9.717  12.886   7.002  0.1827  0.0570 -0.2366
  993YOPC   C4A13734   9.236  12.888   7.031 -0.2471  0.4891 -0.0514
  993YOPC   C1B13735   9.304  13.082   6.146  0.0279 -0.1588 -0.2355
  993YOPC   C2B13736   8.921  13.021   6.164  0.1757 -0.0211  0.1223
  993YOPC   D3B13737   8.672  12.627   6.328 -0.3291 -0.0958  0.1511
  993YOPC   C4B13738   8.444  12.707   6.540  0.0062 -0.0668 -0.2837
  994YOPC   NC313739   8.136   3.523   5.043  0.4079  0.0747 -0.4206
  994YOPC   PO413740   8.009   3.770   5.393 -0.1555  0.0192 -0.2426
  994YOPC   GL113741   7.996   3.782   5.850 -0.0266 -0.0567 -0.1068
  994YOPC   GL213742   8.146   4.060   5.931 -0.0241  0.0253  0.0567
  994YOPC   C1A13743   7.994   3.689   6.281  0.1523 -0.2572  0.1087
  994YOPC   D2A13744   7.657   3.610   6.596 -0.2160  0.2892 -0.1317
  994YOPC   C3A13745   7.748   3.521   7.043 -0.3490 -0.3868 -0.0540
  994YOPC   C4A13746   7.770   3.231   7.432 -0.0774  0.2036 -0.0157
  994YOPC   C1B13747   7.866   4.168   6.283  0.0852  0.1094 -0.0567
  994YOPC   C2B13748   7.858   4.140   6.685 -0.0755  0.2208  0.1640
  994YOPC   D3B13749   7.462   4.081   6.701  0.1007 -0.0921  0.0711
  994YOPC   C4B13750   7.110   3.737   6.857 -0.0037  0.1875  0.0633
  995YOPC   NC313751   5.351  13.666   5.429  0.2129  0.1141 -0.0896
  995YOPC   PO413752   5.848  13.643   5.475  0.0944 -0.1993 -0.2723
  995YOPC   GL113753   5.651  13.660   5.915 -0.4271 -0.1935  0.1748
  995YOPC   GL213754   5.305  13.723   5.879  0.0434 -0.0050 -0.0468
  995YOPC   C1A13755   5.826  13.818   6.321 -0.0656  0.4432 -0.4248
  995YOPC   D2A13756   5.808  13.753   6.675 -0.0448  0.1091  0.4137
  995YOPC   C3A13757   5.825  13.555   6.875 -0.1295 -0.0399 -0.3008
  995YOPC   C4A13758   5.737  13.088   6.840 -0.0585  0.4022 -0.2029
  995YOPC   C1B13759   5.257  13.820   6.355 -0.0400  0.2682 -0.0439
  995YOPC   C2B13760   5.202  14.292   6.492  0.1753  0.0393  0.2200
  995YOPC   D3B13761   5.117  14.448   6.977  0.3007 -0.1210  0.1046
  995YOPC   C4B13762   5.370  14.473   7.357  0.0897 -0.0745 -0.0140
  996YOPC   NC313763  13.363   9.884   5.513 -0.0689  0.0061  0.0478
  996YOPC   PO413764  13.349   9.441   5.794  0.2119  0.1006 -0.1984
  996YOPC   GL113765  13.178   9.059   6.020  0.0351  0.2088 -0.2195
  996YOPC   GL213766  13.361   8.788   6.098 -0.0097  0.0004 -0.1959
  996YOPC   C1A13767  12.807   8.877   6.281 -0.1789 -0.0623 -0.1721
  996YOPC   D2A13768  12.455   9.082   6.472  0.1999  0.0063  0.1879
  996YOPC   C3A13769  12.404   9.567   6.445 -0.2708 -0.1963  0.0680
  996YOPC   C4A13770  12.075   9.862   6.431 -0.0648 -0.1304  0.1594
  996YOPC   C1B13771  13.222   8.709   6.469  0.0833  0.0098  0.0875
  996YOPC   C2B13772  13.313   8.418   6.808 -0.1429  0.0949  0.1154
  996YOPC   D3B13773  13.217   8.037   6.593  0.2096 -0.2031 -0.0496
  996YOPC   C4B13774  13.081   7.679   6.395  0.1155  0.2026  0.2166
  997YOPC   NC313775  11.686   5.688   5.450  0.2708 -0.1317 -0.0394
  997YOPC   PO413776  11.297   5.363   5.581 -0.0604 -0.2378 -0.3959
  997YOPC   GL113777  11.384   5.645   5.884 -0.1019 -0.1452 -0.0321
  997YOPC   GL213778  11.610   5.401   6.152  0.0102  0.1070  0.2155
  997YOPC   C1A13779  11.426   5.880   6.259 -0.0620 -0.0883  0.1882
  997YOPC   D2A13780  11.432   5.916   6.770 -0.1107  0.1473 -0.0518
  997YOPC   C3A13781  11.712   6.242   7.043 -0.1192 -0.2911  0.3426
  997YOPC   C4A13782  12.019   6.071   7.426  0.0827  0.2249 -0.0968
  997YOPC   C1B13783  11.721   5.460   6.643  0.1796 -0.1187 -0.2613
  997YOPC   C2B13784  11.809   5.717   6.994 -0.1563 -0.1615 -0.0293
  997YOPC   D3B13785  11.516   5.673   7.262 -0.2808 -0.1046  0.0854
  997YOPC   C4B13786  11.387   5.657   7.763  0.0442  0.2176  0.1702
  998YOPC   NC313787  15.128  15.275   5.470  0.0946 -0.3604 -0.0678
  998YOPC   PO413788  15.492  15.585   5.368  0.1761  0.1681  0.2237
  998YOPC   GL113789  15.564  15.597   5.821 -0.2696  0.0489  0.1847
  998YOPC   GL213790  15.305  15.546   5.877 -0.0037 -0.2306 -0.1227
  998YOPC   C1A13791  15.566  15.563   6.339  0.0911  0.1732  0.0766
  998YOPC   D2A13792  15.154  15.638   6.495 -0.1744 -0.1793  0.0938
  998YOPC   C3A13793  15.185  15.491   6.909  0.1297 -0.1000 -0.0627
  998YOPC   C4A13794  15.310  15.101   7.086 -0.0082 -0.4267 -0.1081
  998YOPC   C1B13795  15.270  15.902   6.100 -0.1919 -0.0791  0.3318
  998YOPC   C2B13796  15.028  16.150   6.373 -0.1082  0.2305 -0.0768
  998YOPC   D3B13797  14.853  16.036   6.762 -0.1123  0.1078  0.0042
  998YOPC   C4B13798  14.862  15.908   7.209  0.1266 -0.1089 -0.2861
  999YOPC   NC313799  11.319  10.939   5.281 -0.0550  0.2568 -0.2083
  999YOPC   PO413800  11.549  11.155   5.527  0.0342  0.1078 -0.2398
  999YOPC   GL113801  11.443  11.381   6.008 -0.2156 -0.0282 -0.1913
  999YOPC   GL213802  11.594  11.546   6.035 -0.0559  0.1462 -0.1703
  999YOPC   C1A13803  11.217  11.342   6.365  0.3493  0.0584 -0.0198
  999YOPC   D2A13804  11.240  11.239   6.792  0.0982  0.0397 -0.2311
  999YOPC   C3A13805  11.467  11.493   7.000 -0.4334 -0.2752  0.1369
  999YOPC   C4A13806  11.699  11.731   7.233  0.0644 -0.1152  0.2649
  999YOPC   C1B13807  11.699  11.461   6.508  0.0369 -0.0989 -0.1187
  999YOPC   C2B13808  11.962  11.591   6.830 -0.1993  0.1399  0.0352
  999YOPC   D3B13809  12.263  11.185   6.833  0.0335  0.0601  0.1743
  999YOPC   C4B13810  12.598  10.909   6.571 -0.0908  0.3001 -0.0470
 1000YOPC   NC313811   6.110   7.079   5.525  0.1507  0.0649 -0.3740
 1000YOPC   PO413812   5.565   7.162   5.506 -0.2034  0.1224  0.0155
 1000YOPC   GL113813   5.485   6.967   5.847 -0.1074  0.0403 -0.0049
 1000YOPC   GL213814   5.582   6.699   5.883  0.0650  0.0525 -0.0788
 1000YOPC   C1A13815   5.500   6.867   6.362 -0.2196 -0.2656  0.0641
 1000YOPC   D2A13816   5.449   6.742   6.695  0.2019  0.1216  0.3141
 1000YOPC   C3A13817   5.120   6.589   6.809  0.1415  0.2385 -0.2223
 1000YOPC   C4A13818   4.923   6.412   7.055  0.1006  0.0287 -0.1286
 1000YOPC   C1B13819   5.953   6.774   6.160  0.1646  0.0785 -0.2291
 1000YOPC   C2B13820   5.954   6.951   6.590  0.2970 -0.0471  0.3191
 1000YOPC   D3B13821   5.603   7.280   6.650 -0.0620  0.2229  0.2717
 1000YOPC   C4B13822   5.360   7.639   6.541 -0.2157 -0.0260  0.4014
 1001YOPC   NC313823  11.124  12.506   5.208  0.2217 -0.2316  0.0797
 1001YOPC   PO413824  10.964  12.343   5.524 -0.1310 -0.5070  0.0367
 1001YOPC   GL113825  10.811  12.194   5.976  0.0141 -0.1194  0.4305
 1001YOPC   GL213826  11.076  12.233   6.169  0.0457 -0.1081  0.0943
 1001YOPC   C1A13827  10.639  12.199   6.357 -0.1671 -0.3555 -0.0206
 1001YOPC   D2A13828  10.872  12.252   6.720  0.0140 -0.1495  0.4658
 1001YOPC   C3A13829  10.665  12.594   7.014 -0.1801 -0.0909  0.0604
 1001YOPC   C4A13830  10.697  12.869   7.311  0.2014 -0.2407 -0.1036
 1001YOPC   C1B13831  11.176  12.556   6.456 -0.1450  0.1566  0.0539
 1001YOPC   C2B13832  11.304  12.549   6.857 -0.3209  0.3087 -0.1913
 1001YOPC   D3B13833  11.176  12.678   7.156 -0.0100 -0.0033 -0.1401
 1001YOPC   C4B13834  11.093  12.907   7.565 -0.2000  0.1438 -0.1094
 1002YOPC   NC313835   9.645  17.361   5.256 -0.0225 -0.0473 -0.1041
 1002YOPC   PO413836  10.047  17.627   5.079  0.2065  0.1749  0.1290
 1002YOPC   GL113837  10.056  17.645   5.469 -0.4333  0.0835 -0.1060
 1002YOPC   GL213838  10.254  17.400   5.588  0.3451  0.0844 -0.0714
 1002YOPC   C1A13839  10.270  17.860   5.881  0.0162 -0.0355 -0.1772
 1002YOPC   D2A13840  10.429  17.823   6.291  0.0923 -0.1096 -0.2429
 1002YOPC   C3A13841  10.336  17.563   6.522  0.4364 -0.1654 -0.0124
 1002YOPC   C4A13842  10.184  17.221   6.728  0.2497 -0.1948 -0.0758
 1002YOPC   C1B13843  10.132  17.389   6.015 -0.2997  0.0545 -0.3538
 1002YOPC   C2B13844  10.016  17.122   6.259 -0.0064  0.0359 -0.2558
 1002YOPC   D3B13845  10.311  16.801   6.287  0.4867 -0.0752  0.0114
 1002YOPC   C4B13846  10.626  16.527   6.427  0.0225  0.1795 -0.2266
 1003YOPC   NC313847   0.343   4.774   5.566  0.1195  0.0830  0.0990
 1003YOPC   PO413848  -0.114   4.796   5.651  0.1989  0.2775  0.3221
 1003YOPC   GL113849  -0.070   4.783   6.035  0.1566 -0.0262 -0.1108
 1003YOPC   GL213850   0.154   4.946   6.068 -0.0250  0.2693  0.0971
 1003YOPC   C1A13851  -0.229   4.990   6.497 -0.3650  0.1227  0.0299
 1003YOPC   D2A13852  -0.218   4.893   6.933 -0.1266 -0.1716 -0.3799
 1003YOPC   C3A13853  -0.362   4.726   7.299  0.1059  0.2838 -0.3516
 1003YOPC   C4A13854  -0.148   4.488   7.610  0.0883  0.4621  0.2350
 1003YOPC   C1B13855   0.498   5.033   6.337 -0.3449  0.1855  0.3448
 1003YOPC   C2B13856   0.725   5.238   6.467 -0.2483  0.0005 -0.3434
 1003YOPC   D3B13857   0.735   5.190   6.884  0.2183 -0.3509  0.2366
 1003YOPC   C4B13858   0.622   5.475   7.104  0.2844  0.2701  0.1452
 1004YOPC   NC313859   1.364   5.103   5.603 -0.3065 -0.0436 -0.2791
 1004YOPC   PO413860   1.713   4.907   5.935  0.2839  0.1348  0.1812
 1004YOPC   GL113861   1.908   4.676   6.281  0.0181  0.1202  0.1305
 1004YOPC   GL213862   1.956   4.302   6.341  0.1460 -0.0957 -0.1921
 1004YOPC   C1A13863   2.061   4.736   6.713 -0.1717  0.3006  0.2362
 1004YOPC   D2A13864   2.193   4.850   7.101 -0.1273 -0.3215  0.4635
 1004YOPC   C3A13865   2.313   4.487   7.146 -0.1695 -0.1499 -0.0959
 1004YOPC   C4A13866   2.262   4.107   7.248  0.3337 -0.0105 -0.2286
 1004YOPC   C1B13867   2.084   4.193   6.773  0.1545  0.0824 -0.3419
 1004YOPC   C2B13868   1.839   4.353   7.123 -0.2256  0.4260  0.1811
 1004YOPC   D3B13869   1.983   4.594   7.471  0.0435 -0.4172 -0.0807
 1004YOPC   C4B13870   2.315   4.844   7.698 -0.0818 -0.2176  0.0816
 1005YOPC   NC313871  17.971  18.182   5.436  0.1405  0.2784 -0.1154
 1005YOPC   PO413872  17.657  18.073   5.650 -0.4969  0.1237 -0.2564
 1005YOPC   GL113873  17.884  17.920   5.913 -0.0416  0.2451  0.2735
 1005YOPC   GL213874  17.959  17.547   6.088 -0.1860 -0.0684 -0.3156
 1005YOPC   C1A13875  18.032  18.122   6.366 -0.2339  0.0074 -0.0337
 1005YOPC   D2A13876  18.290  18.080   6.733  0.2101 -0.2243  0.1051
 1005YOPC   C3A13877  18.417  17.969   7.194  0.1421 -0.1342 -0.0756
 1005YOPC   C4A13878  18.670  18.110   7.607 -0.1790  0.1840 -0.0302
 1005YOPC   C1B13879  18.196  17.630   6.488 -0.0851 -0.0086 -0.4796
 1005YOPC   C2B13880  18.062  17.672   6.892  0.0870 -0.2994 -0.1436
 1005YOPC   D3B13881  17.960  17.715   7.339 -0.2398  0.1177 -0.1345
 1005YOPC   C4B13882  17.684  17.935   7.661 -0.2103  0.0165 -0.1520
 1006YOPC   NC313883  12.836   0.170   5.144  0.2791 -0.2116 -0.4070
 1006YOPC   PO413884  12.687   0.279   5.506  0.0667  0.0388  0.0810
 1006YOPC   GL113885  12.868   0.418   5.914  0.1944 -0.1002  0.1530
 1006YOPC   GL213886  12.882   0.115   6.086  0.1044  0.1635 -0.2927
 1006YOPC   C1A13887  12.906   0.647   6.245  0.2240  0.1249 -0.1776
 1006YOPC   D2A13888  13.016   0.901   6.626  0.1512  0.1018  0.0704
 1006YOPC   C3A13889  12.796   0.913   7.023 -0.1560  0.1376 -0.2460
 1006YOPC   C4A13890  12.964   0.865   7.386 -0.2820  0.2385  0.4508
 1006YOPC   C1B13891  12.883   0.191   6.463  0.0482 -0.1949 -0.1277
 1006YOPC   C2B13892  12.824   0.489   6.788  0.1214  0.0101  0.3559
 1006YOPC   D3B13893  12.613   0.432   7.113  0.0596 -0.2981 -0.1317
 1006YOPC   C4B13894  12.753   0.312   7.504  0.1143  0.1000 -0.1090
 1007YOPC   NC313895  12.137   2.196   5.470 -0.3017 -0.0891  0.2520
 1007YOPC   PO413896  12.308   1.706   5.420  0.2891  0.1340  0.1532
 1007YOPC   GL113897  12.098   1.780   5.911  0.0503 -0.0868 -0.0550
 1007YOPC   GL213898  11.882   1.591   6.049  0.0449  0.2247  0.0930
 1007YOPC   C1A13899  12.077   1.951   6.369  0.0938 -0.0008  0.1159
 1007YOPC   D2A13900  11.954   2.243   6.649 -0.0774  0.1916  0.0365
 1007YOPC   C3A13901  12.225   2.595   6.718  0.0831 -0.2427 -0.1787
 1007YOPC   C4A13902  12.616   2.765   6.743 -0.2098  0.0292  0.0854
 1007YOPC   C1B13903  11.634   1.211   6.255  0.2550 -0.0521  0.1674
 1007YOPC   C2B13904  11.201   1.154   6.351  0.0682 -0.0070  0.1768
 1007YOPC   D3B13905  11.314   0.935   6.587 -0.2013  0.1355 -0.1457
 1007YOPC   C4B13906  11.607   0.665   6.746 -0.0220  0.0674 -0.1705
 1008YOPC   NC313907  10.885   1.277   5.884  0.0176 -0.0292  0.2296
 1008YOPC   PO413908  10.440   1.305   6.153 -0.0999  0.3549 -0.0308
 1008YOPC   GL113909  10.433   1.412   6.456 -0.1468 -0.1989 -0.2108
 1008YOPC   GL213910  10.237   1.401   6.632  0.0884 -0.0742 -0.1261
 1008YOPC   C1A13911  10.704   1.398   6.796  0.0367 -0.1940  0.0689
 1008YOPC   D2A13912  11.043   1.374   7.087  0.3775  0.0053 -0.0369
 1008YOPC   C3A13913  10.856   1.127   7.366 -0.0075  0.0428  0.4286
 1008YOPC   C4A13914  10.547   1.189   7.701 -0.0934 -0.0785 -0.2842
 1008YOPC   C1B13915  10.310   0.981   6.746  0.1395 -0.2827 -0.1022
 1008YOPC   C2B13916  10.132   0.705   6.949 -0.3007 -0.2973  0.1422
 1008YOPC   D3B13917   9.804   0.459   7.218 -0.1937  0.1088  0.2477
 1008YOPC   C4B13918   9.474   0.265   7.405 -0.1123 -0.0435  0.0101
 1009YOPC   NC313919   0.811  16.370   5.239  0.1598 -0.1824 -0.2922
 1009YOPC   PO413920   0.649  16.773   5.386 -0.2722 -0.1340  0.0139
 1009YOPC   GL113921   0.860  16.604   5.784 -0.0007  0.2223  0.2262
 1009YOPC   GL213922   0.993  16.209   5.742 -0.0392  0.2843 -0.0701
 1009YOPC   C1A13923   1.077  16.543   6.117  0.3022 -0.2063 -0.0620
 1009YOPC   D2A13924   1.231  16.452   6.509  0.1451 -0.1682  0.1331
 1009YOPC   C3A13925   1.272  16.601   6.926 -0.1592  0.2545  0.2145
 1009YOPC   C4A13926   1.580  16.462   7.243  0.1382  0.2635 -0.1957
 1009YOPC   C1B13927   1.392  16.248   5.926 -0.1928  0.0901  0.0237
 1009YOPC   C2B13928   1.784  16.089   5.930  0.0087  0.0220 -0.1300
 1009YOPC   D3B13929   1.676  15.688   5.930 -0.0568 -0.2253 -0.0210
 1009YOPC   C4B13930   1.526  15.383   6.213 -0.4274 -0.1932  0.2948
 1010YOPC   NC313931   2.831  10.935   5.364  0.0700 -0.2942  0.2171
 1010YOPC   PO413932   2.595  11.375   5.355 -0.2294  0.1297  0.0951
 1010YOPC   GL113933   2.431  11.566   5.825 -0.1229 -0.1002  0.2168
 1010YOPC   GL213934   2.210  11.358   6.102 -0.0601  0.1657 -0.0085
 1010YOPC   C1A13935   2.499  11.830   6.048 -0.0647  0.0811  0.1695
 1010YOPC   D2A13936   2.784  12.262   6.082  0.3226  0.2502  0.0904
 1010YOPC   C3A13937   2.753  12.327   6.447 -0.0819 -0.1006  0.1444
 1010YOPC   C4A13938   2.642  12.564   6.757 -0.0129  0.1172 -0.2446
 1010YOPC   C1B13939   2.096  11.654   6.435 -0.0096 -0.1525  0.4783
 1010YOPC   C2B13940   2.327  11.986   6.592 -0.0825  0.0303  0.2421
 1010YOPC   D3B13941   2.572  12.129   6.902 -0.1387 -0.0826 -0.0665
 1010YOPC   C4B13942   2.763  11.960   7.334 -0.1920 -0.1106 -0.0340
 1011YOPC   NC313943  12.388   4.226   5.354  0.1736 -0.1719  0.0456
 1011YOPC   PO413944  12.209   4.605   5.647  0.1532  0.0630 -0.0040
 1011YOPC   GL113945  12.303   4.609   6.110  0.0138  0.0102 -0.2151
 1011YOPC   GL213946  12.080   4.399   6.271  0.0978 -0.2211 -0.1449
 1011YOPC   C1A13947  12.465   4.893   6.496 -0.4423 -0.3148 -0.2547
 1011YOPC   D2A13948  12.476   5.314   6.616 -0.0050  0.1675  0.4196
 1011YOPC   C3A13949  12.211   5.630   6.563  0.0810  0.1869  0.0335
 1011YOPC   C4A13950  12.165   6.104   6.751  0.0311 -0.1979 -0.3318
 1011YOPC   C1B13951  12.049   4.669   6.628  0.1034 -0.0787 -0.1656
 1011YOPC   C2B13952  12.049   4.694   7.079  0.3300  0.0294 -0.1482
 1011YOPC   D3B13953  12.177   4.557   7.468  0.0044 -0.3019  0.0241
 1011YOPC   C4B13954  12.244   4.484   7.946 -0.0419  0.2246  0.0361
 1012YOPC   NC313955  18.007  12.045   5.453  0.1616  0.0366  0.0540
 1012YOPC   PO413956  18.188  12.578   5.552 -0.0365 -0.2744  0.0466
 1012YOPC   GL113957  18.447  12.851   5.849  0.2379  0.0658 -0.0451
 1012YOPC   GL213958  18.800  12.857   5.888  0.2088  0.0630 -0.1552
 1012YOPC   C1A13959  18.340  13.099   6.257  0.5188 -0.0842  0.0275
 1012YOPC   D2A13960  18.252  13.279   6.649 -0.1015 -0.1882  0.2157
 1012YOPC   C3A13961  18.212  13.668   6.595  0.2441  0.2925  0.0786
 1012YOPC   C4A13962  18.068  13.886   6.326 -0.1223 -0.2480 -0.0637
 1012YOPC   C1B13963  18.824  12.857   6.344  0.1193 -0.1828 -0.0846
 1012YOPC   C2B13964  18.630  12.952   6.699  0.1682 -0.1617 -0.0823
 1012YOPC   D3B13965  18.512  13.012   7.087  0.2974 -0.0127 -0.2316
 1012YOPC   C4B13966  18.742  12.968   7.452  0.0787  0.0507  0.1499
 1013YOPC   NC313967  13.364   5.919   5.427 -0.1983  0.0896  0.1757
 1013YOPC   PO413968  13.087   6.143   5.297  0.3156 -0.2297  0.2224
 1013YOPC   GL113969  12.908   5.843   5.633 -0.0157 -0.0110  0.1563
 1013YOPC   GL213970  13.104   5.575   5.753 -0.1734 -0.0788 -0.0809
 1013YOPC   C1A13971  12.739   5.922   6.072  0.0708  0.4387  0.1155
 1013YOPC   D2A13972  12.713   5.778   6.530 -0.0618 -0.1425  0.1566
 1013YOPC   C3A13973  12.869   5.495   6.890 -0.0202  0.2270 -0.1553
 1013YOPC   C4A13974  12.795   5.496   7.297 -0.1194  0.0295 -0.0676
 1013YOPC   C1B13975  13.240   5.820   6.125  0.1637  0.1980 -0.2895
 1013YOPC   C2B13976  13.198   5.910   6.568  0.2005  0.1685  0.0442
 1013YOPC   D3B13977  13.351   5.640   6.894 -0.5798  0.6299  0.3179
 1013YOPC   C4B13978  13.300   5.492   7.284 -0.2483  0.0740 -0.1420
 1014YOPC   NC313979  12.699  14.572   5.731  0.0034  0.1989 -0.2148
 1014YOPC   PO413980  12.708  14.258   5.688  0.1168 -0.0792 -0.2873
 1014YOPC   GL113981  12.804  14.241   6.159  0.0765  0.2418  0.1165
 1014YOPC   GL213982  12.750  14.576   6.228  0.2430  0.2086 -0.0977
 1014YOPC   C1A13983  13.150  14.250   6.369  0.0387  0.0062  0.0953
 1014YOPC   D2A13984  13.350  14.287   6.663  0.0469 -0.1340  0.2195
 1014YOPC   C3A13985  13.257  14.420   7.131 -0.0642  0.2434 -0.2654
 1014YOPC   C4A13986  13.174  14.278   7.471 -0.0378  0.2980 -0.1744
 1014YOPC   C1B13987  12.805  14.695   6.606  0.1862  0.1324  0.0949
 1014YOPC   C2B13988  12.806  14.720   7.146  0.0877  0.0640  0.0009
 1014YOPC   D3B13989  12.588  15.034   7.389  0.1002 -0.0505  0.0145
 1014YOPC   C4B13990  12.357  15.270   7.232 -0.0921  0.3774  0.1489
 1015YOPC   NC313991   3.311  17.907   5.463  0.0701  0.2450 -0.1144
 1015YOPC   PO413992   3.552  17.450   5.494  0.1159 -0.0888 -0.1772
 1015YOPC   GL113993   3.139  17.380   5.727 -0.1004 -0.1891  0.1527
 1015YOPC   GL213994   3.103  17.609   5.963 -0.2118  0.1588  0.1262
 1015YOPC   C1A13995   3.028  17.157   6.124  0.2876  0.1843  0.0924
 1015YOPC   D2A13996   2.854  17.109   6.470 -0.2322 -0.1524  0.0304
 1015YOPC   C3A13997   2.438  17.138   6.647 -0.3134 -0.0090  0.0076
 1015YOPC   C4A13998   2.348  17.502   6.412  0.1830  0.2119  0.1549
 1015YOPC   C1B13999   2.849  17.577   6.354 -0.2211  0.2857 -0.0913
 1015YOPC   C2B14000   2.778  17.497   6.784 -0.0516 -0.4976  0.0045
 1015YOPC   D3B14001   2.349  17.703   6.852  0.1447  0.2272  0.2028
 1015YOPC   C4B14002   2.063  17.875   7.242 -0.2565 -0.3060  0.0044
 1016YOPC   NC314003  18.508   0.043   5.291  0.1167  0.4071  0.1462
 1016YOPC   PO414004  18.671   0.431   5.587  0.0808  0.3597  0.2408
 1016YOPC   GL114005  18.881   0.282   5.924  0.1011 -0.1850 -0.1120
 1016YOPC   GL214006  19.130   0.424   5.861  0.2530 -0.1669 -0.0435
 1016YOPC   C1A14007  18.805   0.133   6.382 -0.1745 -0.0773 -0.2242
 1016YOPC   D2A14008  18.733  -0.178   6.596 -0.0902 -0.1726 -0.1267
 1016YOPC   C3A14009  18.843  -0.203   6.962  0.1964  0.1140 -0.4112
 1016YOPC   C4A14010  18.964  -0.114   7.398  0.0221 -0.0019  0.1723
 1016YOPC   C1B14011  19.128   0.576   6.240 -0.1169  0.0801 -0.1474
 1016YOPC   C2B14012  18.966   0.651   6.693  0.2845 -0.0870 -0.1748
 1016YOPC   D3B14013  19.337   0.719   6.853  0.1183 -0.2564 -0.1594
 1016YOPC   C4B14014  19.599   0.850   7.166  0.0378 -0.0403 -0.3333
 1017YOPC   NC314015   6.490  16.919   5.103  0.0964 -0.4881 -0.1216
 1017YOPC   PO414016   6.026  16.943   5.370 -0.1472 -0.1378  0.2103
 1017YOPC   GL114017   6.027  17.339   5.593  0.1509  0.0161  0.1412
 1017YOPC   GL214018   5.683  17.380   5.555  0.5340  0.0803 -0.0228
 1017YOPC   C1A14019   6.301  17.532   5.912 -0.0769  0.0877  0.0091
 1017YOPC   D2A14020   6.731  17.474   5.918 -0.0239 -0.0562 -0.3662
 1017YOPC   C3A14021   6.952  17.739   6.004  0.0936  0.2523  0.4030
 1017YOPC   C4A14022   7.458  17.898   6.041 -0.0510  0.0912 -0.0491
 1017YOPC   C1B14023   5.729  17.376   6.001  0.0949 -0.1079 -0.0757
 1017YOPC   C2B14024   5.930  17.606   6.308 -0.2228 -0.2931 -0.0100
 1017YOPC   D3B14025   6.393  17.637   6.506  0.1250  0.0098  0.0708
 1017YOPC   C4B14026   6.755  17.734   6.526 -0.0009 -0.0416 -0.1007
 1018YOPC   NC314027  17.455   8.887   5.364  0.3688  0.0809 -0.2320
 1018YOPC   PO414028  17.232   9.277   5.458  0.1138  0.2936  0.1503
 1018YOPC   GL114029  17.232   9.374   5.925  0.3209  0.0389  0.2049
 1018YOPC   GL214030  17.455   9.647   5.776 -0.2545 -0.1410 -0.2909
 1018YOPC   C1A14031  17.204   9.392   6.335  0.3168 -0.1298 -0.3133
 1018YOPC   D2A14032  16.994   9.294   6.694  0.1073  0.0113  0.1520
 1018YOPC   C3A14033  17.127   9.429   7.097  0.0796  0.1148 -0.4032
 1018YOPC   C4A14034  16.989   9.320   7.565  0.1094  0.4516  0.1623
 1018YOPC   C1B14035  17.619   9.633   6.266 -0.0637 -0.0779 -0.1540
 1018YOPC   C2B14036  17.566  10.024   6.546  0.0949  0.2767 -0.1826
 1018YOPC   D3B14037  17.838  10.196   6.862  0.2727 -0.0350  0.0323
 1018YOPC   C4B14038  17.760  10.060   7.287 -0.0670  0.0406  0.0845
 1019YOPC   NC314039   5.106   6.375   5.160 -0.0138  0.1059  0.0938
 1019YOPC   PO414040   5.528   6.379   5.142 -0.1566  0.2017 -0.0941
 1019YOPC   GL114041   5.391   6.187   5.577  0.2430 -0.3039 -0.3653
 1019YOPC   GL214042   5.481   6.116   5.797  0.0486 -0.1479  0.2097
 1019YOPC   C1A14043   5.031   6.244   5.947 -0.0773  0.3958  0.0105
 1019YOPC   D2A14044   5.255   6.445   6.338  0.3988  0.0263  0.1763
 1019YOPC   C3A14045   5.246   6.109   6.630 -0.1082 -0.1027 -0.0042
 1019YOPC   C4A14046   5.003   5.852   6.872 -0.1082  0.1718  0.1147
 1019YOPC   C1B14047   5.328   5.871   6.103  0.2227  0.0598 -0.0711
 1019YOPC   C2B14048   5.367   5.633   6.485 -0.0964 -0.2598  0.0455
 1019YOPC   D3B14049   5.564   5.769   6.924  0.2730  0.0879 -0.0389
 1019YOPC   C4B14050   5.405   5.729   7.334  0.0243 -0.1151  0.2541
 1020YOPC   NC314051   9.193   8.667   5.321 -0.0625  0.0749 -0.2439
 1020YOPC   PO414052   9.157   8.496   5.703 -0.0098  0.3644  0.0497
 1020YOPC   GL114053   9.241   8.387   6.113 -0.1412 -0.1342  0.1575
 1020YOPC   GL214054   9.367   8.163   6.279  0.0078 -0.0285 -0.0600
 1020YOPC   C1A14055   9.005   8.431   6.565 -0.2350  0.1061 -0.0222
 1020YOPC   D2A14056   8.769   8.714   6.838  0.0204 -0.1458 -0.3509
 1020YOPC   C3A14057   8.719   8.815   7.225  0.2221  0.0932  0.3029
 1020YOPC   C4A14058   8.604   8.794   7.623  0.2111  0.3033 -0.0676
 1020YOPC   C1B14059   9.248   8.067   6.692 -0.0745  0.3800 -0.2212
 1020YOPC   C2B14060   8.868   7.855   6.838  0.0231 -0.2100  0.0669
 1020YOPC   D3B14061   8.683   7.935   7.271  0.1350 -0.1410 -0.0536
 1020YOPC   C4B14062   8.513   7.700   7.630 -0.0792  0.3767 -0.1290
 1021YOPC   NC314063   7.593   5.465   5.350 -0.2832 -0.0301 -0.1396
 1021YOPC   PO414064   8.030   5.458   5.500  0.3563  0.0502 -0.0189
 1021YOPC   GL114065   8.373   5.373   5.714  0.2666  0.3972 -0.0613
 1021YOPC   GL214066   8.214   5.576   6.048 -0.0337  0.2426  0.1697
 1021YOPC   C1A14067   8.694   5.425   6.043 -0.3941  0.2083  0.2759
 1021YOPC   D2A14068   9.014   5.366   6.332  0.1691  0.0473 -0.0373
 1021YOPC   C3A14069   9.235   5.000   6.543  0.0346  0.0558  0.2159
 1021YOPC   C4A14070   9.208   4.692   6.921  0.1834  0.1037 -0.1670
 1021YOPC   C1B14071   8.183   5.305   6.339 -0.3248  0.0600 -0.1662
 1021YOPC   C2B14072   8.604   5.086   6.464 -0.3758 -0.0427 -0.1901
 1021YOPC   D3B14073   8.807   5.228   6.885 -0.2269 -0.3136  0.1114
 1021YOPC   C4B14074   8.902   5.094   7.291  0.4033 -0.1000  0.4208
 1022YOPC   NC314075  11.918   6.946   5.509  0.2968 -0.0068  0.2348
 1022YOPC   PO414076  11.555   6.632   5.675 -0.0243  0.0554  0.1251
 1022YOPC   GL114077  11.516   6.925   5.943  0.0844 -0.3996  0.0568
 1022YOPC   GL214078  11.164   6.940   6.076 -0.0391  0.1366 -0.1272
 1022YOPC   C1A14079  11.548   6.816   6.362 -0.2457 -0.2366  0.1742
 1022YOPC   D2A14080  11.628   6.535   6.509 -0.1499  0.1614 -0.2443
 1022YOPC   C3A14081  11.848   6.255   6.300 -0.0885  0.0267 -0.0408
 1022YOPC   C4A14082  12.018   5.813   6.163  0.0751  0.1123  0.1712
 1022YOPC   C1B14083  10.920   6.945   6.472  0.3611 -0.2594  0.0731
 1022YOPC   C2B14084  10.710   6.927   6.858 -0.1840 -0.2442 -0.1185
 1022YOPC   D3B14085  10.796   7.277   7.250 -0.1770  0.0787  0.0106
 1022YOPC   C4B14086  10.835   7.418   7.706  0.0064  0.0923 -0.3690
 1023YOPC   NC314087  13.288  18.373   5.643  0.3014  0.1766 -0.0043
 1023YOPC   PO414088  12.994  18.688   5.675  0.2046 -0.1383  0.2854
 1023YOPC   GL114089  12.749  18.506   5.924  0.0892 -0.1744  0.1968
 1023YOPC   GL214090  12.431  18.759   5.952 -0.2398  0.0267 -0.1318
 1023YOPC   C1A14091  12.846  18.155   6.212  0.0476  0.1185  0.0484
 1023YOPC   D2A14092  13.117  18.223   6.545  0.1485  0.1944 -0.5048
 1023YOPC   C3A14093  13.018  18.188   7.001 -0.1681 -0.1964 -0.0909
 1023YOPC   C4A14094  13.013  18.486   7.367 -0.0175  0.3263 -0.0291
 1023YOPC   C1B14095  12.578  18.622   6.344 -0.0175 -0.0163  0.2096
 1023YOPC   C2B14096  12.782  18.558   6.756 -0.3115  0.3230 -0.0750
 1023YOPC   D3B14097  12.573  18.578   7.113  0.1561 -0.2271 -0.4769
 1023YOPC   C4B14098  12.553  18.830   7.414 -0.0464  0.1870  0.1695
 1024YOPC   NC314099   9.940   9.520   5.327 -0.0153  0.1572  0.0443
 1024YOPC   PO414100  10.278   9.394   5.652  0.0650 -0.4318  0.3545
 1024YOPC   GL114101  10.357   9.368   6.127  0.2871  0.1293 -0.1025
 1024YOPC   GL214102  10.675   9.518   6.129 -0.0682  0.0543 -0.2031
 1024YOPC   C1A14103  10.378   9.464   6.544 -0.3722 -0.1933 -0.0991
 1024YOPC   D2A14104  10.108   9.348   6.923  0.0221 -0.1181 -0.2943
 1024YOPC   C3A14105  10.125   9.351   7.321 -0.2955 -0.4363  0.0142
 1024YOPC   C4A14106  10.212   9.089   7.633  0.3220 -0.4727 -0.2789
 1024YOPC   C1B14107  11.070   9.675   6.410  0.0279 -0.0624 -0.0186
 1024YOPC   C2B14108  11.302   9.673   6.750 -0.0555  0.0392 -0.3246
 1024YOPC   D3B14109  11.528   9.834   7.036  0.0813 -0.2433  0.2663
 1024YOPC   C4B14110  11.962   9.629   7.235  0.0266 -0.1975 -0.1942
 1025YOPC   NC314111  17.982  17.415   5.627 -0.0060  0.0797  0.4490
 1025YOPC   PO414112  18.250  17.780   5.538  0.1571  0.0329  0.2922
 1025YOPC   GL114113  18.371  17.964   5.954  0.3321  0.0357  0.1103
 1025YOPC   GL214114  18.499  17.650   6.015 -0.2066 -0.2344  0.0186
 1025YOPC   C1A14115  18.456  18.428   6.228 -0.0744  0.0126  0.1341
 1025YOPC   D2A14116  18.253  18.568   6.580 -0.0874  0.0680 -0.2483
 1025YOPC   C3A14117  18.337  18.612   7.008 -0.0010  0.0598 -0.0935
 1025YOPC   C4A14118  18.516  18.514   7.428 -0.0275 -0.4100  0.4541
 1025YOPC   C1B14119  18.636  17.811   6.443  0.2450  0.0304  0.2841
 1025YOPC   C2B14120  18.764  17.790   6.950 -0.1048  0.0564  0.0487
 1025YOPC   D3B14121  18.796  17.588   7.394 -0.3313 -0.0430  0.1591
 1025YOPC   C4B14122  18.683  17.496   7.762  0.1125  0.0836  0.0049
 1026YOPC   NC314123  14.399  12.706   5.582 -0.1288  0.1839  0.1730
 1026YOPC   PO414124  14.365  13.213   5.673 -0.2674 -0.0214  0.2884
 1026YOPC   GL114125  14.436  13.115   6.073  0.1265  0.0556 -0.5018
 1026YOPC   GL214126  14.675  13.037   6.069 -0.1068 -0.0893 -0.0051
 1026YOPC   C1A14127  14.152  13.114   6.417  0.0578  0.0519  0.0972
 1026YOPC   D2A14128  13.988  12.769   6.773  0.2988 -0.0148  0.1223
 1026YOPC   C3A14129  14.068  12.756   7.155 -0.1745  0.0297  0.0710
 1026YOPC   C4A14130  14.021  12.989   7.512  0.2699 -0.0714  0.1289
 1026YOPC   C1B14131  14.837  12.938   6.438  0.0899  0.1504  0.0280
 1026YOPC   C2B14132  14.956  12.709   6.800 -0.0786  0.2710  0.0594
 1026YOPC   D3B14133  14.636  12.576   7.176  0.0386 -0.1065  0.1601
 1026YOPC   C4B14134  14.401  12.638   7.512 -0.1796 -0.1959 -0.1133
 1027YOPC   NC314135   3.144   0.466   5.255  0.3014 -0.1794 -0.5169
 1027YOPC   PO414136   2.952   0.788   5.423 -0.1407  0.1170 -0.1107
 1027YOPC   GL114137   2.857   0.875   5.782  0.1165  0.0688 -0.0646
 1027YOPC   GL214138   2.595   1.116   5.824 -0.2697  0.2461  0.0994
 1027YOPC   C1A14139   2.958   0.666   6.112 -0.0782  0.0152 -0.2999
 1027YOPC   D2A14140   2.756   0.457   6.409  0.0639 -0.0439 -0.1446
 1027YOPC   C3A14141   3.007   0.311   6.834  0.1156 -0.2585  0.1658
 1027YOPC   C4A14142   3.244   0.084   7.195 -0.1448  0.1510 -0.0905
 1027YOPC   C1B14143   2.501   0.941   6.213  0.1888 -0.1574  0.1833
 1027YOPC   C2B14144   2.509   0.662   6.797 -0.1232  0.1977  0.1153
 1027YOPC   D3B14145   2.890   0.686   7.119 -0.0186  0.1266 -0.0583
 1027YOPC   C4B14146   3.384   0.587   7.056  0.1521  0.2927 -0.1389
 1028YOPC   NC314147   9.647  14.558   5.303 -0.1406  0.2607 -0.1750
 1028YOPC   PO414148  10.020  14.853   5.515 -0.4084 -0.0756  0.0961
 1028YOPC   GL114149   9.931  14.912   5.937  0.1506 -0.0020  0.1479
 1028YOPC   GL214150  10.163  14.932   6.097 -0.0670  0.2775 -0.1888
 1028YOPC   C1A14151   9.628  15.129   6.205  0.1830  0.3246 -0.1414
 1028YOPC   D2A14152   9.572  15.340   6.505 -0.1136  0.0574 -0.2201
 1028YOPC   C3A14153   9.212  15.446   6.562 -0.1241  0.1022 -0.3466
 1028YOPC   C4A14154   8.827  15.382   6.894 -0.4351  0.0316 -0.1921
 1028YOPC   C1B14155  10.000  14.923   6.526  0.1319 -0.0531  0.0187
 1028YOPC   C2B14156   9.767  14.755   6.888  0.0046 -0.2586  0.2937
 1028YOPC   D3B14157   9.507  14.424   6.861 -0.2156 -0.4928  0.2495
 1028YOPC   C4B14158   9.320  14.280   7.218 -0.0771  0.1576  0.1907
 1029YOPC   NC314159  12.689  13.370   5.396  0.4341  0.0564  0.3726
 1029YOPC   PO414160  13.094  13.340   5.602  0.0696  0.1506 -0.1848
 1029YOPC   GL114161  13.273  13.338   5.945 -0.0495  0.1241  0.3157
 1029YOPC   GL214162  13.144  13.155   6.210  0.1065  0.0382 -0.2182
 1029YOPC   C1A14163  13.342  13.609   6.142 -0.1707 -0.0501 -0.2864
 1029YOPC   D2A14164  13.700  13.831   6.353  0.0182  0.3501  0.1682
 1029YOPC   C3A14165  13.785  14.341   6.498  0.3163 -0.0311 -0.0282
 1029YOPC   C4A14166  13.755  14.314   6.923  0.3956  0.1307 -0.1114
 1029YOPC   C1B14167  13.034  13.463   6.491  0.0628  0.0384  0.0744
 1029YOPC   C2B14168  13.125  13.816   6.555 -0.2484 -0.0722 -0.2324
 1029YOPC   D3B14169  13.143  13.901   6.933  0.1367 -0.0182  0.2311
 1029YOPC   C4B14170  13.120  13.780   7.274  0.1697  0.0136  0.1053
 1030YOPC   NC314171  16.793  12.550   5.701  0.1997 -0.3151 -0.2762
 1030YOPC   PO414172  16.510  12.857   5.892 -0.0005 -0.3155 -0.1102
 1030YOPC   GL114173  16.547  12.395   6.052  0.1143 -0.1238 -0.0487
 1030YOPC   GL214174  16.283  12.257   6.088 -0.0488  0.0577 -0.1481
 1030YOPC   C1A14175  16.837  12.089   6.324  0.0209  0.2295  0.0499
 1030YOPC   D2A14176  16.874  11.730   6.463 -0.1979 -0.0394  0.0125
 1030YOPC   C3A14177  16.830  11.583   6.926 -0.0604  0.2553  0.0392
 1030YOPC   C4A14178  16.952  11.221   7.188 -0.2275 -0.1470 -0.2797
 1030YOPC   C1B14179  16.396  12.269   6.524  0.1240 -0.1691 -0.0392
 1030YOPC   C2B14180  16.692  12.003   6.842 -0.0587  0.0055  0.4756
 1030YOPC   D3B14181  16.426  11.960   7.231 -0.3436 -0.0510 -0.0993
 1030YOPC   C4B14182  16.505  12.134   7.547  0.1991 -0.0986  0.2856
 1031YOPC   NC314183  15.133   9.647   5.392  0.0192  0.0948 -0.0806
 1031YOPC   PO414184  15.325   9.928   5.769 -0.1897  0.4494  0.2788
 1031YOPC   GL114185  15.547   9.855   6.172 -0.1015 -0.1627  0.0666
 1031YOPC   GL214186  15.805   9.647   6.077  0.0357 -0.4074 -0.0006
 1031YOPC   C1A14187  15.694  10.182   6.399 -0.0569 -0.0054  0.0453
 1031YOPC   D2A14188  15.861  10.233   6.776 -0.1089 -0.0432  0.4125
 1031YOPC   C3A14189  15.778  10.636   6.904  0.0670  0.0054 -0.0882
 1031YOPC   C4A14190  15.490  10.871   6.855 -0.0997 -0.2707 -0.1378
 1031YOPC   C1B14191  16.093   9.963   6.275  0.3920  0.2936  0.1469
 1031YOPC   C2B14192  16.360  10.044   6.571  0.1528 -0.5182 -0.2262
 1031YOPC   D3B14193  16.641   9.708   6.810  0.2306  0.2720 -0.1941
 1031YOPC   C4B14194  16.496   9.320   6.900  0.0223  0.0319  0.2330
 1032YOPC   NC314195   9.446  16.032   5.695 -0.1094  0.1022  0.0091
 1032YOPC   PO414196   9.614  15.666   5.523 -0.2416  0.0098  0.0307
 1032YOPC   GL114197   9.742  15.559   5.953  0.0608 -0.1847 -0.0006
 1032YOPC   GL214198   9.470  15.653   6.043  0.2146 -0.0796 -0.1118
 1032YOPC   C1A14199  10.040  15.375   6.341  0.3668 -0.1582 -0.0399
 1032YOPC   D2A14200  10.037  15.505   6.718 -0.1895 -0.0850  0.1883
 1032YOPC   C3A14201   9.756  15.299   6.980  0.0483 -0.0852 -0.0013
 1032YOPC   C4A14202   9.609  15.370   7.311 -0.0131  0.3276  0.0625
 1032YOPC   C1B14203   9.091  15.822   6.228 -0.1790  0.0031 -0.1949
 1032YOPC   C2B14204   8.955  16.263   6.370  0.0705 -0.0891 -0.0827
 1032YOPC   D3B14205   8.872  16.288   6.837  0.2453 -0.1288  0.1665
 1032YOPC   C4B14206   8.808  16.056   7.213  0.2869  0.2394 -0.2435
 1033YOPC   NC314207  15.152   4.118   5.505  0.0798 -0.1298  0.0109
 1033YOPC   PO414208  15.162   3.679   5.502  0.1003 -0.0900  0.0131
 1033YOPC   GL114209  15.155   3.685   5.933  0.1849  0.0361 -0.1030
 1033YOPC   GL214210  15.280   3.979   5.971  0.0718  0.1796  0.1208
 1033YOPC   C1A14211  15.075   3.576   6.410  0.1611  0.0716 -0.0264
 1033YOPC   D2A14212  14.957   3.248   6.493 -0.0437  0.2399 -0.0287
 1033YOPC   C3A14213  15.206   3.069   6.957 -0.0219  0.1688 -0.3505
 1033YOPC   C4A14214  15.468   3.362   7.162  0.0151  0.1298  0.0095
 1033YOPC   C1B14215  15.537   3.852   6.286 -0.0401  0.1109  0.0454
 1033YOPC   C2B14216  15.464   3.924   6.750 -0.2488  0.0162  0.0161
 1033YOPC   D3B14217  15.108   4.086   6.922  0.2069  0.2609  0.2429
 1033YOPC   C4B14218  14.917   3.974   7.219 -0.1053  0.0051  0.1058
 1034YOPC   NC314219   5.687   8.398   4.665  0.2505 -0.2182 -0.2292
 1034YOPC   PO414220   5.869   8.213   5.050 -0.4339  0.0527  0.1427
 1034YOPC   GL114221   5.695   8.170   5.639  0.4852 -0.3212 -0.3374
 1034YOPC   GL214222   5.419   8.005   5.646 -0.2274 -0.2248 -0.0431
 1034YOPC   C1A14223   5.732   8.421   6.092  0.0489  0.1281 -0.0153
 1034YOPC   D2A14224   5.655   8.650   6.581 -0.0841 -0.0412 -0.1730
 1034YOPC   C3A14225   5.307   8.520   6.895  0.2495  0.3075  0.2354
 1034YOPC   C4A14226   4.849   8.372   7.098 -0.1999 -0.1308 -0.2674
 1034YOPC   C1B14227   5.510   7.862   6.099  0.2351  0.3540  0.0199
 1034YOPC   C2B14228   5.720   8.013   6.406  0.0724  0.0804 -0.0959
 1034YOPC   D3B14229   5.640   8.192   6.782  0.2802 -0.1125  0.0023
 1034YOPC   C4B14230   5.617   8.204   7.115 -0.4376 -0.2878 -0.0071
 1035YOPC   NC314231  16.800   9.183   5.172  0.1028 -0.2624 -0.0795
 1035YOPC   PO414232  16.462   9.533   5.367 -0.0994 -0.0768 -0.1530
 1035YOPC   GL114233  16.817   9.562   5.624  0.1038  0.2378  0.2037
 1035YOPC   GL214234  16.710   9.277   5.822  0.0093  0.0801  0.1480
 1035YOPC   C1A14235  16.822   9.691   6.031  0.2110  0.2303  0.0054
 1035YOPC   D2A14236  16.977  10.005   6.391  0.2628  0.0507  0.1847
 1035YOPC   C3A14237  16.832  10.248   6.606 -0.1884 -0.2382  0.0053
 1035YOPC   C4A14238  16.620  10.213   6.927 -0.0814 -0.1276  0.0668
 1035YOPC   C1B14239  16.784   9.079   6.135  0.1687 -0.1287  0.1090
 1035YOPC   C2B14240  16.665   8.794   6.385 -0.0187  0.1263 -0.0922
 1035YOPC   D3B14241  16.727   8.756   6.796 -0.0427  0.0927 -0.1936
 1035YOPC   C4B14242  16.761   8.930   7.142  0.1673 -0.1151 -0.0283
 1036YOPC   NC314243  12.578   9.677   5.114 -0.3768 -0.0326  0.0643
 1036YOPC   PO414244  12.651   9.851   5.555  0.1206  0.1046 -0.0130
 1036YOPC   GL114245  12.594   9.642   5.945  0.1921  0.0887  0.1084
 1036YOPC   GL214246  12.855   9.569   5.993 -0.0150  0.1699 -0.0016
 1036YOPC   C1A14247  12.768   9.884   6.336  0.0865  0.0710 -0.0776
 1036YOPC   D2A14248  12.605  10.093   6.683  0.2388  0.0521  0.1680
 1036YOPC   C3A14249  12.624  10.452   6.741 -0.1250  0.0281 -0.0554
 1036YOPC   C4A14250  12.849  10.581   7.132  0.2569 -0.0505 -0.2386
 1036YOPC   C1B14251  12.907   9.441   6.378  0.1315 -0.3185  0.0441
 1036YOPC   C2B14252  12.700   9.412   6.794  0.1515  0.0123 -0.3366
 1036YOPC   D3B14253  12.668   9.057   6.959  0.2188  0.1637  0.5232
 1036YOPC   C4B14254  12.447   8.761   7.194  0.2021  0.4461  0.3078
 1037YOPC   NC314255   9.753   6.869   5.924 -0.0585  0.0792 -0.0528
 1037YOPC   PO414256   9.333   6.884   5.776 -0.1886 -0.0684 -0.1710
 1037YOPC   GL114257   9.280   6.646   6.030 -0.0028 -0.1555  0.0769
 1037YOPC   GL214258   9.576   6.541   6.255  0.0347  0.2100  0.7399
 1037YOPC   C1A14259   9.140   6.328   6.340  0.2070 -0.1583  0.0074
 1037YOPC   D2A14260   9.143   6.299   6.852 -0.0863  0.0103  0.1917
 1037YOPC   C3A14261   8.861   6.471   7.078 -0.0666 -0.0792  0.3107
 1037YOPC   C4A14262   8.327   6.469   6.998  0.2069  0.2213  0.1510
 1037YOPC   C1B14263   9.592   6.784   6.535 -0.0444  0.1364 -0.4107
 1037YOPC   C2B14264   9.322   6.772   6.800  0.0220 -0.0867  0.1538
 1037YOPC   D3B14265   9.306   6.728   7.222  0.1367 -0.4393 -0.0981
 1037YOPC   C4B14266   9.234   6.557   7.525  0.3413 -0.0168  0.1330
 1038YOPC   NC314267  16.925  16.217   5.778 -0.0817  0.1426 -0.1584
 1038YOPC   PO414268  17.127  15.813   5.634 -0.0144 -0.0034  0.2748
 1038YOPC   GL114269  17.465  15.966   6.028 -0.4590 -0.1122  0.0238
 1038YOPC   GL214270  17.754  16.249   6.099  0.1201  0.2850 -0.2469
 1038YOPC   C1A14271  17.612  15.804   6.446  0.1431  0.1036 -0.4056
 1038YOPC   D2A14272  17.790  15.854   6.808 -0.0057  0.0982 -0.0643
 1038YOPC   C3A14273  17.506  15.780   7.154  0.0809  0.2062 -0.0293
 1038YOPC   C4A14274  17.056  15.777   7.221  0.0700  0.3750 -0.1809
 1038YOPC   C1B14275  17.818  16.294   6.474 -0.0053 -0.1792  0.1556
 1038YOPC   C2B14276  18.005  16.435   6.944 -0.0588 -0.1390 -0.3221
 1038YOPC   D3B14277  18.144  15.965   7.230  0.1015  0.0670  0.2448
 1038YOPC   C4B14278  18.320  15.792   7.649  0.0988 -0.1040 -0.0411
 1039YOPC   NC314279  15.258  16.433   5.151  0.0170 -0.1738  0.0935
 1039YOPC   PO414280  15.598  16.444   5.417 -0.1414  0.0301 -0.1644
 1039YOPC   GL114281  15.886  16.477   5.849 -0.0882  0.1418 -0.1572
 1039YOPC   GL214282  16.172  16.652   5.864  0.1626 -0.2770  0.0280
 1039YOPC   C1A14283  15.885  16.604   6.285 -0.0385  0.0813  0.0421
 1039YOPC   D2A14284  15.795  16.651   6.731  0.1000 -0.1673  0.2615
 1039YOPC   C3A14285  15.678  16.247   7.013  0.1136 -0.1359  0.0411
 1039YOPC   C4A14286  15.372  15.971   6.842 -0.3411  0.1600 -0.1614
 1039YOPC   C1B14287  16.269  16.286   6.166  0.0256 -0.1809 -0.2328
 1039YOPC   C2B14288  16.062  16.185   6.562 -0.2504  0.2960 -0.0903
 1039YOPC   D3B14289  16.162  16.367   6.935 -0.1407  0.0485  0.1013
 1039YOPC   C4B14290  16.315  16.377   7.289 -0.0697  0.2293 -0.0394
 1040YOPC   NC314291   1.631   3.942   5.418  0.0834 -0.3239  0.0826
 1040YOPC   PO414292   2.053   3.937   5.611 -0.1066 -0.2455  0.0707
 1040YOPC   GL114293   1.924   3.879   6.056  0.1737  0.3015  0.3105
 1040YOPC   GL214294   2.061   3.627   6.046 -0.1648 -0.0283  0.1150
 1040YOPC   C1A14295   1.979   3.806   6.488  0.2607 -0.0402 -0.3744
 1040YOPC   D2A14296   1.875   3.810   6.998  0.2892  0.0672  0.1457
 1040YOPC   C3A14297   2.143   3.628   7.133 -0.1978 -0.0564 -0.0678
 1040YOPC   C4A14298   2.439   3.307   7.265 -0.3322 -0.4613 -0.3008
 1040YOPC   C1B14299   1.955   3.263   6.343  0.1252  0.0752  0.3908
 1040YOPC   C2B14300   2.127   3.263   6.754 -0.1162  0.0509  0.1340
 1040YOPC   D3B14301   2.232   2.887   6.948 -0.0345  0.1247  0.0082
 1040YOPC   C4B14302   1.864   2.653   7.161 -0.2899 -0.0837  0.1875
 1041YOPC   NC314303   9.701  10.188   5.571  0.0011  0.0098 -0.0615
 1041YOPC   PO414304   9.484   9.842   5.390 -0.1228 -0.0355 -0.0894
 1041YOPC   GL114305   9.394   9.861   5.864  0.0140 -0.0285  0.0063
 1041YOPC   GL214306   9.086   9.924   5.963  0.1544  0.1522  0.2657
 1041YOPC   C1A14307   9.558   9.576   6.227  0.1475  0.1946  0.0026
 1041YOPC   D2A14308   9.724   9.576   6.688 -0.2435 -0.2077 -0.0284
 1041YOPC   C3A14309   9.604   9.421   7.114 -0.0287  0.0299 -0.2634
 1041YOPC   C4A14310   9.356   9.605   7.531 -0.1512  0.2227 -0.0549
 1041YOPC   C1B14311   9.022   9.672   6.211 -0.0352 -0.1536 -0.2143
 1041YOPC   C2B14312   8.786   9.374   6.339  0.0952  0.0068 -0.1372
 1041YOPC   D3B14313   8.812   9.273   6.728 -0.3574  0.1622  0.1252
 1041YOPC   C4B14314   9.150   9.075   7.037  0.1943 -0.1568 -0.0945
 1042YOPC   NC314315   1.404  10.825   5.638  0.1462 -0.1673  0.1155
 1042YOPC   PO414316   1.574  11.230   5.636 -0.1775  0.0396  0.2234
 1042YOPC   GL114317   1.660  11.272   6.041 -0.1029  0.1141  0.0273
 1042YOPC   GL214318   1.650  10.939   6.126  0.2441  0.1843  0.2590
 1042YOPC   C1A14319   1.849  11.234   6.472 -0.1761  0.2255  0.0090
 1042YOPC   D2A14320   1.716  11.111   6.871  0.0363 -0.1368  0.1299
 1042YOPC   C3A14321   2.032  10.960   7.168  0.1475  0.3006 -0.3057
 1042YOPC   C4A14322   2.256  10.613   7.428 -0.1517  0.0915  0.2325
 1042YOPC   C1B14323   1.498  10.719   6.511  0.0258  0.1098 -0.0458
 1042YOPC   C2B14324   1.247  10.673   6.732  0.0663 -0.1532 -0.0222
 1042YOPC   D3B14325   1.413  10.767   7.043  0.1324  0.0258  0.1957
 1042YOPC   C4B14326   1.541  11.048   7.367  0.0106 -0.2057 -0.4137
 1043YOPC   NC314327   7.441  17.268   5.263  0.0317  0.1681 -0.2139
 1043YOPC   PO414328   7.795  16.969   5.423  0.0689  0.0033 -0.1803
 1043YOPC   GL114329   7.862  16.649   5.699  0.0898 -0.0034  0.0940
 1043YOPC   GL214330   7.866  16.256   5.645 -0.0322 -0.3008  0.3441
 1043YOPC   C1A14331   8.153  16.488   6.107  0.0958  0.0459 -0.3279
 1043YOPC   D2A14332   8.053  16.321   6.500  0.2568  0.0384 -0.1077
 1043YOPC   C3A14333   7.647  16.468   6.676  0.0718 -0.0708  0.3396
 1043YOPC   C4A14334   7.392  16.522   7.002  0.0033  0.0039  0.2936
 1043YOPC   C1B14335   7.874  16.065   6.019 -0.1473  0.1382  0.4161
 1043YOPC   C2B14336   8.117  15.844   6.284 -0.2435 -0.1712 -0.0105
 1043YOPC   D3B14337   8.008  15.849   6.671  0.1456 -0.2340  0.2253
 1043YOPC   C4B14338   7.988  15.626   7.030  0.0686  0.5051 -0.2901
 1044YOPC   NC314339  16.023  18.052   5.768  0.0065  0.2078 -0.1136
 1044YOPC   PO414340  16.429  18.283   5.676  0.0684 -0.0364 -0.1977
 1044YOPC   GL114341  16.345  18.215   6.122 -0.1922  0.5814  0.2844
 1044YOPC   GL214342  16.253  18.530   6.355  0.1145 -0.0037 -0.3372
 1044YOPC   C1A14343  16.392  17.989   6.491 -0.1263 -0.0592 -0.1847
 1044YOPC   D2A14344  16.332  18.224   6.862 -0.0764  0.0359  0.3215
 1044YOPC   C3A14345  16.079  18.423   7.102  0.0320 -0.1654 -0.0717
 1044YOPC   C4A14346  15.968  18.939   7.243 -0.0115 -0.2042 -0.1488
 1044YOPC   C1B14347  16.262  18.771   6.755  0.3088  0.0588 -0.1056
 1044YOPC   C2B14348  16.491  18.973   7.093  0.1317  0.0873 -0.1021
 1044YOPC   D3B14349  16.377  19.220   7.338 -0.0418 -0.0458  0.3257
 1044YOPC   C4B14350  16.363  19.122   7.829  0.0810  0.0160 -0.0107
 1045YOPC   NC314351  18.347   7.537   4.939 -0.0522  0.0188  0.0054
 1045YOPC   PO414352  18.684   7.760   5.283 -0.1507 -0.1061 -0.0164
 1045YOPC   GL114353  18.775   8.033   5.685 -0.0872  0.0576  0.0277
 1045YOPC   GL214354  18.542   8.009   5.890 -0.0301 -0.0924  0.1081
 1045YOPC   C1A14355  19.154   8.007   5.944 -0.0755  0.1465  0.1820
 1045YOPC   D2A14356  19.478   8.335   6.181 -0.0068 -0.0048 -0.2389
 1045YOPC   C3A14357  19.924   8.266   6.115 -0.0593  0.2520  0.1444
 1045YOPC   C4A14358  20.243   8.011   6.183 -0.0494 -0.0659 -0.0484
 1045YOPC   C1B14359  18.772   7.711   6.183 -0.1474  0.0051 -0.1244
 1045YOPC   C2B14360  19.198   7.547   6.230  0.1393 -0.1196 -0.1524
 1045YOPC   D3B14361  19.348   7.371   6.453 -0.3041 -0.1214 -0.2599
 1045YOPC   C4B14362  19.510   7.074   6.878  0.1356 -0.3855  0.4747
 1046YOPC   NC314363  10.413   5.928   5.309  0.0521  0.0678  0.0484
 1046YOPC   PO414364  10.332   5.520   5.459 -0.0205  0.0491  0.2132
 1046YOPC   GL114365  10.075   5.370   5.757 -0.1612  0.2060 -0.3366
 1046YOPC   GL214366   9.727   5.173   5.798 -0.2340 -0.0382  0.2720
 1046YOPC   C1A14367   9.874   5.632   6.050  0.0724  0.1861 -0.2180
 1046YOPC   D2A14368   9.689   5.846   6.467  0.0387  0.2761  0.2490
 1046YOPC   C3A14369   9.608   6.187   6.577  0.0323  0.0166 -0.0866
 1046YOPC   C4A14370   9.638   6.462   6.915 -0.2837 -0.1961 -0.0107
 1046YOPC   C1B14371   9.604   5.135   6.190  0.3080  0.1742 -0.1436
 1046YOPC   C2B14372   9.456   5.428   6.580  0.3999  0.3896 -0.1210
 1046YOPC   D3B14373   9.281   5.181   6.968 -0.3006  0.3089 -0.3173
 1046YOPC   C4B14374   9.380   5.157   7.347  0.0426  0.0091 -0.3178
 1047YOPC   NC314375  15.726   6.922   5.732 -0.0836 -0.0149  0.0455
 1047YOPC   PO414376  15.414   6.971   6.018 -0.3014 -0.0628  0.2064
 1047YOPC   GL114377  15.223   6.796   6.446  0.2844 -0.0752 -0.0011
 1047YOPC   GL214378  14.774   6.936   6.472  0.0809  0.2511  0.1038
 1047YOPC   C1A14379  15.208   6.938   6.775  0.1647  0.1282  0.2227
 1047YOPC   D2A14380  15.595   7.058   6.982  0.1264  0.0100  0.0118
 1047YOPC   C3A14381  15.684   6.909   7.425 -0.0410  0.2515 -0.2082
 1047YOPC   C4A14382  15.910   6.582   7.677 -0.1857 -0.2693 -0.1740
 1047YOPC   C1B14383  14.689   6.832   6.905 -0.4740  0.0510 -0.2684
 1047YOPC   C2B14384  14.608   6.822   7.429  0.3421 -0.1716  0.3684
 1047YOPC   D3B14385  14.758   6.481   7.576  0.1979  0.0764  0.0866
 1047YOPC   C4B14386  14.750   6.245   7.886  0.3653 -0.1530 -0.1955
 1048YOPC   NC314387   3.596  10.793   5.197  0.0612 -0.0027 -0.0317
 1048YOPC   PO414388   3.274  10.850   5.465 -0.0496 -0.1488 -0.0847
 1048YOPC   GL114389   2.965  10.989   5.804 -0.0576  0.1441 -0.2271
 1048YOPC   GL214390   2.933  11.404   5.808 -0.3551  0.1135  0.2564
 1048YOPC   C1A14391   2.721  11.129   6.186  0.1790 -0.1206 -0.3128
 1048YOPC   D2A14392   2.380  11.205   6.531  0.1434 -0.0733  0.0668
 1048YOPC   C3A14393   2.465  10.911   6.927 -0.0724 -0.1971  0.0614
 1048YOPC   C4A14394   2.568  10.984   7.366 -0.1345  0.0172 -0.3664
 1048YOPC   C1B14395   3.226  11.386   6.190  0.3090 -0.0487  0.2280
 1048YOPC   C2B14396   3.139  11.148   6.568 -0.0750  0.1039 -0.0198
 1048YOPC   D3B14397   2.796  11.293   6.808  0.1411 -0.1608 -0.2392
 1048YOPC   C4B14398   2.419  11.547   6.911  0.0454 -0.0116 -0.2610
 1049YOPC   NC314399   5.432  10.664   5.226 -0.2281  0.1100  0.1846
 1049YOPC   PO414400   4.985  10.478   5.350  0.0799  0.2563 -0.2095
 1049YOPC   GL114401   4.764  10.590   5.756  0.2816 -0.1787  0.0048
 1049YOPC   GL214402   4.492  10.740   5.781  0.1583  0.4766 -0.5007
 1049YOPC   C1A14403   4.945  10.566   6.195 -0.0777  0.0898  0.2735
 1049YOPC   D2A14404   4.992  10.265   6.503  0.1330  0.0965 -0.0083
 1049YOPC   C3A14405   4.769  10.129   6.798  0.2508  0.1813 -0.0691
 1049YOPC   C4A14406   4.616  10.033   7.272 -0.2131 -0.1541 -0.0413
 1049YOPC   C1B14407   4.321  10.707   6.164  0.1255  0.1370 -0.0747
 1049YOPC   C2B14408   4.051  10.762   6.488 -0.1267  0.1274 -0.1510
 1049YOPC   D3B14409   3.663  10.740   6.527  0.2186 -0.0062  0.1405
 1049YOPC   C4B14410   3.272  10.624   6.624 -0.0982  0.3985 -0.2474
 1050YOPC   NC314411   0.697  17.917   4.892 -0.0736 -0.1772 -0.1609
 1050YOPC   PO414412   0.919  17.558   5.043 -0.0918  0.1605 -0.0166
 1050YOPC   GL114413   1.075  17.387   5.424 -0.2943 -0.1231 -0.2278
 1050YOPC   GL214414   0.979  17.152   5.588 -0.0388  0.1542  0.0290
 1050YOPC   C1A14415   1.154  17.542   5.832  0.2343 -0.1677 -0.2420
 1050YOPC   D2A14416   1.221  17.435   6.327  0.0452 -0.3517  0.0902
 1050YOPC   C3A14417   0.973  17.533   6.709 -0.0352  0.1838 -0.0834
 1050YOPC   C4A14418   0.784  17.912   6.768 -0.2611 -0.1086  0.2305
 1050YOPC   C1B14419   1.029  17.088   6.001  0.3150 -0.0569 -0.1572
 1050YOPC   C2B14420   0.969  16.946   6.388  0.3472  0.1006 -0.0920
 1050YOPC   D3B14421   1.179  17.105   6.733 -0.2774  0.2539 -0.1576
 1050YOPC   C4B14422   1.504  17.299   6.695 -0.1599 -0.0804 -0.1504
 1051YOPC   NC314423  17.585   4.902   5.894  0.0974  0.1994  0.2338
 1051YOPC   PO414424  17.279   4.585   5.845 -0.2043 -0.2575  0.1432
 1051YOPC   GL114425  16.982   4.671   6.162  0.0486  0.1944 -0.1935
 1051YOPC   GL214426  16.880   5.002   6.294  0.1463  0.1688 -0.2621
 1051YOPC   C1A14427  16.778   4.386   6.501  0.0963  0.2026 -0.2946
 1051YOPC   D2A14428  16.771   4.271   6.925 -0.0188 -0.1898 -0.1162
 1051YOPC   C3A14429  16.688   3.989   7.249 -0.0639  0.3447 -0.2658
 1051YOPC   C4A14430  16.401   3.994   7.582 -0.3356  0.1767 -0.1072
 1051YOPC   C1B14431  16.694   4.824   6.642 -0.5066 -0.2367  0.0234
 1051YOPC   C2B14432  16.800   4.756   7.058  0.0726  0.2679 -0.1556
 1051YOPC   D3B14433  16.534   4.908   7.355  0.1949 -0.2898 -0.2551
 1051YOPC   C4B14434  16.114   5.015   7.534 -0.0085  0.0039 -0.2514
 1052YOPC   NC314435   8.902   7.171   5.586  0.1771 -0.5063 -0.0910
 1052YOPC   PO414436   8.503   7.177   5.847 -0.1205  0.3402 -0.2056
 1052YOPC   GL114437   8.512   7.337   6.228  0.2656  0.1292  0.2779
 1052YOPC   GL214438   8.193   7.420   6.310 -0.0184  0.1863 -0.2138
 1052YOPC   C1A14439   8.841   7.406   6.531  0.2972 -0.1339 -0.1380
 1052YOPC   D2A14440   9.256   7.519   6.715 -0.0082  0.0518 -0.0369
 1052YOPC   C3A14441   9.298   7.319   7.042  0.1088 -0.1434 -0.1568
 1052YOPC   C4A14442   9.684   7.078   7.056  0.1576  0.1315 -0.0429
 1052YOPC   C1B14443   8.337   7.690   6.614 -0.0011  0.3425 -0.0749
 1052YOPC   C2B14444   8.471   7.390   6.860 -0.0369 -0.0204  0.1089
 1052YOPC   D3B14445   8.333   6.913   6.699  0.2460  0.2635  0.4730
 1052YOPC   C4B14446   8.194   6.517   6.386 -0.2619  0.3557  0.0306
 1053YOPC   NC314447   8.189  18.843   5.313 -0.1731 -0.1885  0.2567
 1053YOPC   PO414448   8.393  19.229   5.469 -0.3512 -0.0515 -0.1131
 1053YOPC   GL114449   8.457  19.107   5.811 -0.0098  0.0135 -0.1411
 1053YOPC   GL214450   8.280  18.847   5.890 -0.1225 -0.2638  0.0375
 1053YOPC   C1A14451   8.686  19.217   6.155  0.0848  0.3131 -0.2804
 1053YOPC   D2A14452   9.116  19.215   6.147 -0.3535 -0.0628  0.0932
 1053YOPC   C3A14453   9.408  18.974   6.402 -0.0348  0.0612 -0.0361
 1053YOPC   C4A14454   9.497  18.973   6.822  0.1596  0.0074  0.2079
 1053YOPC   C1B14455   8.089  18.897   6.293  0.0222  0.2526  0.1501
 1053YOPC   C2B14456   8.321  19.073   6.626 -0.1642  0.1502 -0.2980
 1053YOPC   D3B14457   8.126  19.114   6.978 -0.0792  0.0688 -0.0452
 1053YOPC   C4B14458   8.030  19.152   7.378 -0.0632 -0.0079 -0.2281
 1054YOPC   NC314459   1.877  10.082   5.714  0.1247 -0.0287  0.0705
 1054YOPC   PO414460   1.729  10.298   5.945  0.0397 -0.1074  0.2973
 1054YOPC   GL114461   1.697  10.212   6.392 -0.0873  0.0114  0.1226
 1054YOPC   GL214462   1.400  10.187   6.547 -0.4025  0.2095  0.2694
 1054YOPC   C1A14463   1.860   9.943   6.739  0.1535  0.4611 -0.1925
 1054YOPC   D2A14464   2.037  10.080   7.111  0.2738 -0.3405  0.1423
 1054YOPC   C3A14465   1.809  10.264   7.399 -0.3310 -0.0553 -0.0265
 1054YOPC   C4A14466   1.744  10.608   7.410 -0.0978  0.0527 -0.0474
 1054YOPC   C1B14467   1.301   9.851   6.860 -0.0389  0.0355  0.0153
 1054YOPC   C2B14468   1.146   9.673   7.208 -0.0665  0.0667 -0.2666
 1054YOPC   D3B14469   0.771   9.553   7.349 -0.1072 -0.4448 -0.0768
 1054YOPC   C4B14470   0.491   9.348   7.636 -0.1957 -0.0629 -0.0670
 1055YOPC   NC314471   2.749   3.689   4.954  0.1675 -0.0172 -0.1629
 1055YOPC   PO414472   2.865   3.774   5.445  0.3034 -0.1019 -0.3466
 1055YOPC   GL114473   2.992   3.701   5.905  0.1317 -0.1354 -0.0273
 1055YOPC   GL214474   3.382   3.826   5.924  0.2423 -0.0007 -0.0714
 1055YOPC   C1A14475   2.985   3.567   6.336  0.2879 -0.2479  0.0434
 1055YOPC   D2A14476   3.050   3.370   6.736 -0.3324  0.0529  0.1300
 1055YOPC   C3A14477   3.434   3.160   7.018  0.0673  0.1367  0.0916
 1055YOPC   C4A14478   3.860   2.997   7.223  0.0099  0.1922 -0.0686
 1055YOPC   C1B14479   3.407   3.902   6.303  0.1216  0.0042  0.0415
 1055YOPC   C2B14480   3.472   3.725   6.706  0.0077 -0.0722  0.0132
 1055YOPC   D3B14481   3.533   4.017   7.066  0.3234 -0.0879 -0.1354
 1055YOPC   C4B14482   3.371   4.063   7.426  0.0306 -0.0021  0.4532
 1056YOPC   NC314483   4.850   9.292   5.345 -0.0127  0.0633  0.2762
 1056YOPC   PO414484   5.074   9.023   5.008  0.2149  0.2771  0.0115
 1056YOPC   GL114485   5.282   8.975   5.430 -0.0447 -0.4746  0.1472
 1056YOPC   GL214486   5.537   9.222   5.477 -0.3312 -0.3096 -0.1526
 1056YOPC   C1A14487   5.283   8.626   5.712  0.0138 -0.0574 -0.2338
 1056YOPC   D2A14488   5.380   8.765   6.153  0.0822 -0.1039 -0.2545
 1056YOPC   C3A14489   5.079   8.814   6.540 -0.0190 -0.2254  0.0017
 1056YOPC   C4A14490   4.893   8.799   6.914  0.0289  0.1811 -0.0000
 1056YOPC   C1B14491   5.523   9.302   5.944  0.1164 -0.1338  0.0636
 1056YOPC   C2B14492   5.654   9.597   6.246 -0.4770  0.1427  0.1660
 1056YOPC   D3B14493   5.477   9.982   6.236  0.1545 -0.0819  0.2918
 1056YOPC   C4B14494   5.305  10.299   6.158  0.0197 -0.3687 -0.2379
 1057YOPC   NC314495   3.264  18.154   5.039  0.2177  0.1450  0.0212
 1057YOPC   PO414496   3.238  18.434   5.387  0.0545  0.0782 -0.1337
 1057YOPC   GL114497   3.378  18.343   5.767  0.0234 -0.0376  0.4354
 1057YOPC   GL214498   3.261  18.123   5.941 -0.0296  0.2171  0.0590
 1057YOPC   C1A14499   3.747  18.733   5.898  0.2270 -0.0123  0.0082
 1057YOPC   D2A14500   4.052  19.119   6.015 -0.0531 -0.0349 -0.0133
 1057YOPC   C3A14501   3.869  19.516   6.117  0.2364 -0.1465 -0.0490
 1057YOPC   C4A14502   3.863  19.905   6.288  0.1598  0.0289 -0.4358
 1057YOPC   C1B14503   3.296  17.856   6.322  0.2244  0.3265 -0.0590
 1057YOPC   C2B14504   3.297  17.812   6.720 -0.0327 -0.1495 -0.0823
 1057YOPC   D3B14505   3.568  17.659   7.012  0.1306  0.0634 -0.0702
 1057YOPC   C4B14506   3.862  17.374   7.169  0.3185 -0.0207 -0.0244
 1058YOPC   NC314507   2.038  14.070   5.319  0.2855  0.1644  0.1518
 1058YOPC   PO414508   1.905  13.797   4.964 -0.2301  0.0456 -0.1739
 1058YOPC   GL114509   1.794  13.609   5.295  0.2543  0.0508  0.1976
 1058YOPC   GL214510   1.445  13.718   5.439 -0.0328 -0.2293  0.2220
 1058YOPC   C1A14511   2.039  13.323   5.579  0.0030 -0.0062 -0.1565
 1058YOPC   D2A14512   2.253  12.818   5.772 -0.0521 -0.1673  0.1035
 1058YOPC   C3A14513   2.346  13.154   6.122 -0.0354  0.0125  0.1274
 1058YOPC   C4A14514   2.482  13.573   6.058  0.0555  0.1766  0.2132
 1058YOPC   C1B14515   1.503  13.583   5.813  0.2125 -0.2195 -0.1501
 1058YOPC   C2B14516   1.860  13.493   6.183 -0.0028  0.1530  0.2652
 1058YOPC   D3B14517   2.178  13.386   6.540 -0.0782 -0.2509  0.1582
 1058YOPC   C4B14518   2.067  13.533   6.976  0.1189 -0.0500 -0.1170
 1059YOPC   NC314519   9.791   3.117   5.120  0.1954  0.0028  0.2045
 1059YOPC   PO414520   9.612   3.355   5.585  0.0637  0.2396  0.0524
 1059YOPC   GL114521   9.548   3.763   5.953  0.0329 -0.3167 -0.0952
 1059YOPC   GL214522   9.320   3.938   6.019  0.3197  0.3532 -0.3234
 1059YOPC   C1A14523   9.529   3.787   6.458 -0.0691  0.2673 -0.0616
 1059YOPC   D2A14524   9.541   3.965   6.889 -0.0221 -0.1970  0.1935
 1059YOPC   C3A14525   9.307   3.635   7.201 -0.1291  0.3556  0.0389
 1059YOPC   C4A14526   9.382   3.229   7.255 -0.0830  0.0301 -0.0780
 1059YOPC   C1B14527   9.255   4.339   6.085 -0.1286  0.3515  0.4148
 1059YOPC   C2B14528   9.271   4.652   5.852 -0.1947 -0.1950  0.0807
 1059YOPC   D3B14529   9.179   5.043   5.932  0.0661 -0.0722  0.0810
 1059YOPC   C4B14530   9.360   5.493   5.937 -0.1911 -0.0409  0.2020
 1060YOPC   NC314531  16.712  10.875   5.083  0.1974  0.0270 -0.0871
 1060YOPC   PO414532  16.984  10.841   5.400  0.2170 -0.1590 -0.0713
 1060YOPC   GL114533  16.948  10.688   5.767  0.0106 -0.0971  0.0498
 1060YOPC   GL214534  16.785  10.354   5.912 -0.2308  0.0758 -0.2281
 1060YOPC   C1A14535  16.718  10.735   6.151  0.1588 -0.3170  0.0287
 1060YOPC   D2A14536  16.746  10.754   6.581  0.0889  0.1511  0.0379
 1060YOPC   C3A14537  16.322  10.549   6.732 -0.1629 -0.0344 -0.1124
 1060YOPC   C4A14538  16.138  10.397   7.153 -0.0062  0.0387 -0.0568
 1060YOPC   C1B14539  16.354  10.409   6.171  0.0651 -0.1542  0.2435
 1060YOPC   C2B14540  15.992  10.634   6.376  0.0318  0.1415 -0.3904
 1060YOPC   D3B14541  15.579  10.843   6.268 -0.0632 -0.1930  0.4096
 1060YOPC   C4B14542  15.195  11.124   6.479  0.0347 -0.2311  0.0442
 1061YOPC   NC314543  15.677   9.138   5.690 -0.1137  0.3572  0.0109
 1061YOPC   PO414544  15.604   9.529   5.574  0.0748 -0.0580 -0.2649
 1061YOPC   GL114545  16.095   9.444   5.734 -0.0331 -0.0448 -0.1201
 1061YOPC   GL214546  16.305   9.577   6.008  0.2099 -0.0089 -0.2727
 1061YOPC   C1A14547  16.215   9.055   5.988  0.0947  0.1646 -0.0260
 1061YOPC   D2A14548  16.436   8.690   6.001  0.2970 -0.0710  0.1215
 1061YOPC   C3A14549  16.838   8.499   6.034 -0.0221 -0.3314  0.0202
 1061YOPC   C4A14550  17.199   8.234   6.102  0.3421 -0.5711  0.0502
 1061YOPC   C1B14551  16.464   9.412   6.399 -0.0748  0.0663 -0.0703
 1061YOPC   C2B14552  16.256   9.019   6.556  0.0069 -0.0783  0.2894
 1061YOPC   D3B14553  16.079   8.692   6.303 -0.4493  0.3112 -0.3478
 1061YOPC   C4B14554  16.168   8.222   6.318 -0.4607 -0.2394  0.4280
 1062YOPC   NC314555   4.999  18.505   5.387 -0.0437 -0.0893  0.0584
 1062YOPC   PO414556   4.607  18.660   5.431 -0.3108  0.0393 -0.3534
 1062YOPC   GL114557   4.391  18.869   5.799  0.2181 -0.1187  0.0136
 1062YOPC   GL214558   4.223  18.653   5.936 -0.0861  0.0009  0.0897
 1062YOPC   C1A14559   4.552  19.104   6.236 -0.0041  0.1950  0.1049
 1062YOPC   D2A14560   4.878  19.250   6.590 -0.3546  0.2306  0.0184
 1062YOPC   C3A14561   4.858  19.328   7.057 -0.4272 -0.1490  0.2102
 1062YOPC   C4A14562   4.999  19.441   7.480  0.0327 -0.0971 -0.3714
 1062YOPC   C1B14563   4.198  18.778   6.399 -0.0522 -0.1253 -0.1021
 1062YOPC   C2B14564   3.929  18.877   6.677 -0.2264  0.1197 -0.1411
 1062YOPC   D3B14565   3.715  18.614   6.851  0.0841  0.0633  0.0601
 1062YOPC   C4B14566   3.671  18.171   6.962  0.0621 -0.0459  0.1168
 1063YOPC   NC314567   4.268   6.355   5.214 -0.1192  0.0851 -0.0339
 1063YOPC   PO414568   3.852   6.533   5.281  0.1679 -0.0437 -0.4538
 1063YOPC   GL114569   3.753   6.517   5.776 -0.2750 -0.1015  0.2351
 1063YOPC   GL214570   3.757   6.899   5.862 -0.0495 -0.0851 -0.1059
 1063YOPC   C1A14571   3.792   6.538   6.237 -0.0513 -0.0233  0.1737
 1063YOPC   D2A14572   3.799   6.530   6.707 -0.1335 -0.0325  0.2422
 1063YOPC   C3A14573   3.686   6.142   6.977 -0.0220  0.1717 -0.0884
 1063YOPC   C4A14574   3.708   5.850   7.210  0.0458  0.1683  0.4815
 1063YOPC   C1B14575   3.998   7.025   6.123  0.3044  0.1972  0.0022
 1063YOPC   C2B14576   4.099   7.025   6.520  0.1386 -0.1995 -0.3837
 1063YOPC   D3B14577   4.224   6.808   6.905  0.1741  0.0155 -0.2711
 1063YOPC   C4B14578   4.447   6.587   7.223 -0.0644 -0.3809  0.3818
 1064YOPC   NC314579  15.310   1.396   5.204  0.1291 -0.0698 -0.1324
 1064YOPC   PO414580  15.029   1.229   5.687  0.1856  0.1994  0.0462
 1064YOPC   GL114581  15.242   1.148   6.044  0.0207 -0.1227 -0.2696
 1064YOPC   GL214582  15.129   1.309   6.199 -0.1647 -0.1188  0.1278
 1064YOPC   C1A14583  14.972   0.830   6.275  0.0238  0.1270  0.2073
 1064YOPC   D2A14584  14.839   0.778   6.637  0.0504 -0.4153  0.3095
 1064YOPC   C3A14585  14.602   1.057   6.940  0.3178 -0.1597  0.1174
 1064YOPC   C4A14586  14.375   1.494   6.811 -0.0003 -0.2485  0.0011
 1064YOPC   C1B14587  14.897   1.386   6.659 -0.0149  0.2630  0.1452
 1064YOPC   C2B14588  14.791   1.588   7.037 -0.0372 -0.1816  0.1213
 1064YOPC   D3B14589  14.468   1.852   7.170  0.1839  0.2196 -0.0146
 1064YOPC   C4B14590  13.945   1.816   7.249 -0.3076  0.1471 -0.0525
 1065YOPC   NC314591  14.449   9.655   6.049  0.0453  0.1758 -0.0579
 1065YOPC   PO414592  14.851   9.940   5.821  0.0140 -0.4994 -0.0835
 1065YOPC   GL114593  15.010  10.025   6.205  0.1420  0.2698  0.0106
 1065YOPC   GL214594  15.214  10.276   6.192  0.0210  0.0306 -0.0177
 1065YOPC   C1A14595  15.226   9.983   6.610 -0.0983 -0.1191  0.2865
 1065YOPC   D2A14596  15.557   9.798   6.899 -0.3166  0.0321 -0.0379
 1065YOPC   C3A14597  15.592   9.783   7.362  0.2247  0.1566 -0.0799
 1065YOPC   C4A14598  15.830   9.914   7.701  0.0843  0.2005  0.1128
 1065YOPC   C1B14599  15.297  10.518   6.552  0.2344  0.1589 -0.1464
 1065YOPC   C2B14600  15.316  10.368   6.947 -0.1912 -0.3052 -0.0852
 1065YOPC   D3B14601  15.603  10.295   7.319 -0.1764 -0.1424  0.2209
 1065YOPC   C4B14602  16.013  10.384   7.602  0.0793 -0.3214  0.0064
 1066YOPC   NC314603  12.168   1.324   5.691  0.1838 -0.0885 -0.0299
 1066YOPC   PO414604  12.511   1.147   5.381  0.0181 -0.3972 -0.2563
 1066YOPC   GL114605  12.631   1.204   5.830  0.2202  0.3060  0.2642
 1066YOPC   GL214606  12.580   1.585   5.913  0.0221 -0.1666 -0.1755
 1066YOPC   C1A14607  12.894   1.193   6.195 -0.0158  0.3537  0.2976
 1066YOPC   D2A14608  12.918   1.367   6.589  0.0278  0.2564  0.1380
 1066YOPC   C3A14609  12.792   1.455   7.065 -0.0351 -0.0122  0.5182
 1066YOPC   C4A14610  12.981   1.457   7.448  0.1318 -0.0660  0.3184
 1066YOPC   C1B14611  12.435   1.483   6.325 -0.2687 -0.0153  0.0490
 1066YOPC   C2B14612  12.361   1.791   6.710  0.3689  0.0105 -0.1194
 1066YOPC   D3B14613  12.429   1.787   7.120 -0.2628  0.0295 -0.0027
 1066YOPC   C4B14614  12.438   1.657   7.547 -0.0496 -0.0437 -0.0621
 1067YOPC   NC314615  14.201  10.394   5.433 -0.1997 -0.0341 -0.2072
 1067YOPC   PO414616  14.457  10.334   5.805  0.2076 -0.1082  0.2725
 1067YOPC   GL114617  14.616  10.439   6.136 -0.1573  0.0664 -0.0151
 1067YOPC   GL214618  14.513  10.783   6.038  0.2194 -0.2193 -0.1590
 1067YOPC   C1A14619  14.768  10.428   6.547  0.1174  0.1420  0.1197
 1067YOPC   D2A14620  14.675  10.329   6.963  0.1898  0.0585  0.1012
 1067YOPC   C3A14621  14.457  10.626   7.216  0.3602  0.1975 -0.0874
 1067YOPC   C4A14622  14.152  10.505   7.543 -0.0161  0.1516  0.2454
 1067YOPC   C1B14623  14.704  11.085   6.405 -0.0080  0.0109 -0.1249
 1067YOPC   C2B14624  14.762  11.157   6.850  0.1022 -0.2089 -0.1907
 1067YOPC   D3B14625  15.175  11.221   7.001  0.2024  0.0633  0.0002
 1067YOPC   C4B14626  15.379  11.301   7.423  0.2410  0.2620 -0.3119
 1068YOPC   NC314627  17.761   0.478   5.649  0.3714 -0.2496  0.2761
 1068YOPC   PO414628  17.736   0.076   5.732  0.3993 -0.0830  0.0275
 1068YOPC   GL114629  17.767  -0.065   6.113  0.0093  0.2720 -0.1122
 1068YOPC   GL214630  17.916  -0.375   6.127 -0.0372  0.2861  0.1672
 1068YOPC   C1A14631  17.769  -0.187   6.572 -0.1058  0.2319  0.1485
 1068YOPC   D2A14632  17.722  -0.584   6.727 -0.0972 -0.2324  0.1598
 1068YOPC   C3A14633  17.980  -0.670   7.198  0.1273  0.2906 -0.0097
 1068YOPC   C4A14634  17.819  -0.509   7.570  0.0032  0.1699  0.1531
 1068YOPC   C1B14635  17.506  -0.607   6.222  0.2333  0.1014 -0.1020
 1068YOPC   C2B14636  17.300  -0.608   6.482 -0.0051 -0.1182  0.1149
 1068YOPC   D3B14637  17.209  -0.735   6.833 -0.1581  0.0189  0.1776
 1068YOPC   C4B14638  17.153  -1.243   6.947 -0.4650 -0.0009 -0.1763
 1069YOPC   NC314639  13.754   7.349   5.730  0.2375  0.0606  0.0226
 1069YOPC   PO414640  13.355   7.661   5.775 -0.0220  0.0782 -0.0342
 1069YOPC   GL114641  13.572   7.626   6.162  0.1109 -0.1309  0.1590
 1069YOPC   GL214642  13.475   7.392   6.242  0.0300  0.1537 -0.0449
 1069YOPC   C1A14643  13.619   7.682   6.557  0.0391  0.3394 -0.1818
 1069YOPC   D2A14644  13.436   7.601   6.911 -0.0714 -0.1163 -0.0070
 1069YOPC   C3A14645  13.111   7.799   6.998 -0.0760 -0.1351 -0.0939
 1069YOPC   C4A14646  13.032   8.069   7.243 -0.0490 -0.4433  0.1265
 1069YOPC   C1B14647  13.233   7.215   6.649 -0.0021  0.2156  0.1662
 1069YOPC   C2B14648  13.281   6.975   7.007 -0.0861 -0.2124  0.1636
 1069YOPC   D3B14649  13.425   7.270   7.265  0.0680 -0.0643  0.0938
 1069YOPC   C4B14650  13.361   7.399   7.707  0.1205  0.1582  0.2141
 1070YOPC   NC314651  10.471  16.034   5.427  0.0863 -0.0256 -0.1145
 1070YOPC   PO414652  10.451  15.564   5.566 -0.2071 -0.0500  0.0398
 1070YOPC   GL114653  10.750  15.434   6.064 -0.0700 -0.1337  0.2232
 1070YOPC   GL214654  10.588  15.183   6.177  0.3348  0.1196 -0.1894
 1070YOPC   C1A14655  10.537  15.599   6.461  0.0298  0.2172  0.1086
 1070YOPC   D2A14656  10.468  15.673   6.935  0.0708 -0.1417 -0.2289
 1070YOPC   C3A14657  10.623  15.370   7.144 -0.1822 -0.0303  0.2093
 1070YOPC   C4A14658  10.798  15.337   7.441  0.0049 -0.3316  0.4207
 1070YOPC   C1B14659  10.401  15.203   6.658  0.1435  0.1850 -0.0986
 1070YOPC   C2B14660  10.220  15.106   6.994 -0.0290  0.2012  0.1975
 1070YOPC   D3B14661  10.421  14.952   7.394  0.0846 -0.1335  0.1104
 1070YOPC   C4B14662  10.489  15.023   7.889 -0.0925  0.0199 -0.1559
 1071YOPC   NC314663   6.232  16.513   5.158  0.0767  0.0207  0.0862
 1071YOPC   PO414664   6.455  16.520   5.509 -0.0247  0.4238  0.2114
 1071YOPC   GL114665   6.600  16.608   5.877  0.0831 -0.1843  0.0085
 1071YOPC   GL214666   6.747  16.843   5.771  0.0680 -0.1970  0.1284
 1071YOPC   C1A14667   6.575  16.695   6.397  0.1275  0.2439 -0.0167
 1071YOPC   D2A14668   6.401  16.667   6.789 -0.0284 -0.0180  0.0868
 1071YOPC   C3A14669   6.460  16.757   7.190 -0.3258  0.2701  0.0181
 1071YOPC   C4A14670   6.215  16.711   7.525  0.1975  0.0242 -0.2221
 1071YOPC   C1B14671   6.910  17.015   6.045  0.2990  0.1636 -0.1993
 1071YOPC   C2B14672   6.702  17.236   6.355  0.2364  0.0456 -0.3136
 1071YOPC   D3B14673   6.725  17.155   6.726 -0.1099 -0.0931 -0.0769
 1071YOPC   C4B14674   6.491  17.219   7.044 -0.0572  0.1543  0.1088
 1072YOPC   NC314675  17.576   3.639   5.504  0.0301 -0.0630  0.1362
 1072YOPC   PO414676  17.048   3.439   5.585  0.2412 -0.0094  0.0952
 1072YOPC   GL114677  16.701   3.807   5.781  0.2005  0.1429  0.2079
 1072YOPC   GL214678  16.865   3.635   6.091  0.2001  0.1892  0.0873
 1072YOPC   C1A14679  16.517   3.965   6.179 -0.1559 -0.4173 -0.0422
 1072YOPC   D2A14680  16.409   3.913   6.582 -0.0501 -0.3060 -0.1838
 1072YOPC   C3A14681  16.764   3.739   6.758  0.0492 -0.0376  0.1965
 1072YOPC   C4A14682  17.105   3.467   6.517  0.1851  0.3085 -0.1678
 1072YOPC   C1B14683  17.037   3.916   6.348 -0.2780  0.1009  0.0702
 1072YOPC   C2B14684  17.193   4.099   6.737 -0.2775  0.0530 -0.1680
 1072YOPC   D3B14685  17.191   3.915   7.064 -0.3154 -0.1714  0.1291
 1072YOPC   C4B14686  17.150   4.123   7.391  0.2481  0.0693  0.0520
 1073YOPC   NC314687  13.033   5.085   5.426 -0.0233 -0.0244  0.0728
 1073YOPC   PO414688  13.165   5.093   5.851  0.0765 -0.0206  0.2717
 1073YOPC   GL114689  13.474   5.248   6.095 -0.2133 -0.0393  0.2401
 1073YOPC   GL214690  13.655   5.121   6.167  0.0663  0.1201  0.3352
 1073YOPC   C1A14691  13.640   5.555   6.392 -0.1012 -0.3220  0.1233
 1073YOPC   D2A14692  13.744   5.887   6.663  0.3226  0.1579 -0.1398
 1073YOPC   C3A14693  13.556   6.145   6.985  0.1198  0.0250 -0.1220
 1073YOPC   C4A14694  13.624   6.291   7.409  0.4211 -0.0969  0.0307
 1073YOPC   C1B14695  14.032   5.291   6.533 -0.2137 -0.1211 -0.2422
 1073YOPC   C2B14696  14.146   5.594   6.751 -0.0989  0.3391 -0.1958
 1073YOPC   D3B14697  13.870   5.741   7.162 -0.2838  0.2612 -0.0564
 1073YOPC   C4B14698  13.623   5.781   7.544  0.1909 -0.0042 -0.0493
 1074YOPC   NC314699   3.312  12.687   4.885  0.1455 -0.0667  0.0415
 1074YOPC   PO414700   3.006  12.747   5.217 -0.0316 -0.2672 -0.0871
 1074YOPC   GL114701   3.305  12.836   5.641 -0.1304  0.1261 -0.0120
 1074YOPC   GL214702   3.110  12.700   6.048 -0.1690 -0.0365 -0.1932
 1074YOPC   C1A14703   3.560  12.850   5.955 -0.0085 -0.3026 -0.1645
 1074YOPC   D2A14704   3.560  12.735   6.380 -0.0470  0.1564  0.2347
 1074YOPC   C3A14705   3.943  12.792   6.674 -0.0604  0.1040  0.1062
 1074YOPC   C4A14706   4.167  13.128   6.888 -0.3414 -0.0217  0.0493
 1074YOPC   C1B14707   3.062  12.766   6.481  0.1525  0.0063  0.0167
 1074YOPC   C2B14708   3.185  12.791   6.854 -0.3999  0.1481 -0.1571
 1074YOPC   D3B14709   2.979  12.918   7.105 -0.1591 -0.3299 -0.1691
 1074YOPC   C4B14710   2.676  13.070   7.049 -0.0867  0.1052 -0.0408
 1075YOPC   NC314711  10.784   5.137   5.433 -0.1633 -0.0804 -0.0160
 1075YOPC   PO414712  10.309   5.005   5.545 -0.1744  0.0536  0.0863
 1075YOPC   GL114713  10.557   5.042   5.882 -0.2070 -0.0644  0.2029
 1075YOPC   GL214714  10.543   5.399   5.965  0.1473 -0.1286 -0.1082
 1075YOPC   C1A14715  10.709   4.971   6.310  0.2814  0.0768  0.1653
 1075YOPC   D2A14716  10.358   5.003   6.653  0.0458 -0.0633  0.1137
 1075YOPC   C3A14717  10.299   4.872   6.981 -0.4498 -0.2354 -0.1001
 1075YOPC   C4A14718  10.252   4.919   7.415 -0.1559 -0.0526 -0.2015
 1075YOPC   C1B14719  10.662   5.461   6.361  0.0703 -0.1540 -0.2435
 1075YOPC   C2B14720  10.439   5.626   6.701  0.0494 -0.0872 -0.1977
 1075YOPC   D3B14721  10.372   5.342   7.127  0.1618  0.0569 -0.1681
 1075YOPC   C4B14722  10.510   5.361   7.533  0.2836  0.0872 -0.0244
 1076YOPC   NC314723   7.767   9.732   5.636 -0.1888 -0.0617 -0.0820
 1076YOPC   PO414724   7.279   9.733   5.494  0.1994  0.0617  0.0440
 1076YOPC   GL114725   7.330   9.569   5.884  0.1056 -0.2421 -0.1429
 1076YOPC   GL214726   7.241   9.763   6.115 -0.2354 -0.0241  0.1136
 1076YOPC   C1A14727   7.364   9.288   6.228  0.2628  0.1295  0.1961
 1076YOPC   D2A14728   7.186   9.373   6.509 -0.2816 -0.0731 -0.0305
 1076YOPC   C3A14729   7.272   9.658   6.762  0.0968 -0.2158  0.0105
 1076YOPC   C4A14730   7.130   9.864   7.114  0.0068  0.2912 -0.1209
 1076YOPC   C1B14731   7.622   9.682   6.367  0.1508  0.3058  0.3171
 1076YOPC   C2B14732   7.768   9.467   6.749  0.0494 -0.1519  0.1182
 1076YOPC   D3B14733   8.093   9.572   6.883 -0.0510 -0.2199  0.0356
 1076YOPC   C4B14734   8.435   9.437   7.000 -0.0186 -0.2617 -0.3267
 1077YOPC   NC314735   5.238   0.334   4.865  0.1524  0.0696  0.1710
 1077YOPC   PO414736   5.620   0.172   4.811 -0.0029  0.1225 -0.0436
 1077YOPC   GL114737   5.896   0.087   5.201  0.1072  0.2635 -0.0780
 1077YOPC   GL214738   5.955  -0.217   5.238 -0.2783 -0.0553  0.0127
 1077YOPC   C1A14739   5.884   0.250   5.603 -0.2753  0.1087 -0.1246
 1077YOPC   D2A14740   5.995   0.582   5.848 -0.2938 -0.2446  0.1044
 1077YOPC   C3A14741   5.985   0.744   6.260  0.1630 -0.1437  0.0179
 1077YOPC   C4A14742   5.767   0.760   6.642 -0.1848  0.4996  0.1610
 1077YOPC   C1B14743   6.236  -0.177   5.652 -0.1325 -0.3953 -0.2724
 1077YOPC   C2B14744   6.193   0.105   6.053 -0.0070  0.0072 -0.0178
 1077YOPC   D3B14745   6.455   0.413   6.003  0.2080  0.3406  0.0517
 1077YOPC   C4B14746   6.869   0.645   5.917  0.0066 -0.1829 -0.1632
 1078YOPC   NC314747   7.848  10.740   5.059  0.0148  0.1147  0.0712
 1078YOPC   PO414748   7.497  10.812   5.239 -0.0856  0.1048  0.3692
 1078YOPC   GL114749   7.411  10.653   5.681  0.3391  0.0099 -0.0055
 1078YOPC   GL214750   7.083  10.699   5.864  0.1033  0.1410  0.0944
 1078YOPC   C1A14751   7.488  10.570   6.171 -0.0599 -0.2553  0.3864
 1078YOPC   D2A14752   7.836  10.543   6.501 -0.2722  0.1420  0.1198
 1078YOPC   C3A14753   8.287  10.750   6.693  0.0662 -0.0217  0.0253
 1078YOPC   C4A14754   8.708  10.732   6.734 -0.2433 -0.1144  0.0276
 1078YOPC   C1B14755   7.014  10.689   6.267  0.1782  0.1998 -0.1059
 1078YOPC   C2B14756   7.029  11.052   6.664  0.2581  0.0200  0.0513
 1078YOPC   D3B14757   6.861  11.351   7.081 -0.0436  0.1324  0.0723
 1078YOPC   C4B14758   7.001  11.574   7.385 -0.0132 -0.1210  0.2978
 1079YOPC   NC314759  15.012   6.745   5.983  0.1866  0.0316  0.1935
 1079YOPC   PO414760  14.996   6.298   5.930  0.0089  0.3279 -0.3435
 1079YOPC   GL114761  14.913   6.361   6.302  0.0687  0.0296 -0.1717
 1079YOPC   GL214762  14.597   6.448   6.323 -0.1644  0.0161  0.2769
 1079YOPC   C1A14763  14.983   6.446   6.742 -0.2632  0.1791 -0.1089
 1079YOPC   D2A14764  15.125   6.669   7.169 -0.2033 -0.1517  0.1556
 1079YOPC   C3A14765  15.410   6.495   7.492  0.1172  0.0653  0.1967
 1079YOPC   C4A14766  15.664   6.101   7.625  0.0408 -0.1511 -0.0859
 1079YOPC   C1B14767  14.482   6.267   6.824 -0.3625 -0.3044 -0.0327
 1079YOPC   C2B14768  14.353   5.903   7.129 -0.3364 -0.3054  0.3105
 1079YOPC   D3B14769  14.604   6.003   7.478  0.0838  0.1517 -0.1231
 1079YOPC   C4B14770  15.102   6.019   7.608 -0.2754 -0.1024  0.1335
 1080YOPC   NC314771  13.814   9.185   5.472  0.2849 -0.1278 -0.4065
 1080YOPC   PO414772  13.782   9.141   5.914 -0.3411  0.0125  0.0800
 1080YOPC   GL114773  13.702   9.106   6.361  0.0179  0.3677  0.1802
 1080YOPC   GL214774  13.834   9.263   6.572 -0.0152 -0.2560 -0.2221
 1080YOPC   C1A14775  13.315   9.134   6.605  0.1239  0.2785  0.2501
 1080YOPC   D2A14776  13.243   9.277   7.066  0.0202 -0.1063 -0.0369
 1080YOPC   C3A14777  13.537   9.341   7.403  0.0511 -0.2515 -0.1040
 1080YOPC   C4A14778  13.858   9.646   7.480  0.1378  0.1298 -0.3340
 1080YOPC   C1B14779  13.712   9.142   6.953 -0.0554 -0.1923 -0.0259
 1080YOPC   C2B14780  13.373   8.814   7.163  0.1298 -0.0128 -0.1135
 1080YOPC   D3B14781  13.261   8.448   7.327 -0.0880 -0.1789  0.1388
 1080YOPC   C4B14782  12.833   8.422   7.537  0.1632  0.1052  0.1771
 1081YOPC   NC314783  10.430   3.525   5.963  0.0335 -0.1268 -0.4225
 1081YOPC   PO414784  10.545   3.988   5.956  0.1813 -0.1873 -0.0557
 1081YOPC   GL114785  10.485   4.173   6.280  0.2823 -0.2112  0.0935
 1081YOPC   GL214786  10.227   4.365   6.350 -0.2038  0.1371  0.2680
 1081YOPC   C1A14787  10.572   4.047   6.685 -0.1622  0.2434  0.4095
 1081YOPC   D2A14788  10.792   4.105   7.025  0.0618 -0.1918  0.2706
 1081YOPC   C3A14789  11.036   4.513   7.023 -0.1482  0.1331  0.0130
 1081YOPC   C4A14790  11.172   4.776   7.346 -0.2862  0.1684  0.3496
 1081YOPC   C1B14791  10.020   4.040   6.707  0.0240 -0.2850 -0.0813
 1081YOPC   C2B14792  10.159   4.086   7.089  0.3527  0.3222  0.0546
 1081YOPC   D3B14793  10.503   3.933   7.389 -0.1186 -0.1835  0.2777
 1081YOPC   C4B14794  10.861   3.777   7.619 -0.0628 -0.0753 -0.2210
 1082YOPC   NC314795   4.110   0.530   5.131  0.3214 -0.3670 -0.0880
 1082YOPC   PO414796   4.358   0.728   5.298 -0.3177 -0.0626  0.1061
 1082YOPC   GL114797   4.476   0.851   5.611 -0.0900 -0.1104  0.1629
 1082YOPC   GL214798   4.513   0.622   5.826  0.0427 -0.3126 -0.0321
 1082YOPC   C1A14799   4.184   0.982   5.908 -0.2063 -0.1549  0.0262
 1082YOPC   D2A14800   4.158   1.330   6.113  0.0846 -0.2361 -0.0985
 1082YOPC   C3A14801   4.071   1.411   6.553  0.2228  0.0903  0.1723
 1082YOPC   C4A14802   4.197   1.559   6.985  0.2410  0.3760  0.0654
 1082YOPC   C1B14803   4.404   0.613   6.216 -0.1034  0.1027 -0.0894
 1082YOPC   C2B14804   4.171   0.350   6.487  0.0851  0.0871 -0.2282
 1082YOPC   D3B14805   3.905   0.563   6.695 -0.0196  0.0218 -0.2915
 1082YOPC   C4B14806   3.715   0.951   6.798  0.0485 -0.0991 -0.2966
 1083YOPC   NC314807  10.505  15.036   5.733 -0.0045 -0.2280  0.2424
 1083YOPC   PO414808  10.855  15.121   5.523  0.2683  0.4372 -0.0094
 1083YOPC   GL114809  11.061  15.072   5.883 -0.0258 -0.0973 -0.0394
 1083YOPC   GL214810  11.263  15.267   5.971 -0.1765  0.0133  0.0990
 1083YOPC   C1A14811  11.031  14.939   6.246 -0.0532  0.1611  0.0182
 1083YOPC   D2A14812  11.251  14.756   6.480  0.0985  0.0266 -0.0811
 1083YOPC   C3A14813  11.736  14.774   6.593 -0.0364 -0.2001  0.2582
 1083YOPC   C4A14814  12.061  14.890   6.844  0.0257  0.0024  0.1532
 1083YOPC   C1B14815  11.521  15.244   6.332  0.1278  0.0240 -0.2071
 1083YOPC   C2B14816  11.631  15.272   6.718 -0.3119  0.3000 -0.2365
 1083YOPC   D3B14817  11.336  15.001   6.955 -0.1555  0.1130 -0.3303
 1083YOPC   C4B14818  11.075  15.010   7.235 -0.3847 -0.0124  0.6216
 1084YOPC   NC314819  10.634  16.537   5.177  0.3608  0.0089  0.0814
 1084YOPC   PO414820  10.938  16.299   5.385 -0.3050 -0.1802  0.0325
 1084YOPC   GL114821  10.790  16.559   5.700 -0.1306  0.1493 -0.0764
 1084YOPC   GL214822  10.720  16.417   5.910 -0.1188  0.0847 -0.1674
 1084YOPC   C1A14823  10.611  16.980   5.917  0.0655  0.1138 -0.2068
 1084YOPC   D2A14824  10.606  17.263   6.277  0.2841 -0.2315 -0.0130
 1084YOPC   C3A14825  10.622  17.081   6.716 -0.1148 -0.0764  0.0697
 1084YOPC   C4A14826  10.468  17.314   7.092 -0.2167 -0.3232  0.0372
 1084YOPC   C1B14827  10.664  16.025   6.245 -0.3063 -0.0766  0.0170
 1084YOPC   C2B14828  10.477  16.062   6.682  0.1106  0.0319  0.1937
 1084YOPC   D3B14829  10.147  15.988   6.805  0.1503 -0.2438 -0.2225
 1084YOPC   C4B14830   9.696  15.833   6.957  0.0066  0.2363 -0.3885
 1085YOPC   NC314831   9.135  18.582   5.175  0.0434 -0.2975 -0.2819
 1085YOPC   PO414832   9.141  18.110   4.992 -0.0222  0.1488 -0.0763
 1085YOPC   GL114833   9.137  18.043   5.402  0.2922 -0.1880 -0.0240
 1085YOPC   GL214834   8.834  18.072   5.543  0.2463 -0.3117  0.0643
 1085YOPC   C1A14835   9.437  17.928   5.622  0.1977  0.0550 -0.0250
 1085YOPC   D2A14836   9.688  17.682   5.952  0.1843  0.1327 -0.1763
 1085YOPC   C3A14837   9.804  17.701   6.364 -0.0596 -0.2164 -0.2911
 1085YOPC   C4A14838  10.033  17.899   6.660 -0.0016 -0.2159  0.1706
 1085YOPC   C1B14839   8.955  18.121   5.869 -0.4655  0.0660  0.0609
 1085YOPC   C2B14840   8.746  18.268   6.218 -0.1944  0.1415 -0.1316
 1085YOPC   D3B14841   8.847  18.228   6.639  0.5446  0.1395  0.1649
 1085YOPC   C4B14842   8.885  17.967   7.017 -0.0193  0.2036 -0.0358
 1086YOPC   NC314843   2.009  17.559   5.199 -0.0449 -0.2145  0.0372
 1086YOPC   PO414844   2.337  17.276   5.087 -0.0269 -0.0997 -0.2269
 1086YOPC   GL114845   2.160  17.230   5.561 -0.1666 -0.1306  0.1165
 1086YOPC   GL214846   1.864  17.167   5.587 -0.2764  0.0840  0.0249
 1086YOPC   C1A14847   2.071  16.942   6.010  0.0366 -0.2709  0.2324
 1086YOPC   D2A14848   1.941  16.754   6.293 -0.0177  0.2809  0.1227
 1086YOPC   C3A14849   1.838  16.342   6.344  0.0180 -0.2230 -0.4637
 1086YOPC   C4A14850   1.707  16.194   6.595 -0.0568  0.0494 -0.0583
 1086YOPC   C1B14851   1.737  17.314   5.968  0.1100  0.0338 -0.2247
 1086YOPC   C2B14852   1.903  17.259   6.369 -0.4883  0.1054  0.0648
 1086YOPC   D3B14853   1.993  17.289   6.744  0.2761 -0.3870  0.0495
 1086YOPC   C4B14854   1.856  17.432   7.136  0.0526  0.0276 -0.3240
 1087YOPC   NC314855  12.726  11.153   5.150  0.0763 -0.0549  0.2759
 1087YOPC   PO414856  13.066  11.281   5.456 -0.0244  0.3923 -0.0340
 1087YOPC   GL114857  13.320  11.113   5.755 -0.2822  0.2476  0.2365
 1087YOPC   GL214858  13.564  10.892   5.865 -0.0205  0.5950 -0.0714
 1087YOPC   C1A14859  13.316  11.168   6.245 -0.2311 -0.2216 -0.0529
 1087YOPC   D2A14860  13.110  10.883   6.418  0.1263  0.2126  0.1471
 1087YOPC   C3A14861  13.228  10.647   6.815 -0.2414  0.0470 -0.1031
 1087YOPC   C4A14862  13.375  10.577   7.298 -0.0233 -0.1246 -0.1461
 1087YOPC   C1B14863  13.574  10.737   6.328 -0.1435  0.0822  0.0124
 1087YOPC   C2B14864  13.800  10.565   6.679  0.1392  0.0103 -0.1094
 1087YOPC   D3B14865  14.133  10.821   6.660  0.4156  0.2403 -0.1863
 1087YOPC   C4B14866  14.429  10.796   6.733 -0.3952  0.0760  0.0147
 1088YOPC   NC314867  12.227   5.028   5.421 -0.1014 -0.0402 -0.2077
 1088YOPC   PO414868  12.655   4.983   5.776 -0.0060 -0.0997  0.2833
 1088YOPC   GL114869  12.833   4.915   6.188  0.2122  0.1675  0.4032
 1088YOPC   GL214870  12.861   4.530   6.311  0.0733 -0.2047  0.0555
 1088YOPC   C1A14871  12.909   5.031   6.626 -0.1640 -0.1659  0.0001
 1088YOPC   D2A14872  12.582   4.977   6.990 -0.0432 -0.2315  0.1103
 1088YOPC   C3A14873  12.624   5.033   7.420 -0.0990 -0.1962  0.2533
 1088YOPC   C4A14874  12.562   4.958   7.860 -0.0442 -0.0162 -0.1654
 1088YOPC   C1B14875  12.877   4.452   6.765  0.0451 -0.1082  0.0040
 1088YOPC   C2B14876  12.973   4.511   7.184 -0.1325 -0.0115  0.1550
 1088YOPC   D3B14877  13.111   4.279   7.537  0.0287 -0.1318  0.3795
 1088YOPC   C4B14878  13.426   4.417   7.849 -0.2912  0.0064 -0.0457
 1089YOPC   NC314879   4.249  16.599   5.504  0.0728 -0.1949 -0.2644
 1089YOPC   PO414880   4.259  16.173   5.682  0.0931  0.1817  0.3061
 1089YOPC   GL114881   3.981  16.021   5.982  0.2786  0.2429  0.1172
 1089YOPC   GL214882   4.127  16.041   6.208  0.1035 -0.2417 -0.0458
 1089YOPC   C1A14883   3.669  15.709   6.096 -0.1339 -0.3390  0.0043
 1089YOPC   D2A14884   3.653  15.492   6.529  0.0975 -0.0957 -0.1906
 1089YOPC   C3A14885   3.283  15.541   6.865 -0.0052  0.1676 -0.2284
 1089YOPC   C4A14886   3.115  15.240   7.177  0.1040  0.1282  0.2532
 1089YOPC   C1B14887   3.900  15.962   6.497 -0.0571 -0.0033  0.1374
 1089YOPC   C2B14888   3.779  15.841   6.886 -0.2047  0.1647 -0.2084
 1089YOPC   D3B14889   3.793  16.112   7.313 -0.2990  0.0360  0.1718
 1089YOPC   C4B14890   3.721  16.345   7.654  0.0344  0.0878 -0.1703
 1090YOPC   NC314891   0.446   3.923   5.590 -0.2364  0.0600  0.0537
 1090YOPC   PO414892   0.607   3.501   5.708 -0.1992 -0.0260 -0.0705
 1090YOPC   GL114893   0.490   3.692   6.083  0.0138 -0.2456  0.0619
 1090YOPC   GL214894   0.332   3.963   6.201 -0.1638  0.0825 -0.0070
 1090YOPC   C1A14895   0.525   3.659   6.486 -0.0471  0.3731  0.2230
 1090YOPC   D2A14896   0.289   3.481   6.729  0.1149  0.3634  0.3403
 1090YOPC   C3A14897   0.336   3.223   7.058  0.0816 -0.0926  0.0489
 1090YOPC   C4A14898   0.268   3.129   7.478  0.1736  0.0731  0.2813
 1090YOPC   C1B14899   0.596   4.110   6.443 -0.2122 -0.1115  0.2272
 1090YOPC   C2B14900   0.953   4.225   6.685  0.3132 -0.0197  0.3488
 1090YOPC   D3B14901   0.874   4.050   7.175 -0.3497 -0.0101  0.0308
 1090YOPC   C4B14902   0.876   4.027   7.542 -0.1381 -0.3942 -0.1436
 1091YOPC   NC314903   0.121  13.683   5.118  0.0056 -0.0061  0.0598
 1091YOPC   PO414904   0.359  13.364   5.139  0.2747  0.2152 -0.0646
 1091YOPC   GL114905   0.295  13.486   5.522  0.1846 -0.2301 -0.2092
 1091YOPC   GL214906   0.045  13.260   5.640  0.2092  0.1498 -0.0588
 1091YOPC   C1A14907   0.195  13.652   5.923  0.3005  0.1989 -0.0628
 1091YOPC   D2A14908   0.259  13.811   6.273  0.2002  0.0475 -0.0203
 1091YOPC   C3A14909   0.069  13.988   6.655 -0.0447 -0.1174 -0.2799
 1091YOPC   C4A14910   0.203  13.849   7.075  0.4508 -0.0844  0.1614
 1091YOPC   C1B14911   0.203  13.176   6.088  0.0109  0.1835 -0.3409
 1091YOPC   C2B14912   0.300  13.048   6.581  0.2470 -0.1243  0.0943
 1091YOPC   D3B14913   0.081  12.963   6.992 -0.0667 -0.2743  0.1638
 1091YOPC   C4B14914   0.298  13.129   7.457  0.2644 -0.2116 -0.2385
 1092YOPC   NC314915   7.446   3.132   4.786 -0.0031  0.0729 -0.1006
 1092YOPC   PO414916   7.340   2.943   5.180 -0.3887 -0.1696  0.0506
 1092YOPC   GL114917   7.623   3.147   5.566  0.0150 -0.2415  0.0206
 1092YOPC   GL214918   7.883   3.243   5.715  0.1388  0.0212 -0.1401
 1092YOPC   C1A14919   7.319   3.044   5.992 -0.3356 -0.1709 -0.0396
 1092YOPC   D2A14920   7.212   2.949   6.393  0.3537 -0.1612  0.0216
 1092YOPC   C3A14921   7.504   3.075   6.583  0.1489  0.1738  0.1782
 1092YOPC   C4A14922   7.719   3.013   6.929 -0.0102 -0.0045  0.0273
 1092YOPC   C1B14923   7.766   3.288   6.151 -0.2624 -0.1559  0.2646
 1092YOPC   C2B14924   8.053   3.187   6.528 -0.0152 -0.2223 -0.0725
 1092YOPC   D3B14925   8.133   3.566   6.688 -0.0969 -0.4485 -0.2261
 1092YOPC   C4B14926   8.256   4.003   6.939 -0.1827 -0.0003 -0.2617
 1093YOPC   NC314927  12.752  13.157   5.910  0.0051 -0.2529 -0.1473
 1093YOPC   PO414928  12.427  13.485   5.783  0.2786  0.0041  0.2390
 1093YOPC   GL114929  12.388  13.394   6.166  0.3126 -0.4485  0.1235
 1093YOPC   GL214930  12.207  13.662   6.182 -0.2482  0.1291 -0.0015
 1093YOPC   C1A14931  12.534  13.350   6.587 -0.1361 -0.1348 -0.0877
 1093YOPC   D2A14932  12.832  13.129   6.833  0.2001  0.0738  0.2589
 1093YOPC   C3A14933  13.228  12.856   6.678 -0.1704  0.2057 -0.3329
 1093YOPC   C4A14934  13.180  12.551   6.294  0.1797 -0.3142 -0.0136
 1093YOPC   C1B14935  12.590  13.819   6.345 -0.3450  0.1857  0.0985
 1093YOPC   C2B14936  12.754  14.094   6.678 -0.1328  0.0272 -0.0413
 1093YOPC   D3B14937  12.690  14.120   7.155  0.1166  0.1085  0.0881
 1093YOPC   C4B14938  12.630  14.279   7.541 -0.2132 -0.3477 -0.2375
 1094YOPC   NC314939  13.179   6.580   5.570  0.1640 -0.0300  0.0608
 1094YOPC   PO414940  13.528   6.732   5.510 -0.1576  0.0178 -0.0355
 1094YOPC   GL114941  13.330   6.799   5.994 -0.2795 -0.3350  0.2025
 1094YOPC   GL214942  13.596   6.936   6.139  0.0117 -0.1121 -0.1028
 1094YOPC   C1A14943  13.074   6.909   6.341  0.0393  0.0523 -0.1250
 1094YOPC   D2A14944  12.783   6.907   6.742 -0.1386  0.1982  0.1180
 1094YOPC   C3A14945  12.394   7.038   6.797  0.2316 -0.0110 -0.2307
 1094YOPC   C4A14946  12.233   7.474   6.749 -0.4273  0.0722  0.2154
 1094YOPC   C1B14947  13.977   6.675   6.290  0.0216 -0.2519 -0.2892
 1094YOPC   C2B14948  14.270   6.884   6.616  0.0214  0.3326 -0.1969
 1094YOPC   D3B14949  14.188   6.760   7.050  0.2353 -0.0254  0.1551
 1094YOPC   C4B14950  14.089   6.776   7.518 -0.1951 -0.1582  0.1894
 1095YOPC   NC314951   7.089  13.673   5.161  0.0824 -0.0769  0.0583
 1095YOPC   PO414952   6.781  13.354   5.083 -0.0008 -0.1789  0.1725
 1095YOPC   GL114953   6.614  13.261   5.483  0.0298 -0.1282 -0.2248
 1095YOPC   GL214954   6.858  13.144   5.739  0.0547 -0.1662 -0.3918
 1095YOPC   C1A14955   6.287  13.167   5.819  0.0260 -0.0981 -0.3824
 1095YOPC   D2A14956   6.020  12.905   6.081  0.0507 -0.0688  0.1192
 1095YOPC   C3A14957   6.185  12.886   6.492 -0.2126 -0.0401 -0.0414
 1095YOPC   C4A14958   6.311  12.435   6.623  0.3715 -0.0997  0.1754
 1095YOPC   C1B14959   6.691  13.254   6.119 -0.0814 -0.2231 -0.1042
 1095YOPC   C2B14960   6.671  13.216   6.528 -0.3677  0.0793 -0.0236
 1095YOPC   D3B14961   6.721  12.836   6.686 -0.5791  0.1443 -0.0140
 1095YOPC   C4B14962   6.767  12.612   7.035  0.0808  0.0482  0.0024
 1096YOPC   NC314963  11.066  11.085   5.665 -0.0813  0.0065 -0.1112
 1096YOPC   PO414964  10.701  11.223   5.921 -0.1015 -0.0254  0.3793
 1096YOPC   GL114965  10.988  10.985   6.112  0.1995  0.0157 -0.2673
 1096YOPC   GL214966  11.015  10.699   5.976  0.1874  0.1383 -0.0920
 1096YOPC   C1A14967  11.060  10.865   6.504  0.2011  0.4277 -0.0791
 1096YOPC   D2A14968  11.197  10.727   6.938 -0.4899  0.0987 -0.3661
 1096YOPC   C3A14969  11.424  10.782   7.331 -0.0529 -0.0478  0.1022
 1096YOPC   C4A14970  11.511  11.303   7.419 -0.1896  0.2734 -0.3848
 1096YOPC   C1B14971  11.295  10.480   6.270 -0.0725  0.2430  0.2057
 1096YOPC   C2B14972  11.018  10.190   6.499  0.3794  0.0585 -0.0202
 1096YOPC   D3B14973  11.082  10.197   6.915  0.0160  0.2158  0.1045
 1096YOPC   C4B14974  11.168  10.292   7.333  0.0249 -0.0771 -0.0276
 1097YOPC   NC314975   0.695   8.779   5.690  0.1827 -0.0356 -0.3635
 1097YOPC   PO414976   0.878   9.222   5.732  0.0982 -0.0785  0.0637
 1097YOPC   GL114977   0.779   9.054   6.194 -0.2730  0.0009  0.1259
 1097YOPC   GL214978   0.681   9.276   6.373  0.0563  0.0339 -0.2049
 1097YOPC   C1A14979   0.679   8.950   6.705 -0.2283  0.2011  0.0358
 1097YOPC   D2A14980   0.555   9.013   7.108 -0.1546  0.1858 -0.1206
 1097YOPC   C3A14981   0.670   8.782   7.435 -0.1392 -0.0690  0.0643
 1097YOPC   C4A14982   0.476   8.427   7.540 -0.1662  0.1440  0.0715
 1097YOPC   C1B14983   0.407   9.397   6.613 -0.0283  0.2145 -0.2822
 1097YOPC   C2B14984   0.405   9.498   7.023  0.0864  0.0888 -0.0131
 1097YOPC   D3B14985   0.083   9.468   7.283 -0.0578  0.1876 -0.1007
 1097YOPC   C4B14986  -0.015   9.285   7.719  0.3819  0.0528 -0.1032
 1098YOPC   NC314987  12.287  11.154   5.407  0.0902 -0.2997 -0.0799
 1098YOPC   PO414988  12.393  10.761   5.586  0.1105  0.1617 -0.2352
 1098YOPC   GL114989  12.456  10.671   5.986  0.1547  0.0924 -0.1420
 1098YOPC   GL214990  12.498  10.259   6.005  0.0852  0.2766 -0.0704
 1098YOPC   C1A14991  12.788  10.520   6.261  0.1345  0.0073  0.0356
 1098YOPC   D2A14992  13.183  10.186   6.482  0.3448  0.0476  0.2602
 1098YOPC   C3A14993  13.099   9.757   6.714  0.0978  0.0482 -0.0378
 1098YOPC   C4A14994  12.930   9.694   7.105 -0.2567 -0.2073  0.1566
 1098YOPC   C1B14995  12.297  10.291   6.375  0.1866 -0.0469 -0.0037
 1098YOPC   C2B14996  12.016  10.278   6.719  0.2050  0.1102 -0.1096
 1098YOPC   D3B14997  12.101   9.996   6.931 -0.2895  0.0555  0.2235
 1098YOPC   C4B14998  12.423   9.801   7.027  0.0515 -0.1778 -0.0544
 1099YOPC   NC314999   3.470  14.906   5.048  0.1953  0.3360  0.1303
 1099YOPC   PO415000   3.227  14.750   5.345  0.1501 -0.3640  0.0026
 1099YOPC   GL115001   3.295  14.714   5.723 -0.2128 -0.2935 -0.3984
 1099YOPC   GL215002   3.086  14.853   5.835  0.2115  0.2010 -0.2244
 1099YOPC   C1A15003   3.214  14.393   6.007  0.1517 -0.0522 -0.0788
 1099YOPC   D2A15004   3.054  14.240   6.346 -0.1240 -0.1714 -0.2750
 1099YOPC   C3A15005   3.026  14.320   6.762 -0.0934  0.1642 -0.1206
 1099YOPC   C4A15006   3.136  14.198   7.213  0.0781 -0.1266 -0.0910
 1099YOPC   C1B15007   3.210  14.798   6.257  0.0137  0.0392 -0.0288
 1099YOPC   C2B15008   3.529  14.602   6.594 -0.2414  0.2573  0.3628
 1099YOPC   D3B15009   3.599  14.170   6.795  0.1726  0.0163 -0.0015
 1099YOPC   C4B15010   3.454  13.690   6.518 -0.3023  0.0434 -0.0886
 1100YOPC   NC315011   3.264   4.797   5.375 -0.0898 -0.1973  0.0106
 1100YOPC   PO415012   2.990   4.442   5.507  0.1354 -0.1603  0.2533
 1100YOPC   GL115013   3.183   4.249   5.894 -0.3183 -0.2566 -0.1945
 1100YOPC   GL215014   2.844   4.238   6.070  0.1425 -0.3170 -0.3471
 1100YOPC   C1A15015   3.287   4.449   6.237 -0.0745  0.2581 -0.4169
 1100YOPC   D2A15016   3.339   4.256   6.682 -0.0824  0.0834  0.0854
 1100YOPC   C3A15017   3.211   4.426   7.059 -0.0322 -0.1714 -0.0168
 1100YOPC   C4A15018   3.404   4.610   7.457 -0.0162 -0.2354  0.2594
 1100YOPC   C1B15019   2.942   4.127   6.430  0.0500  0.1088  0.0401
 1100YOPC   C2B15020   3.038   3.927   6.885 -0.2376 -0.1786 -0.0856
 1100YOPC   D3B15021   3.270   3.586   7.166 -0.3578  0.0133  0.4667
 1100YOPC   C4B15022   3.653   3.525   7.343  0.4337 -0.1386 -0.0899
 1101YOPC   NC315023   5.752  15.655   5.503  0.2818 -0.0833 -0.4794
 1101YOPC   PO415024   6.065  15.362   5.674  0.2090 -0.1963  0.0063
 1101YOPC   GL115025   6.062  15.687   5.927  0.1325 -0.1115  0.1916
 1101YOPC   GL215026   5.880  15.554   6.110 -0.0235 -0.2428 -0.1333
 1101YOPC   C1A15027   6.337  15.716   6.337 -0.0154  0.1483  0.2856
 1101YOPC   D2A15028   6.646  15.843   6.689 -0.1579  0.3580 -0.2816
 1101YOPC   C3A15029   6.760  16.221   6.910 -0.3150  0.0468  0.3465
 1101YOPC   C4A15030   6.962  16.430   7.261  0.2020  0.0270  0.0099
 1101YOPC   C1B15031   5.511  15.556   6.165 -0.2838 -0.0951 -0.0472
 1101YOPC   C2B15032   5.392  15.915   6.451  0.2107 -0.2205 -0.0062
 1101YOPC   D3B15033   5.408  15.777   7.006 -0.1390 -0.4163 -0.1930
 1101YOPC   C4B15034   5.625  15.797   7.466 -0.0606  0.1355  0.3221
 1102YOPC   NC315035   8.622  12.233   5.363  0.0122 -0.1309 -0.0083
 1102YOPC   PO415036   8.875  11.779   5.366 -0.0764  0.0124  0.0009
 1102YOPC   GL115037   8.737  11.832   5.835  0.1522  0.3057 -0.1768
 1102YOPC   GL215038   8.582  11.566   5.954 -0.2575 -0.2245  0.2510
 1102YOPC   C1A15039   8.729  11.983   6.282  0.0057 -0.0922  0.3251
 1102YOPC   D2A15040   8.650  11.959   6.724 -0.5920 -0.0935 -0.1187
 1102YOPC   C3A15041   8.311  11.749   6.929 -0.4299 -0.0311  0.2721
 1102YOPC   C4A15042   7.919  11.946   7.266 -0.1187 -0.1464 -0.0118
 1102YOPC   C1B15043   8.724  11.279   6.279  0.0599 -0.3069 -0.0286
 1102YOPC   C2B15044   9.022  11.055   6.456  0.0216  0.0132 -0.0741
 1102YOPC   D3B15045   9.246  10.974   6.850 -0.0189  0.1318 -0.0566
 1102YOPC   C4B15046   9.326  11.109   7.254 -0.3508  0.0357 -0.0791
 1103YOPC   NC315047   7.094   7.952   5.591 -0.0848  0.1869  0.2320
 1103YOPC   PO415048   7.421   7.671   5.402 -0.2296 -0.3491 -0.1624
 1103YOPC   GL115049   7.272   7.515   5.832 -0.0862 -0.1391 -0.1532
 1103YOPC   GL215050   7.024   7.377   5.936  0.0326  0.1600 -0.2160
 1103YOPC   C1A15051   7.012   7.785   6.234  0.2803 -0.5450 -0.2319
 1103YOPC   D2A15052   6.770   7.636   6.595 -0.1244  0.0854 -0.0431
 1103YOPC   C3A15053   6.834   7.796   7.047  0.2235 -0.0549 -0.0383
 1103YOPC   C4A15054   7.106   7.898   7.351  0.2583  0.1279 -0.0699
 1103YOPC   C1B15055   7.018   7.279   6.367 -0.0293  0.2383  0.0278
 1103YOPC   C2B15056   6.920   7.101   6.801  0.0906 -0.1767 -0.0330
 1103YOPC   D3B15057   7.023   7.342   7.204 -0.1193 -0.1238  0.2179
 1103YOPC   C4B15058   7.268   7.456   7.554  0.0125 -0.0203 -0.2778
 1104YOPC   NC315059  17.990   9.527   5.721  0.1152 -0.1130 -0.1064
 1104YOPC   PO415060  18.352   9.167   5.730  0.0874  0.0214 -0.1799
 1104YOPC   GL115061  18.550   9.036   6.147 -0.6275 -0.1992  0.0042
 1104YOPC   GL215062  18.786   9.227   6.135 -0.2912  0.0612 -0.0747
 1104YOPC   C1A15063  18.545   9.033   6.559 -0.1157 -0.2454 -0.0345
 1104YOPC   D2A15064  18.687   8.927   6.980  0.1663  0.0254  0.4207
 1104YOPC   C3A15065  18.585   9.258   7.277  0.2713 -0.1007 -0.0857
 1104YOPC   C4A15066  18.421   9.305   7.678 -0.3576 -0.0593  0.0498
 1104YOPC   C1B15067  19.077   9.074   6.341 -0.1221  0.0573  0.0860
 1104YOPC   C2B15068  19.328   8.717   6.383  0.3396 -0.1112 -0.2135
 1104YOPC   D3B15069  19.199   8.367   6.657 -0.3748  0.2389 -0.1648
 1104YOPC   C4B15070  18.949   8.104   6.463  0.1488  0.3423 -0.0460
 1105YOPC   NC315071   8.307  15.715   5.089 -0.4374  0.2292  0.0877
 1105YOPC   PO415072   8.238  15.326   5.219  0.2123 -0.1971 -0.1361
 1105YOPC   GL115073   8.404  15.309   5.649  0.2040 -0.1427 -0.0507
 1105YOPC   GL215074   8.727  15.350   5.580  0.1496 -0.2294 -0.1610
 1105YOPC   C1A15075   8.297  15.330   6.110 -0.1062 -0.1288 -0.0632
 1105YOPC   D2A15076   8.162  15.281   6.620  0.1424  0.0067 -0.3928
 1105YOPC   C3A15077   8.105  14.866   6.758  0.3026 -0.1459 -0.0136
 1105YOPC   C4A15078   7.830  14.616   6.990 -0.1838 -0.1429 -0.1696
 1105YOPC   C1B15079   8.587  15.708   5.883 -0.0664 -0.3328 -0.1802
 1105YOPC   C2B15080   8.544  16.115   6.068  0.2448 -0.1825 -0.1907
 1105YOPC   D3B15081   8.517  16.066   6.532 -0.1168  0.2526  0.0099
 1105YOPC   C4B15082   8.376  16.155   6.897 -0.0940 -0.1371  0.0452
 1106YOPC   NC315083  11.451  12.186   5.580 -0.1883  0.1345 -0.6921
 1106YOPC   PO415084  11.273  11.843   5.778  0.0981  0.3345  0.0604
 1106YOPC   GL115085  10.886  11.630   6.155  0.1589 -0.0030  0.1285
 1106YOPC   GL215086  10.627  11.735   6.160  0.3431  0.1336 -0.2548
 1106YOPC   C1A15087  10.911  11.721   6.546  0.0420 -0.1318 -0.3251
 1106YOPC   D2A15088  11.042  11.744   6.997  0.0532  0.0164 -0.2882
 1106YOPC   C3A15089  10.739  11.468   7.229 -0.0113 -0.1257 -0.0892
 1106YOPC   C4A15090  10.435  11.479   7.542  0.2457  0.2682  0.4034
 1106YOPC   C1B15091  10.427  11.593   6.466  0.1576  0.1896 -0.2926
 1106YOPC   C2B15092  10.544  11.404   6.754  0.0521 -0.0993 -0.0487
 1106YOPC   D3B15093  10.289  11.336   7.064  0.0616  0.3495 -0.0774
 1106YOPC   C4B15094   9.892  11.485   7.202  0.0115  0.1561 -0.3152
 1107YOPC   NC315095  11.043   3.997   5.963  0.4850  0.2065 -0.0639
 1107YOPC   PO415096  11.008   3.484   5.972  0.1273 -0.0332  0.0979
 1107YOPC   GL115097  11.159   3.213   6.305  0.2713  0.2503 -0.2190
 1107YOPC   GL215098  11.460   3.504   6.276  0.3317 -0.1572 -0.0300
 1107YOPC   C1A15099  11.337   3.136   6.644 -0.0278  0.1144 -0.1931
 1107YOPC   D2A15100  11.228   3.167   7.065  0.1765  0.1322 -0.0611
 1107YOPC   C3A15101  10.854   3.266   7.121 -0.0545  0.2653 -0.1966
 1107YOPC   C4A15102  10.539   3.430   7.541  0.1870  0.2333  0.1684
 1107YOPC   C1B15103  11.648   3.599   6.679 -0.0486 -0.2489  0.2523
 1107YOPC   C2B15104  11.804   3.724   7.030 -0.0155  0.0223 -0.1444
 1107YOPC   D3B15105  11.699   3.830   7.386  0.0063 -0.0697  0.1343
 1107YOPC   C4B15106  11.518   3.934   7.763  0.2741 -0.1542 -0.1567
 1108YOPC   NC315107   8.523   1.668   5.897 -0.2172 -0.0732  0.5359
 1108YOPC   PO415108   8.672   1.205   5.668 -0.3289 -0.0898  0.1545
 1108YOPC   GL115109   8.564   1.190   6.170  0.4981 -0.3165  0.0222
 1108YOPC   GL215110   8.308   1.250   6.201 -0.1174  0.0809  0.0871
 1108YOPC   C1A15111   8.684   0.875   6.480  0.3596  0.1824 -0.0217
 1108YOPC   D2A15112   8.816   0.879   6.846  0.3637  0.0105 -0.0278
 1108YOPC   C3A15113   8.568   0.588   7.081 -0.2454 -0.2242  0.1997
 1108YOPC   C4A15114   8.425   0.484   7.497  0.1188  0.0068 -0.0524
 1108YOPC   C1B15115   7.967   1.191   6.487 -0.2590 -0.2215 -0.3074
 1108YOPC   C2B15116   7.948   1.208   6.926 -0.0816  0.0484  0.0143
 1108YOPC   D3B15117   7.592   1.190   7.077  0.0203 -0.0190  0.2324
 1108YOPC   C4B15118   7.365   0.879   7.157 -0.1577  0.0856 -0.1949
 1109YOPC   NC315119   2.006   6.673   5.652 -0.2866  0.1281 -0.3027
 1109YOPC   PO415120   2.049   6.236   5.762  0.0870 -0.2053 -0.0725
 1109YOPC   GL115121   2.080   6.402   6.142  0.0105 -0.5290 -0.0886
 1109YOPC   GL215122   2.367   6.248   6.192  0.4346  0.3742  0.0787
 1109YOPC   C1A15123   2.205   6.715   6.332 -0.1481  0.0449  0.0543
 1109YOPC   D2A15124   2.116   7.134   6.597  0.0184  0.1524 -0.0737
 1109YOPC   C3A15125   2.102   7.083   7.067 -0.0798  0.2465 -0.1222
 1109YOPC   C4A15126   1.974   6.814   7.375 -0.0206  0.0695 -0.0872
 1109YOPC   C1B15127   2.239   6.208   6.643  0.3559 -0.2206  0.2164
 1109YOPC   C2B15128   2.263   6.113   7.128  0.1658  0.0949  0.1624
 1109YOPC   D3B15129   1.992   6.314   7.414  0.2938  0.1135 -0.0956
 1109YOPC   C4B15130   1.793   6.180   7.757 -0.1058 -0.4629  0.1484
 1110YOPC   NC315131  10.167   8.555   5.685 -0.1540  0.1710 -0.0709
 1110YOPC   PO415132   9.985   8.957   5.557  0.1940 -0.2982 -0.0571
 1110YOPC   GL115133   9.876   9.312   5.937 -0.0169 -0.2396  0.1873
 1110YOPC   GL215134   9.897   9.663   5.916  0.1368 -0.2987  0.2915
 1110YOPC   C1A15135   9.926   9.218   6.386  0.0910 -0.3298  0.0168
 1110YOPC   D2A15136   9.838   8.949   6.769  0.3261  0.1645  0.0026
 1110YOPC   C3A15137   9.752   8.916   7.203  0.2821 -0.1739 -0.3424
 1110YOPC   C4A15138   9.499   9.045   7.616  0.0820  0.2527  0.0961
 1110YOPC   C1B15139  10.004   9.733   6.320  0.0381 -0.4361  0.0506
 1110YOPC   C2B15140  10.156   9.852   6.731  0.1041 -0.0572 -0.2667
 1110YOPC   D3B15141  10.137  10.161   7.011 -0.0841  0.0417 -0.0702
 1110YOPC   C4B15142  10.350  10.321   7.453  0.1057  0.0856 -0.1036
 1111YOPC   NC315143  11.780  17.514   5.599  0.2631 -0.2150  0.4891
 1111YOPC   PO415144  11.371  17.610   5.672  0.0366 -0.3438 -0.0302
 1111YOPC   GL115145  11.165  17.522   5.926 -0.1253 -0.1618  0.0317
 1111YOPC   GL215146  11.044  17.133   6.029 -0.1878  0.2103 -0.2049
 1111YOPC   C1A15147  10.976  17.839   6.244  0.1273  0.1477  0.1966
 1111YOPC   D2A15148  10.919  18.079   6.647 -0.1181  0.2410  0.2756
 1111YOPC   C3A15149  11.003  17.898   7.124  0.4300 -0.1955  0.2597
 1111YOPC   C4A15150  11.049  18.017   7.561  0.1268 -0.0147 -0.2669
 1111YOPC   C1B15151  11.056  16.837   6.372  0.0477  0.1724  0.2555
 1111YOPC   C2B15152  11.416  16.504   6.589  0.0287  0.0428 -0.1825
 1111YOPC   D3B15153  11.290  16.286   6.980 -0.2715  0.3144 -0.1268
 1111YOPC   C4B15154  11.145  16.124   7.451  0.4270 -0.3515  0.0999
 1112YOPC   NC315155  12.368   7.814   5.536  0.0891  0.0240 -0.0101
 1112YOPC   PO415156  12.066   7.499   5.350  0.2874  0.0197  0.2372
 1112YOPC   GL115157  12.112   7.368   5.838 -0.0520 -0.1100  0.2323
 1112YOPC   GL215158  12.070   7.097   6.025  0.2513 -0.1068 -0.3236
 1112YOPC   C1A15159  12.096   7.578   6.244 -0.1834 -0.1232  0.2990
 1112YOPC   D2A15160  11.744   7.622   6.508  0.2581 -0.0859  0.2151
 1112YOPC   C3A15161  11.735   7.554   6.988  0.1543 -0.1137 -0.1781
 1112YOPC   C4A15162  11.617   7.801   7.233  0.2343 -0.3763  0.1057
 1112YOPC   C1B15163  12.009   7.143   6.464 -0.0135 -0.0268 -0.2172
 1112YOPC   C2B15164  11.688   7.103   6.739  0.1668 -0.2984 -0.0816
 1112YOPC   D3B15165  11.527   6.786   6.968  0.0962 -0.2893 -0.1554
 1112YOPC   C4B15166  11.792   6.627   7.341 -0.1456 -0.0606  0.1062
 1113YOPC   NC315167  16.898  14.425   5.376 -0.1726  0.0547  0.2007
 1113YOPC   PO415168  16.765  14.377   5.793  0.0286  0.3018 -0.0973
 1113YOPC   GL115169  16.913  14.340   6.233 -0.0479 -0.2615  0.0134
 1113YOPC   GL215170  16.642  14.259   6.320 -0.1251 -0.1990 -0.0309
 1113YOPC   C1A15171  17.115  14.443   6.593 -0.1528 -0.1596  0.0023
 1113YOPC   D2A15172  17.085  14.333   7.003  0.0937 -0.2451  0.2008
 1113YOPC   C3A15173  17.262  14.076   7.343 -0.2086 -0.2226 -0.2846
 1113YOPC   C4A15174  17.276  14.030   7.787  0.2101 -0.1846 -0.1294
 1113YOPC   C1B15175  16.661  14.231   6.773 -0.1205 -0.0839 -0.0280
 1113YOPC   C2B15176  16.678  14.231   7.222  0.0915  0.1222  0.5160
 1113YOPC   D3B15177  16.845  14.465   7.486  0.1208  0.1789 -0.0587
 1113YOPC   C4B15178  17.238  14.500   7.523 -0.1089 -0.1465  0.0205
 1114YOPC   NC315179  16.692  15.509   5.571  0.1001  0.1498 -0.1591
 1114YOPC   PO415180  16.332  15.799   5.545  0.0405 -0.1498  0.2220
 1114YOPC   GL115181  16.317  15.697   5.961 -0.1415  0.0031 -0.1322
 1114YOPC   GL215182  16.107  15.493   6.101  0.2704 -0.0491 -0.0587
 1114YOPC   C1A15183  16.467  15.830   6.433 -0.0982 -0.0277 -0.0136
 1114YOPC   D2A15184  16.788  15.732   6.822  0.0664  0.4870  0.2448
 1114YOPC   C3A15185  17.108  15.737   6.699  0.0731  0.0649 -0.2544
 1114YOPC   C4A15186  17.279  15.519   6.238  0.2605  0.0398  0.1971
 1114YOPC   C1B15187  16.016  15.658   6.556 -0.0410  0.1274  0.0736
 1114YOPC   C2B15188  16.250  15.798   6.928  0.2183 -0.0973  0.1821
 1114YOPC   D3B15189  16.003  15.999   7.268 -0.0445 -0.0575 -0.2427
 1114YOPC   C4B15190  16.157  16.188   7.700  0.1156 -0.0649  0.1408
 1115YOPC   NC315191  12.909   7.666   5.562  0.0893 -0.0548  0.4074
 1115YOPC   PO415192  12.639   7.348   5.622 -0.1310 -0.0420 -0.1361
 1115YOPC   GL115193  12.551   7.260   6.033  0.0597 -0.0663  0.1914
 1115YOPC   GL215194  12.560   7.001   6.268 -0.5145  0.3147  0.2403
 1115YOPC   C1A15195  12.614   7.421   6.447 -0.1251  0.1713  0.6182
 1115YOPC   D2A15196  12.792   7.491   6.779 -0.1242  0.0671  0.2167
 1115YOPC   C3A15197  12.634   7.309   7.159  0.0406 -0.0993 -0.2195
 1115YOPC   C4A15198  12.660   7.225   7.667  0.0299 -0.0517  0.0170
 1115YOPC   C1B15199  12.193   6.719   6.441 -0.0339 -0.1878  0.0613
 1115YOPC   C2B15200  12.028   6.626   6.792  0.1540 -0.2345 -0.3363
 1115YOPC   D3B15201  12.276   6.408   7.142 -0.1986 -0.2129 -0.2583
 1115YOPC   C4B15202  12.558   6.334   7.421 -0.3041  0.3504 -0.0245
 1116YOPC   NC315203   8.999  13.583   5.169 -0.0584 -0.0991  0.0195
 1116YOPC   PO415204   8.888  13.977   5.427 -0.0155 -0.3107  0.2440
 1116YOPC   GL115205   8.798  13.930   5.873  0.0709 -0.2478 -0.2243
 1116YOPC   GL215206   8.571  13.717   5.906  0.2203 -0.0707 -0.0529
 1116YOPC   C1A15207   8.690  14.071   6.265 -0.1074 -0.0027  0.2148
 1116YOPC   D2A15208   8.596  14.065   6.576 -0.0815 -0.0873  0.3030
 1116YOPC   C3A15209   8.951  14.051   6.879  0.4048 -0.1287  0.1364
 1116YOPC   C4A15210   9.052  13.881   7.220 -0.3019  0.2012 -0.1353
 1116YOPC   C1B15211   8.449  13.649   6.376 -0.1184  0.0346 -0.0299
 1116YOPC   C2B15212   8.482  13.736   6.873  0.0459  0.1946 -0.1782
 1116YOPC   D3B15213   8.300  13.388   7.096  0.0478  0.1727  0.2373
 1116YOPC   C4B15214   8.388  13.221   7.426 -0.0113  0.2032  0.0943
 1117YOPC   NC315215  17.591  13.340   5.885  0.1975 -0.0460 -0.0462
 1117YOPC   PO415216  18.007  13.578   5.812 -0.1168  0.2129  0.0769
 1117YOPC   GL115217  17.660  13.861   6.054  0.0993  0.1958  0.1024
 1117YOPC   GL215218  17.524  13.661   6.314 -0.1178  0.1674 -0.2286
 1117YOPC   C1A15219  17.618  14.127   6.462 -0.3756  0.0189  0.1782
 1117YOPC   D2A15220  17.497  14.085   6.820 -0.0042  0.1978 -0.5451
 1117YOPC   C3A15221  17.769  14.133   7.282 -0.1747  0.3110  0.3521
 1117YOPC   C4A15222  18.175  14.371   7.392  0.0979 -0.0763 -0.1420
 1117YOPC   C1B15223  17.698  13.517   6.792  0.1063  0.1002  0.1537
 1117YOPC   C2B15224  17.545  13.582   7.100  0.0056  0.0889  0.0287
 1117YOPC   D3B15225  17.529  13.667   7.481  0.0501  0.0978 -0.0595
 1117YOPC   C4B15226  17.449  13.569   7.927  0.0460  0.5305  0.3504
 1118YOPC   NC315227  12.158  18.443   5.614  0.4251 -0.0106 -0.3071
 1118YOPC   PO415228  11.951  18.020   5.579  0.1958  0.4084  0.1715
 1118YOPC   GL115229  11.652  18.020   5.908 -0.1421  0.3781  0.1253
 1118YOPC   GL215230  11.373  17.946   6.048 -0.0898 -0.0593  0.1234
 1118YOPC   C1A15231  11.777  17.940   6.330 -0.0876 -0.0499  0.2497
 1118YOPC   D2A15232  11.802  18.037   6.721  0.2453 -0.2261  0.3289
 1118YOPC   C3A15233  11.860  18.191   7.103  0.0237  0.0344  0.1766
 1118YOPC   C4A15234  12.081  18.008   7.413 -0.1535  0.0019 -0.2070
 1118YOPC   C1B15235  11.376  18.269   6.352  0.0226 -0.1406 -0.1745
 1118YOPC   C2B15236  11.364  18.720   6.400  0.0465 -0.2242  0.1005
 1118YOPC   D3B15237  11.401  18.806   6.829 -0.0455 -0.2957 -0.3242
 1118YOPC   C4B15238  11.343  18.996   7.187 -0.3786 -0.2166  0.1750
 1119YOPC   NC315239  12.900  16.725   5.276  0.1243  0.1392  0.2260
 1119YOPC   PO415240  12.905  16.329   5.343 -0.4079 -0.2460 -0.2447
 1119YOPC   GL115241  12.838  16.292   5.738  0.1441 -0.0859 -0.1795
 1119YOPC   GL215242  12.726  16.059   5.904 -0.0334 -0.1414  0.0880
 1119YOPC   C1A15243  12.642  16.315   6.278 -0.0448  0.0597 -0.2066
 1119YOPC   D2A15244  12.390  16.612   6.545  0.1530  0.2447  0.1934
 1119YOPC   C3A15245  12.474  16.878   6.853  0.2775  0.0153  0.2409
 1119YOPC   C4A15246  12.527  16.975   7.221  0.1286  0.3094 -0.3476
 1119YOPC   C1B15247  12.915  15.608   6.094 -0.3554  0.0697  0.1711
 1119YOPC   C2B15248  13.248  15.407   6.319  0.1073 -0.0459 -0.1434
 1119YOPC   D3B15249  13.180  15.507   6.641  0.2612 -0.0869  0.0925
 1119YOPC   C4B15250  12.948  15.721   6.922 -0.1432 -0.0762 -0.0258
 1120YOPC   NC315251   0.215   7.034   5.527  0.1508  0.0480  0.0637
 1120YOPC   PO415252   0.558   7.295   5.742  0.1032  0.2654 -0.0078
 1120YOPC   GL115253   0.822   7.142   6.043  0.3267  0.1254  0.2892
 1120YOPC   GL215254   1.116   6.874   6.012 -0.1500  0.3439  0.2231
 1120YOPC   C1A15255   0.743   6.936   6.354 -0.0241 -0.0012  0.0124
 1120YOPC   D2A15256   0.905   6.679   6.671 -0.1304  0.3147 -0.3962
 1120YOPC   C3A15257   1.100   6.850   7.017  0.0794  0.3860  0.0576
 1120YOPC   C4A15258   1.426   6.959   7.161  0.0365  0.2836 -0.3108
 1120YOPC   C1B15259   1.213   6.550   6.335 -0.1342  0.4102  0.1744
 1120YOPC   C2B15260   1.385   6.616   6.727 -0.0478 -0.1641  0.0195
 1120YOPC   D3B15261   1.829   6.709   6.781  0.1949  0.2931  0.0599
 1120YOPC   C4B15262   2.185   6.623   6.888  0.0542 -0.0095 -0.2418
 1121YOPC   NC315263   4.847   2.482   5.386  0.1614 -0.3492  0.3004
 1121YOPC   PO415264   4.475   2.764   5.322  0.1285  0.1141  0.0113
 1121YOPC   GL115265   4.429   2.642   5.704  0.0496 -0.1966 -0.0445
 1121YOPC   GL215266   4.606   2.352   5.852 -0.0875  0.1654  0.0466
 1121YOPC   C1A15267   4.264   2.764   6.213  0.0162  0.1203  0.1471
 1121YOPC   D2A15268   4.004   2.924   6.565  0.2927 -0.0591 -0.3182
 1121YOPC   C3A15269   3.604   3.019   6.512  0.0785  0.0081  0.0611
 1121YOPC   C4A15270   3.440   3.375   6.206 -0.0105  0.1061  0.0473
 1121YOPC   C1B15271   4.535   2.220   6.185  0.2057  0.1300 -0.0799
 1121YOPC   C2B15272   4.597   2.408   6.474  0.0204  0.0441 -0.1379
 1121YOPC   D3B15273   4.398   2.551   6.831 -0.0576  0.0943  0.3340
 1121YOPC   C4B15274   4.296   2.845   6.984 -0.0799 -0.0782  0.1204
 1122YOPC   NC315275  10.325   6.837   5.018  0.1612 -0.0371  0.1046
 1122YOPC   PO415276  10.372   6.749   5.546  0.0362  0.1864 -0.1138
 1122YOPC   GL115277  10.517   6.728   6.069  0.1614 -0.1289 -0.2203
 1122YOPC   GL215278  10.622   7.016   6.083  0.1687  0.5205  0.3821
 1122YOPC   C1A15279  10.688   6.455   6.339  0.0654  0.1081 -0.0089
 1122YOPC   D2A15280  10.607   6.149   6.737 -0.3986  0.2128  0.0310
 1122YOPC   C3A15281  10.718   6.296   7.171  0.1378  0.2016 -0.2296
 1122YOPC   C4A15282  10.770   6.346   7.662 -0.0580  0.0997 -0.0541
 1122YOPC   C1B15283  10.426   7.098   6.478 -0.2043  0.0882  0.1578
 1122YOPC   C2B15284  10.137   7.090   6.877 -0.2474 -0.1104  0.0099
 1122YOPC   D3B15285  10.217   7.002   7.279 -0.0559  0.1442  0.2160
 1122YOPC   C4B15286  10.287   7.225   7.629  0.1717 -0.1666 -0.3531
 1123YOPC   NC315287   2.663   5.403   5.149  0.1834  0.1684  0.1586
 1123YOPC   PO415288   2.745   5.499   5.540 -0.0052 -0.3825  0.2856
 1123YOPC   GL115289   2.966   5.616   5.986 -0.0860 -0.0066 -0.1753
 1123YOPC   GL215290   2.918   5.945   6.017  0.1958 -0.0326 -0.0766
 1123YOPC   C1A15291   3.403   5.644   6.129  0.1715  0.3655  0.3244
 1123YOPC   D2A15292   3.889   5.574   6.284  0.0952 -0.1086  0.2166
 1123YOPC   C3A15293   4.095   5.455   5.991 -0.0691 -0.1031  0.2292
 1123YOPC   C4A15294   4.491   5.456   5.817  0.1097  0.1228 -0.1323
 1123YOPC   C1B15295   2.817   5.852   6.412  0.3189 -0.0565 -0.3571
 1123YOPC   C2B15296   2.630   5.836   6.858  0.2640  0.1925  0.3357
 1123YOPC   D3B15297   2.469   5.678   7.106 -0.2096 -0.0031 -0.2001
 1123YOPC   C4B15298   2.681   5.693   7.595  0.2707 -0.0901 -0.1117
 1124YOPC   NC315299   5.830   5.713   5.479 -0.3468 -0.2159 -0.0072
 1124YOPC   PO415300   6.095   5.358   5.511  0.2594 -0.0208 -0.1481
 1124YOPC   GL115301   5.981   5.588   5.925 -0.1623 -0.1401 -0.0149
 1124YOPC   GL215302   6.257   5.362   6.029 -0.1492 -0.0663 -0.1257
 1124YOPC   C1A15303   5.873   5.760   6.349 -0.0588  0.1750  0.1504
 1124YOPC   D2A15304   5.726   6.040   6.508 -0.3302  0.3039  0.0924
 1124YOPC   C3A15305   5.994   6.453   6.599  0.4196 -0.1423 -0.0521
 1124YOPC   C4A15306   6.267   6.724   6.946  0.1712 -0.0880  0.0853
 1124YOPC   C1B15307   6.382   5.599   6.391  0.2399  0.0690 -0.0824
 1124YOPC   C2B15308   6.592   5.685   6.782 -0.0932 -0.1022  0.0150
 1124YOPC   D3B15309   6.992   5.561   6.708 -0.1498  0.3428  0.1992
 1124YOPC   C4B15310   7.364   5.519   6.905 -0.1879  0.1127  0.0704
 1125YOPC   NC315311   6.363   8.499   5.033  0.0184 -0.1409 -0.1472
 1125YOPC   PO415312   6.158   8.908   5.137  0.1080  0.2238  0.0542
 1125YOPC   GL115313   5.998   9.040   5.548  0.3467 -0.2017 -0.1883
 1125YOPC   GL215314   5.768   8.787   5.663 -0.0600 -0.2359  0.2620
 1125YOPC   C1A15315   5.994   9.358   5.948  0.1038 -0.1315 -0.1222
 1125YOPC   D2A15316   6.157   9.362   6.383 -0.2331  0.0821 -0.0297
 1125YOPC   C3A15317   5.797   9.256   6.534 -0.1178  0.4342 -0.1434
 1125YOPC   C4A15318   5.394   9.240   6.528 -0.0122 -0.0790  0.1370
 1125YOPC   C1B15319   5.983   8.850   6.128  0.0070 -0.1227 -0.2117
 1125YOPC   C2B15320   6.234   8.855   6.523  0.2101  0.0972 -0.0142
 1125YOPC   D3B15321   6.121   9.062   6.897  0.1383 -0.0236  0.0115
 1125YOPC   C4B15322   5.813   9.285   6.995  0.1807 -0.2874 -0.0216
 1126YOPC   NC315323   7.796   8.016   5.641  0.0772 -0.0351 -0.3914
 1126YOPC   PO415324   7.528   8.276   5.571  0.0456  0.1114  0.2538
 1126YOPC   GL115325   7.402   8.288   6.039 -0.0924  0.0317  0.0096
 1126YOPC   GL215326   7.372   7.978   5.994  0.2063 -0.1004  0.1371
 1126YOPC   C1A15327   7.107   8.290   6.392  0.1255  0.1436  0.0609
 1126YOPC   D2A15328   7.008   8.075   6.705 -0.1548  0.0612  0.0333
 1126YOPC   C3A15329   7.240   7.545   6.717 -0.0539  0.1540 -0.1403
 1126YOPC   C4A15330   7.412   7.070   6.606  0.1176 -0.1524 -0.2930
 1126YOPC   C1B15331   7.497   7.970   6.442 -0.3045 -0.0000  0.1919
 1126YOPC   C2B15332   7.495   8.275   6.713  0.2437 -0.1289 -0.1646
 1126YOPC   D3B15333   7.490   8.091   6.999  0.0287  0.1029 -0.2163
 1126YOPC   C4B15334   7.588   7.918   7.458 -0.1654 -0.1089 -0.1045
 1127YOPC   NC315335  10.760   0.749   5.414 -0.0513  0.2553 -0.1794
 1127YOPC   PO415336  10.501   1.012   5.706  0.2119 -0.1879 -0.0889
 1127YOPC   GL115337  10.620   0.837   6.059  0.3424 -0.1817  0.0468
 1127YOPC   GL215338  10.929   0.798   5.955 -0.1252  0.1791  0.1704
 1127YOPC   C1A15339  10.804   0.787   6.453 -0.1036  0.0183 -0.1441
 1127YOPC   D2A15340  10.859   0.866   6.945 -0.0030 -0.1275 -0.2030
 1127YOPC   C3A15341  10.569   0.742   7.209  0.0958  0.1722 -0.0677
 1127YOPC   C4A15342  10.365   0.293   7.323  0.0203  0.3900 -0.0624
 1127YOPC   C1B15343  11.371   0.807   5.965  0.1797  0.2784 -0.1425
 1127YOPC   C2B15344  11.724   0.675   6.180 -0.1287 -0.0065  0.0591
 1127YOPC   D3B15345  11.726   0.260   6.339 -0.0980 -0.0227 -0.1530
 1127YOPC   C4B15346  11.845   0.112   6.753 -0.2285 -0.1615 -0.0493
 1128YOPC   NC315347   9.402  18.420   4.697 -0.1331  0.2949  0.1886
 1128YOPC   PO415348   9.580  18.347   5.081 -0.1238  0.0657 -0.1590
 1128YOPC   GL115349   9.574  18.546   5.531 -0.0347  0.0862  0.0086
 1128YOPC   GL215350   9.766  18.381   5.692  0.2040  0.2353 -0.1389
 1128YOPC   C1A15351   9.397  18.719   5.887  0.2059 -0.3294  0.0654
 1128YOPC   D2A15352   9.256  18.484   6.295  0.2952  0.2828  0.0964
 1128YOPC   C3A15353   9.254  18.512   6.688 -0.1699 -0.0373 -0.2289
 1128YOPC   C4A15354   9.596  18.477   7.068  0.0385 -0.3158  0.0666
 1128YOPC   C1B15355   9.689  18.192   6.007  0.0180  0.3597 -0.0106
 1128YOPC   C2B15356   9.259  18.001   6.221  0.1379 -0.1162  0.3102
 1128YOPC   D3B15357   9.198  17.532   6.484  0.0054  0.0954  0.0920
 1128YOPC   C4B15358   9.205  17.108   6.778  0.0721 -0.0808  0.0439
 1129YOPC   NC315359  10.873  13.796   5.449  0.3614  0.2413  0.3367
 1129YOPC   PO415360  10.912  13.330   5.615  0.1718  0.0034  0.0199
 1129YOPC   GL115361  10.976  13.107   6.040 -0.5401  0.2927  0.0525
 1129YOPC   GL215362  10.895  12.740   6.039 -0.0645 -0.0854  0.1782
 1129YOPC   C1A15363  11.047  13.117   6.428 -0.1432 -0.1667 -0.1403
 1129YOPC   D2A15364  10.951  12.974   6.819 -0.1941 -0.1539  0.1342
 1129YOPC   C3A15365  10.742  13.309   7.068  0.0749 -0.2548 -0.0306
 1129YOPC   C4A15366  10.317  13.543   6.973  0.2790 -0.0950  0.1254
 1129YOPC   C1B15367  10.667  12.725   6.448 -0.1265  0.0358 -0.1164
 1129YOPC   C2B15368  10.473  13.050   6.713 -0.1932 -0.3074  0.3736
 1129YOPC   D3B15369  10.252  13.020   7.091  0.0593  0.1233 -0.0244
 1129YOPC   C4B15370   9.935  12.963   7.409  0.1089  0.3859  0.0254
 1130YOPC   NC315371   3.173   3.299   5.616  0.2245  0.0078  0.0153
 1130YOPC   PO415372   3.617   3.541   5.564  0.1356 -0.1965  0.3212
 1130YOPC   GL115373   3.815   3.607   5.916 -0.6378 -0.1305 -0.0698
 1130YOPC   GL215374   3.830   3.717   6.199  0.0056 -0.0416  0.0118
 1130YOPC   C1A15375   3.931   3.197   6.187 -0.2336 -0.0212 -0.1573
 1130YOPC   D2A15376   3.771   2.756   6.037 -0.2691  0.2037 -0.0523
 1130YOPC   C3A15377   3.273   2.844   6.089 -0.0133  0.3594 -0.0052
 1130YOPC   C4A15378   3.024   3.088   6.340 -0.1999  0.3845 -0.1283
 1130YOPC   C1B15379   3.895   3.519   6.560  0.0403  0.2013 -0.0543
 1130YOPC   C2B15380   3.969   3.431   6.981 -0.2108 -0.1791 -0.0198
 1130YOPC   D3B15381   4.218   3.608   7.281 -0.0049 -0.1487 -0.2683
 1130YOPC   C4B15382   4.265   3.806   7.669 -0.0163  0.3055 -0.0809
 1131YOPC   NC315383   2.890   6.739   5.383 -0.0993 -0.2273  0.1129
 1131YOPC   PO415384   2.897   7.291   5.313 -0.1446 -0.1491  0.1188
 1131YOPC   GL115385   2.876   7.059   5.797  0.0831  0.0243  0.1781
 1131YOPC   GL215386   2.528   6.902   5.902 -0.0366  0.0713 -0.1364
 1131YOPC   C1A15387   3.070   7.130   6.242 -0.0420 -0.0534 -0.1316
 1131YOPC   D2A15388   3.042   7.000   6.700 -0.1530  0.0306  0.1299
 1131YOPC   C3A15389   3.294   6.656   6.694 -0.0233  0.0122  0.1826
 1131YOPC   C4A15390   3.367   6.499   7.071 -0.1842  0.0896 -0.3414
 1131YOPC   C1B15391   2.583   7.038   6.392 -0.2233 -0.0899  0.1117
 1131YOPC   C2B15392   2.620   7.002   6.922 -0.0282 -0.0389 -0.1138
 1131YOPC   D3B15393   2.956   6.771   7.184 -0.0965 -0.0408 -0.2425
 1131YOPC   C4B15394   3.151   6.516   7.488 -0.0092  0.1675 -0.2995
 1132YOPC   NC315395  18.703  10.086   5.642 -0.1882 -0.0994  0.1311
 1132YOPC   PO415396  18.237  10.049   5.774  0.0384  0.1125  0.4068
 1132YOPC   GL115397  18.124   9.850   6.119 -0.0414  0.0911  0.0476
 1132YOPC   GL215398  17.873  10.142   6.192  0.1167 -0.0954 -0.0130
 1132YOPC   C1A15399  18.084   9.738   6.484  0.2951  0.0884 -0.1651
 1132YOPC   D2A15400  17.945   9.645   6.831 -0.2706 -0.2704  0.0784
 1132YOPC   C3A15401  17.522   9.804   7.002  0.3553 -0.0660 -0.1044
 1132YOPC   C4A15402  17.116   9.899   6.892  0.0198  0.2595 -0.0861
 1132YOPC   C1B15403  17.746  10.487   6.408 -0.1370  0.0911  0.2547
 1132YOPC   C2B15404  17.809  10.710   6.777  0.3659 -0.3086  0.2714
 1132YOPC   D3B15405  18.053  10.563   7.108  0.0961 -0.1875  0.1241
 1132YOPC   C4B15406  18.271  10.795   7.335 -0.0350  0.2232  0.0152
 1133YOPC   NC315407  11.368   4.896   5.568 -0.0298  0.0042  0.0120
 1133YOPC   PO415408  10.948   4.737   5.662  0.0110 -0.2466 -0.0340
 1133YOPC   GL115409  11.096   4.826   6.025 -0.1733 -0.4028  0.0658
 1133YOPC   GL215410  11.202   4.461   6.137 -0.1851  0.2445  0.0290
 1133YOPC   C1A15411  11.442   4.915   6.205 -0.2767  0.0465 -0.1283
 1133YOPC   D2A15412  11.632   4.987   6.675 -0.2824 -0.0275 -0.3491
 1133YOPC   C3A15413  11.596   4.625   6.910  0.0220  0.0854 -0.1442
 1133YOPC   C4A15414  11.464   4.265   6.994 -0.2907 -0.4820  0.0210
 1133YOPC   C1B15415  11.231   4.678   6.571 -0.2619 -0.3390  0.2061
 1133YOPC   C2B15416  10.871   4.899   6.784 -0.1228  0.0134  0.2484
 1133YOPC   D3B15417  10.731   4.969   7.200  0.1250 -0.0244  0.1345
 1133YOPC   C4B15418  10.722   4.799   7.597 -0.0215 -0.0945  0.0055
 1134YOPC   NC315419   6.649  17.977   4.871 -0.4758  0.2959 -0.1768
 1134YOPC   PO415420   7.013  18.007   5.250  0.1623 -0.4364  0.1489
 1134YOPC   GL115421   6.538  17.928   5.373  0.0261 -0.2580 -0.3269
 1134YOPC   GL215422   6.621  17.916   5.651 -0.1393 -0.0533  0.0198
 1134YOPC   C1A15423   6.163  17.787   5.444  0.4107  0.2895  0.4117
 1134YOPC   D2A15424   5.862  17.842   5.857  0.1360  0.0115  0.0655
 1134YOPC   C3A15425   5.819  18.240   6.097 -0.0185 -0.1129 -0.3268
 1134YOPC   C4A15426   5.973  18.433   6.467 -0.0510  0.0216  0.0915
 1134YOPC   C1B15427   6.477  17.958   6.067  0.0195 -0.1303 -0.2450
 1134YOPC   C2B15428   6.203  18.032   6.295 -0.1140 -0.1265  0.0796
 1134YOPC   D3B15429   6.401  18.104   6.673  0.2015  0.0215  0.3109
 1134YOPC   C4B15430   6.227  18.072   7.124 -0.0280  0.2033  0.1527
 1135YOPC   NC315431   8.759  17.750   5.148 -0.3110 -0.1446  0.0286
 1135YOPC   PO415432   8.321  17.562   5.079 -0.1655  0.0217  0.1617
 1135YOPC   GL115433   8.235  17.237   5.483  0.1576 -0.1016 -0.2977
 1135YOPC   GL215434   8.295  17.369   5.656 -0.1681 -0.1977  0.0829
 1135YOPC   C1A15435   8.414  16.927   5.835 -0.2976  0.0409 -0.1574
 1135YOPC   D2A15436   8.951  17.038   5.976  0.1369 -0.6006  0.1573
 1135YOPC   C3A15437   9.156  16.842   6.312 -0.0835  0.3826  0.0075
 1135YOPC   C4A15438   9.308  16.633   6.684  0.3804  0.1726 -0.3977
 1135YOPC   C1B15439   8.485  17.355   6.029  0.0292 -0.1339  0.0668
 1135YOPC   C2B15440   8.702  17.204   6.397 -0.1370  0.1660  0.0160
 1135YOPC   D3B15441   8.777  17.376   6.805  0.0200 -0.0567  0.0251
 1135YOPC   C4B15442   9.116  17.501   7.009 -0.2206  0.3357  0.3517
 1136YOPC   NC315443  14.256  13.600   4.908 -0.2586 -0.2918 -0.0256
 1136YOPC   PO415444  14.219  13.771   5.371 -0.2247 -0.0268  0.1567
 1136YOPC   GL115445  14.317  13.693   5.740  0.0110 -0.3489 -0.0526
 1136YOPC   GL215446  14.474  13.651   5.939 -0.0890 -0.0573 -0.0795
 1136YOPC   C1A15447  14.089  13.584   6.200  0.0883 -0.5272  0.0308
 1136YOPC   D2A15448  14.025  13.591   6.620 -0.1055  0.4114 -0.1670
 1136YOPC   C3A15449  13.654  13.854   6.859  0.0340  0.0304  0.0896
 1136YOPC   C4A15450  13.553  13.885   7.251 -0.0891 -0.2021 -0.0155
 1136YOPC   C1B15451  14.596  13.613   6.268 -0.1406 -0.0563  0.0295
 1136YOPC   C2B15452  14.489  13.387   6.534  0.3404  0.2277  0.1949
 1136YOPC   D3B15453  14.560  13.460   6.943 -0.0716 -0.0651 -0.0560
 1136YOPC   C4B15454  14.317  13.461   7.298  0.2558  0.1519 -0.2586
 1137YOPC   NC315455  18.733  14.634   5.149 -0.1070 -0.1068  0.2521
 1137YOPC   PO415456  19.059  14.718   4.880  0.2420  0.1953  0.0168
 1137YOPC   GL115457  19.227  14.955   5.252 -0.0900 -0.1983 -0.1980
 1137YOPC   GL215458  19.546  14.929   5.309 -0.3319 -0.1900  0.1376
 1137YOPC   C1A15459  18.998  15.073   5.632 -0.0072 -0.2335  0.0162
 1137YOPC   D2A15460  18.944  15.238   6.072 -0.1354  0.2639 -0.0513
 1137YOPC   C3A15461  19.208  15.080   6.501 -0.0258  0.0733  0.1237
 1137YOPC   C4A15462  19.399  14.737   6.748  0.0726 -0.0279  0.0083
 1137YOPC   C1B15463  19.507  14.802   5.711 -0.2664 -0.1017  0.0674
 1137YOPC   C2B15464  19.807  14.875   6.069  0.2619  0.1305  0.1182
 1137YOPC   D3B15465  19.721  14.969   6.493 -0.1800  0.1348  0.1976
 1137YOPC   C4B15466  19.631  15.228   6.838 -0.2327  0.3237 -0.0060
 1138YOPC   NC315467   7.573   6.414   5.370 -0.3620 -0.0155  0.2364
 1138YOPC   PO415468   7.794   5.984   5.383  0.0829  0.2218  0.1314
 1138YOPC   GL115469   7.849   6.058   5.717 -0.0416  0.0187 -0.0994
 1138YOPC   GL215470   7.590   6.219   5.828 -0.1498  0.1548  0.0402
 1138YOPC   C1A15471   8.018   6.157   6.071  0.0495 -0.1208  0.0051
 1138YOPC   D2A15472   8.148   6.017   6.544 -0.1234 -0.2361  0.1052
 1138YOPC   C3A15473   8.236   5.856   6.951 -0.0151 -0.2693 -0.1263
 1138YOPC   C4A15474   8.562   5.612   7.044 -0.1358 -0.2128 -0.0746
 1138YOPC   C1B15475   7.382   6.145   6.179 -0.2824 -0.1350  0.0081
 1138YOPC   C2B15476   7.172   5.890   6.417  0.0601 -0.0700 -0.3874
 1138YOPC   D3B15477   7.355   5.969   6.763  0.0513 -0.0063 -0.0439
 1138YOPC   C4B15478   7.301   6.230   7.014  0.1206  0.2910 -0.3134
 1139YOPC   NC315479   3.550  17.058   5.160 -0.4024  0.1513  0.0803
 1139YOPC   PO415480   3.352  16.781   4.866  0.1752 -0.0061 -0.0085
 1139YOPC   GL115481   3.338  16.574   5.292 -0.1698  0.1948  0.0267
 1139YOPC   GL215482   3.537  16.766   5.580 -0.1942  0.1964  0.2323
 1139YOPC   C1A15483   3.165  16.454   5.656  0.1706  0.0998 -0.0325
 1139YOPC   D2A15484   2.979  16.311   6.011  0.0241  0.0794 -0.2060
 1139YOPC   C3A15485   3.095  16.292   6.482 -0.1144 -0.1577 -0.0534
 1139YOPC   C4A15486   3.013  16.519   6.856  0.0163 -0.1789  0.0134
 1139YOPC   C1B15487   3.404  16.724   6.013  0.2418  0.1519 -0.2564
 1139YOPC   C2B15488   3.239  16.743   6.364  0.1051 -0.1629  0.0637
 1139YOPC   D3B15489   2.728  16.644   6.373 -0.0797 -0.0690  0.1240
 1139YOPC   C4B15490   2.391  16.618   6.565  0.0225  0.3043  0.0444
 1140YOPC   NC315491   1.494  14.797   5.439  0.3479  0.0946  0.3633
 1140YOPC   PO415492   1.143  15.085   5.458 -0.0499 -0.1966 -0.1301
 1140YOPC   GL115493   1.318  15.057   5.852  0.0847  0.0196 -0.2150
 1140YOPC   GL215494   1.420  14.679   5.947 -0.2014 -0.4439 -0.2168
 1140YOPC   C1A15495   1.358  14.958   6.346 -0.0516  0.1286  0.1507
 1140YOPC   D2A15496   1.182  14.825   6.779  0.3205 -0.3679  0.5993
 1140YOPC   C3A15497   0.885  14.724   7.119  0.0037  0.2673 -0.4302
 1140YOPC   C4A15498   0.601  14.435   7.294 -0.0354 -0.3453  0.3665
 1140YOPC   C1B15499   1.309  14.301   5.921 -0.2760  0.1314 -0.5721
 1140YOPC   C2B15500   1.168  14.009   5.798  0.0295 -0.0567  0.2351
 1140YOPC   D3B15501   1.086  13.728   6.129 -0.1302 -0.1873  0.2940
 1140YOPC   C4B15502   0.712  13.928   6.464  0.2952 -0.0566 -0.3862
 1141YOPC   NC315503   0.855  11.202   5.152  0.0085  0.1877 -0.2810
 1141YOPC   PO415504   0.915  10.806   5.434  0.1028  0.1976 -0.0606
 1141YOPC   GL115505   0.908  10.832   5.930  0.0267 -0.1319 -0.0986
 1141YOPC   GL215506   1.104  10.984   5.985  0.2114  0.2350  0.2440
 1141YOPC   C1A15507   0.879  10.821   6.434 -0.0669  0.1032  0.1530
 1141YOPC   D2A15508   0.790  10.726   6.857 -0.0929  0.0344 -0.0184
 1141YOPC   C3A15509   0.960  10.951   7.163 -0.1228  0.0055  0.1162
 1141YOPC   C4A15510   1.047  11.202   7.491  0.0568 -0.1112  0.0449
 1141YOPC   C1B15511   1.272  11.126   6.346  0.2797 -0.0262 -0.0191
 1141YOPC   C2B15512   1.211  11.208   6.776  0.2909  0.3258 -0.0244
 1141YOPC   D3B15513   1.211  11.487   7.057  0.1778 -0.0210 -0.3108
 1141YOPC   C4B15514   1.306  11.761   7.189 -0.1411  0.1210 -0.1544
 1142YOPC   NC315515   3.509   7.315   5.202  0.1719  0.1037 -0.1055
 1142YOPC   PO415516   3.759   7.144   5.379  0.1397  0.1604  0.2849
 1142YOPC   GL115517   3.883   7.378   5.738  0.0158 -0.2227 -0.0033
 1142YOPC   GL215518   4.139   7.582   5.778 -0.3476  0.2513 -0.3272
 1142YOPC   C1A15519   3.644   7.393   6.094 -0.0166  0.6514 -0.0057
 1142YOPC   D2A15520   3.797   7.564   6.483  0.1395  0.1112 -0.0807
 1142YOPC   C3A15521   3.579   7.908   6.626  0.0105 -0.1239  0.1839
 1142YOPC   C4A15522   3.066   7.889   6.836  0.1377  0.1140  0.1012
 1142YOPC   C1B15523   4.183   7.507   6.177  0.0654 -0.2487 -0.2139
 1142YOPC   C2B15524   4.447   7.477   6.581  0.2388  0.0660 -0.1689
 1142YOPC   D3B15525   4.361   7.413   6.944 -0.2080 -0.3477 -0.1776
 1142YOPC   C4B15526   4.316   7.350   7.392 -0.0147 -0.0998 -0.0927
 1143YOPC   NC315527   6.628   0.324   4.994 -0.0148 -0.3660  0.0828
 1143YOPC   PO415528   6.952   0.610   5.198  0.2999 -0.3069  0.0207
 1143YOPC   GL115529   7.164   0.632   5.541 -0.1617  0.0508 -0.0024
 1143YOPC   GL215530   7.372   0.309   5.434  0.0279  0.2373  0.1573
 1143YOPC   C1A15531   7.306   0.410   6.057  0.0842 -0.0405 -0.3202
 1143YOPC   D2A15532   7.318   0.356   6.467  0.1493  0.0991 -0.0453
 1143YOPC   C3A15533   7.134   0.486   6.804  0.3285 -0.1723 -0.1936
 1143YOPC   C4A15534   6.870   0.787   7.149  0.0580  0.0921  0.0753
 1143YOPC   C1B15535   7.116   0.098   5.701 -0.0930 -0.2322  0.0203
 1143YOPC   C2B15536   7.289  -0.095   6.013 -0.0828  0.1122  0.0115
 1143YOPC   D3B15537   7.118  -0.228   6.405 -0.0098  0.0465 -0.0630
 1143YOPC   C4B15538   7.239  -0.002   6.816  0.0326  0.1628 -0.2274
 1144ERGO   ROH15539   3.659   5.119   5.651 -0.2823 -0.0398  0.2364
 1144ERGO    R115540   3.748   4.984   5.883 -0.2148 -0.1405  0.1546
 1144ERGO    R215541   3.736   5.097   6.135  0.0511 -0.1644  0.1870
 1144ERGO    R315542   3.600   4.870   6.196 -0.0795 -0.0710  0.2431
 1144ERGO    R415543   3.791   4.905   6.416  0.1440 -0.2929  0.0806
 1144ERGO    R515544   3.766   4.726   6.293 -0.1122 -0.2354  0.0531
 1144ERGO    C115545   3.696   4.579   6.638  0.0756 -0.2801  0.0714
 1144ERGO    C215546   3.805   4.479   6.994  0.0559  0.2607  0.0442
 1145ERGO   ROH15547   2.279  10.477   9.293  0.0005 -0.0114  0.1139
 1145ERGO    R115548   2.095  10.481   9.078 -0.0637  0.0252  0.1689
 1145ERGO    R215549   2.115  10.661   8.869 -0.0620 -0.0109  0.1386
 1145ERGO    R315550   2.110  10.435   8.717 -0.1900 -0.0299  0.1699
 1145ERGO    R415551   2.012  10.646   8.539  0.1872  0.0584  0.0554
 1145ERGO    R515552   1.913  10.457   8.583 -0.0611  0.1723  0.0058
 1145ERGO    C115553   1.948  10.425   8.205  0.2122  0.0808  0.0363
 1145ERGO    C215554   1.919  10.405   7.844 -0.1679  0.1962  0.2858
 1146ERGO   ROH15555  15.679   6.051   9.660 -0.0329 -0.0355  0.0479
 1146ERGO    R115556  15.710   6.226   9.439  0.1381 -0.0926  0.0281
 1146ERGO    R215557  15.901   6.185   9.243  0.0430 -0.3462  0.0024
 1146ERGO    R315558  15.685   6.200   9.077  0.0328 -0.0869  0.0305
 1146ERGO    R415559  15.915   6.243   8.902  0.0865 -0.2830  0.0130
 1146ERGO    R515560  15.741   6.372   8.921  0.2083 -0.0971  0.0639
 1146ERGO    C115561  15.721   6.291   8.549  0.1021 -0.0027  0.0456
 1146ERGO    C215562  15.657   6.450   8.234  0.1041  0.1126  0.0003
 1147ERGO   ROH15563   9.617  10.132   6.199  0.1102  0.0449 -0.0641
 1147ERGO    R115564   9.536  10.025   6.448  0.0282  0.2015 -0.0220
 1147ERGO    R215565   9.298  10.094   6.569 -0.1509  0.0631 -0.2846
 1147ERGO    R315566   9.258   9.825   6.572  0.1452  0.0155 -0.0545
 1147ERGO    R415567   9.169   9.917   6.837 -0.1606  0.1822 -0.2095
 1147ERGO    R515568   9.315   9.759   6.795  0.0487  0.2971  0.0576
 1147ERGO    C115569   9.057   9.561   6.995  0.1117  0.2068  0.0503
 1147ERGO    C215570   8.904   9.518   7.254  0.0430  0.0693 -0.0368
 1148ERGO   ROH15571  12.686   6.750   9.567  0.0857 -0.1766  0.0395
 1148ERGO    R115572  12.760   6.826   9.305  0.0310 -0.0510  0.0592
 1148ERGO    R215573  12.910   6.664   9.139  0.1259  0.0883  0.0016
 1148ERGO    R315574  12.703   6.703   8.967  0.0937  0.0156  0.0245
 1148ERGO    R415575  12.932   6.642   8.795  0.1210  0.2099 -0.0062
 1148ERGO    R515576  12.801   6.816   8.780  0.0146  0.1338  0.0547
 1148ERGO    C115577  12.751   6.666   8.433  0.0880  0.2124  0.0108
 1148ERGO    C215578  12.681   6.595   8.172 -0.2065  0.1275 -0.0179
 1149ERGO   ROH15579   7.804   2.085   9.587 -0.0615 -0.0160  0.1259
 1149ERGO    R115580   7.970   2.144   9.365 -0.1966  0.1505  0.0668
 1149ERGO    R215581   8.180   1.981   9.289  0.0703  0.4609  0.1186
 1149ERGO    R315582   8.054   1.986   9.048  0.0153  0.1217  0.1359
 1149ERGO    R415583   8.333   1.922   8.985  0.0786  0.3907  0.1360
 1149ERGO    R515584   8.214   2.083   8.900 -0.1249  0.1875  0.0263
 1149ERGO    C115585   8.304   1.892   8.582  0.0317  0.0313  0.1624
 1149ERGO    C215586   8.249   1.865   8.331  0.0673  0.2582 -0.1109
 1150ERGO   ROH15587  13.890   2.051   5.577  0.3504  0.3051  0.0082
 1150ERGO    R115588  14.127   1.975   5.711  0.1611  0.1786  0.2826
 1150ERGO    R215589  14.126   1.846   5.956 -0.2114 -0.3665  0.0171
 1150ERGO    R315590  14.278   1.663   5.824  0.1526  0.0209 -0.1233
 1150ERGO    R415591  14.348   1.630   6.107 -0.2800 -0.4943 -0.0636
 1150ERGO    R515592  14.486   1.664   5.942 -0.0338 -0.0406  0.2190
 1150ERGO    C115593  14.621   1.332   6.071  0.0217 -0.2050 -0.2423
 1150ERGO    C215594  14.578   1.120   6.363 -0.0320  0.3082  0.4589
 1151ERGO   ROH15595  18.373   7.847   9.530  0.3775 -0.0307 -0.2110
 1151ERGO    R115596  18.293   7.722   9.289  0.2720 -0.0760 -0.1540
 1151ERGO    R215597  18.256   7.863   9.053  0.0145 -0.0944 -0.1298
 1151ERGO    R315598  18.432   7.680   8.955  0.0521  0.0098 -0.2574
 1151ERGO    R415599  18.308   7.799   8.718 -0.1689 -0.0442 -0.1683
 1151ERGO    R515600  18.321   7.587   8.764 -0.0200 -0.0392 -0.1901
 1151ERGO    C115601  18.503   7.591   8.430 -0.2402  0.0829 -0.3105
 1151ERGO    C215602  18.499   7.568   8.246  0.4337  0.0872 -0.0455
 1152ERGO   ROH15603   1.081   2.827   6.235  0.0471  0.0284 -0.0528
 1152ERGO    R115604   1.160   2.612   6.401 -0.1116  0.0753  0.0871
 1152ERGO    R215605   1.426   2.554   6.453 -0.1387 -0.2484 -0.0958
 1152ERGO    R315606   1.345   2.573   6.712  0.1101  0.1259 -0.0368
 1152ERGO    R415607   1.558   2.372   6.715 -0.1926 -0.1991 -0.0337
 1152ERGO    R515608   1.357   2.348   6.794 -0.1647  0.1833  0.1686
 1152ERGO    C115609   1.560   2.283   7.111  0.0096  0.1810  0.0577
 1152ERGO    C215610   1.769   2.050   7.219 -0.0035  0.2603  0.1735
 1153ERGO   ROH15611  10.719  15.808   9.451  0.1518  0.1309 -0.0272
 1153ERGO    R115612  10.567  15.788   9.213  0.0268 -0.0304  0.0625
 1153ERGO    R215613  10.534  16.000   9.039 -0.1897 -0.0988  0.0049
 1153ERGO    R315614  10.629  15.823   8.856 -0.1890 -0.1095  0.0179
 1153ERGO    R415615  10.457  16.003   8.702 -0.1811 -0.1328  0.0040
 1153ERGO    R515616  10.445  15.786   8.708 -0.1791 -0.1247  0.0186
 1153ERGO    C115617  10.501  15.838   8.335 -0.1756 -0.1622  0.0156
 1153ERGO    C215618  10.432  15.839   8.070  0.2716  0.2844  0.1378
 1154ERGO   ROH15619  14.869   5.175   9.594  0.0971 -0.1493  0.0246
 1154ERGO    R115620  14.894   5.260   9.325 -0.0095 -0.1839  0.0033
 1154ERGO    R215621  15.118   5.391   9.231 -0.1256 -0.0287 -0.0574
 1154ERGO    R315622  15.118   5.191   9.046  0.0018 -0.0664 -0.0174
 1154ERGO    R415623  15.131   5.438   8.889  0.0390 -0.0932 -0.0607
 1154ERGO    R515624  14.987   5.277   8.866  0.0770 -0.1237 -0.1016
 1154ERGO    C115625  15.140   5.278   8.516  0.2544 -0.1661 -0.0251
 1154ERGO    C215626  15.209   5.453   8.176  0.1917  0.3494  0.0901
 1155ERGO   ROH15627  17.475   3.357   9.511  0.2505  0.0736  0.1350
 1155ERGO    R115628  17.542   3.197   9.286  0.1451  0.0587  0.1125
 1155ERGO    R215629  17.409   3.217   9.045  0.1340  0.1557  0.1207
 1155ERGO    R315630  17.660   3.255   8.947  0.1480  0.0315  0.1106
 1155ERGO    R415631  17.497   3.197   8.711  0.1290  0.0685  0.1252
 1155ERGO    R515632  17.680   3.095   8.770  0.0812  0.0006  0.1362
 1155ERGO    C115633  17.785   3.220   8.426  0.1395 -0.0989  0.1185
 1155ERGO    C215634  17.606   3.301   8.106  0.0675  0.1450  0.2044
 1156ERGO   ROH15635   1.416   4.976   6.314 -0.0571 -0.0296  0.1008
 1156ERGO    R115636   1.180   4.956   6.470  0.0065 -0.0871  0.1936
 1156ERGO    R215637   0.963   4.803   6.392 -0.1100  0.0960  0.1248
 1156ERGO    R315638   0.996   4.691   6.638 -0.0333 -0.1894 -0.0125
 1156ERGO    R415639   0.711   4.661   6.582 -0.0933  0.1233  0.1656
 1156ERGO    R515640   0.799   4.752   6.758  0.1125 -0.1410  0.1951
 1156ERGO    C115641   0.595   4.474   6.922 -0.0114 -0.1287  0.0605
 1156ERGO    C215642   0.449   4.158   6.913  0.0266 -0.0419 -0.1803
 1157ERGO   ROH15643   1.373   2.066   9.385  0.0629  0.1797 -0.0198
 1157ERGO    R115644   1.399   1.935   9.136  0.0483  0.0642  0.0379
 1157ERGO    R215645   1.181   1.851   8.989  0.0380 -0.0108  0.0904
 1157ERGO    R315646   1.297   1.998   8.792  0.0209 -0.0962  0.0164
 1157ERGO    R415647   1.142   1.793   8.650  0.0639 -0.1945  0.1182
 1157ERGO    R515648   1.354   1.838   8.624  0.0550 -0.1734  0.1035
 1157ERGO    C115649   1.229   1.898   8.268  0.0630 -0.3815  0.0650
 1157ERGO    C215650   1.067   1.779   7.986  0.4149 -0.0441 -0.0686
 1158ERGO   ROH15651   2.664   1.742   9.226  0.2555 -0.1231  0.0928
 1158ERGO    R115652   2.644   1.803   8.951  0.2898 -0.0517  0.1073
 1158ERGO    R215653   2.851   1.761   8.773  0.2375 -0.1985  0.0897
 1158ERGO    R315654   2.662   1.620   8.637  0.1057 -0.0063  0.0666
 1158ERGO    R415655   2.823   1.750   8.429  0.3120 -0.2061  0.0828
 1158ERGO    R515656   2.607   1.761   8.451  0.3089  0.0424  0.0336
 1158ERGO    C115657   2.630   1.612   8.100  0.2316 -0.0300  0.0571
 1158ERGO    C215658   2.500   1.696   7.837 -0.1430  0.0990  0.1078
 1159ERGO   ROH15659   4.169  17.856   9.172 -0.1081 -0.0845 -0.0617
 1159ERGO    R115660   4.152  17.950   8.906  0.0263 -0.2025 -0.1128
 1159ERGO    R215661   4.175  17.784   8.687 -0.3017 -0.3732 -0.0178
 1159ERGO    R315662   3.936  17.893   8.619 -0.1210  0.0212 -0.0516
 1159ERGO    R415663   4.081  17.868   8.365 -0.1833 -0.4136 -0.0644
 1159ERGO    R515664   3.989  18.049   8.445  0.1500 -0.1817 -0.1648
 1159ERGO    C115665   3.801  18.020   8.114  0.0553 -0.0668 -0.1231
 1159ERGO    C215666   3.888  18.009   7.792 -0.0704 -0.1872  0.0165
 1160ERGO   ROH15667   2.635  15.466   5.741  0.0108  0.0663  0.0370
 1160ERGO    R115668   2.677  15.635   5.963  0.0253  0.0702  0.0319
 1160ERGO    R215669   2.505  15.641   6.181 -0.0205  0.1516 -0.0030
 1160ERGO    R315670   2.733  15.593   6.320 -0.0670  0.0779  0.0470
 1160ERGO    R415671   2.550  15.712   6.516 -0.0530  0.1760 -0.0041
 1160ERGO    R515672   2.752  15.779   6.470 -0.0187  0.0876  0.0261
 1160ERGO    C115673   2.790  15.707   6.842 -0.1154  0.1210  0.0421
 1160ERGO    C215674   2.793  15.753   7.140 -0.0404 -0.1496  0.1241
 1161ERGO   ROH15675  18.038   8.832   9.624  0.0142 -0.2663 -0.0700
 1161ERGO    R115676  18.071   8.722   9.365 -0.1373  0.0044 -0.2081
 1161ERGO    R215677  17.941   8.823   9.143 -0.0185  0.4446 -0.0856
 1161ERGO    R315678  18.193   8.837   9.042 -0.0009  0.2442 -0.0741
 1161ERGO    R415679  18.017   8.853   8.808  0.0242  0.3056 -0.0894
 1161ERGO    R515680  18.182   8.713   8.837 -0.0738  0.1984 -0.0431
 1161ERGO    C115681  18.299   8.884   8.517  0.0655  0.0365 -0.0807
 1161ERGO    C215682  18.236   9.087   8.180 -0.2378  0.0468  0.2252
 1162ERGO   ROH15683  16.858  10.499   9.224 -0.2311 -0.0710  0.0879
 1162ERGO    R115684  16.653  10.565   9.039 -0.2012 -0.1012  0.0436
 1162ERGO    R215685  16.676  10.774   8.861 -0.2414 -0.0232  0.1291
 1162ERGO    R315686  16.619  10.582   8.677 -0.0872  0.0169  0.0373
 1162ERGO    R415687  16.555  10.835   8.543 -0.4560  0.0292  0.2189
 1162ERGO    R515688  16.423  10.663   8.566 -0.2384 -0.1500  0.1745
 1162ERGO    C115689  16.431  10.689   8.185 -0.4358  0.0973  0.1850
 1162ERGO    C215690  16.466  10.504   7.843  0.1662  0.1430  0.1150
 1163ERGO   ROH15691  18.306   1.948   9.481  0.0274 -0.2678  0.0418
 1163ERGO    R115692  18.160   1.944   9.238 -0.0097 -0.1452  0.0613
 1163ERGO    R215693  18.206   2.124   9.033  0.0643 -0.1368  0.0848
 1163ERGO    R315694  18.235   1.898   8.885 -0.0846 -0.1306  0.0433
 1163ERGO    R415695  18.146   2.102   8.694  0.1463 -0.0106  0.0612
 1163ERGO    R515696  18.055   1.906   8.727 -0.0317  0.0583 -0.0094
 1163ERGO    C115697  18.140   1.877   8.356  0.0547  0.0687  0.0085
 1163ERGO    C215698  18.130   1.759   8.009 -0.2393 -0.3658 -0.0131
 1164ERGO   ROH15699  16.976   5.589   6.381 -0.0245 -0.1325 -0.1579
 1164ERGO    R115700  16.988   5.733   6.624  0.0986 -0.1616 -0.1457
 1164ERGO    R215701  16.828   5.674   6.841  0.0179 -0.0173 -0.1639
 1164ERGO    R315702  17.065   5.659   6.973 -0.0061 -0.2658 -0.1440
 1164ERGO    R415703  16.867   5.714   7.182  0.0669  0.2989 -0.2044
 1164ERGO    R515704  17.049   5.828   7.142  0.2628 -0.0428 -0.3297
 1164ERGO    C115705  17.113   5.724   7.504  0.0730  0.2497 -0.2094
 1164ERGO    C215706  17.042   5.621   7.840  0.1444  0.3566  0.0204
 1165ERGO   ROH15707   5.169  12.865   9.403  0.2823  0.0343  0.2490
 1165ERGO    R115708   5.239  12.978   9.153  0.1123  0.0511  0.2073
 1165ERGO    R215709   5.502  13.021   9.079  0.0617  0.0644  0.0351
 1165ERGO    R315710   5.431  12.874   8.861 -0.0771  0.0748  0.0725
 1165ERGO    R415711   5.543  13.121   8.750  0.0420 -0.0040  0.0116
 1165ERGO    R515712   5.347  13.035   8.705 -0.0208  0.1033  0.0705
 1165ERGO    C115713   5.499  13.041   8.355 -0.0998 -0.0339  0.0330
 1165ERGO    C215714   5.488  13.105   8.028  0.0748 -0.1083 -0.1064
 1166ERGO   ROH15715  12.460  14.421   9.576 -0.1950 -0.2368  0.0003
 1166ERGO    R115716  12.573  14.403   9.317 -0.1282 -0.1938  0.0265
 1166ERGO    R215717  12.512  14.199   9.141 -0.1470 -0.1183 -0.0540
 1166ERGO    R315718  12.451  14.405   8.974 -0.0312 -0.0464 -0.0090
 1166ERGO    R415719  12.496  14.176   8.797 -0.0204 -0.0031 -0.0687
 1166ERGO    R515720  12.592  14.371   8.784  0.0351 -0.0206  0.0334
 1166ERGO    C115721  12.429  14.355   8.440  0.1621  0.1315 -0.0349
 1166ERGO    C215722  12.368  14.457   8.142 -0.0395  0.0658  0.3378
 1167ERGO   ROH15723   2.135   9.357   6.065 -0.0336  0.0194 -0.0633
 1167ERGO    R115724   2.211   9.369   6.338 -0.0193  0.1630 -0.0729
 1167ERGO    R215725   2.157   9.588   6.498 -0.1070  0.2033 -0.1569
 1167ERGO    R315726   2.041   9.401   6.658 -0.0112  0.2143 -0.0738
 1167ERGO    R415727   2.166   9.591   6.843  0.0873  0.2350 -0.1614
 1167ERGO    R515728   2.195   9.375   6.839  0.0921  0.2358 -0.1575
 1167ERGO    C115729   2.063   9.418   7.195  0.2904  0.2638 -0.0859
 1167ERGO    C215730   2.073   9.526   7.429 -0.1749  0.0539 -0.0989
 1168ERGO   ROH15731   7.451  15.089   9.135  0.2466 -0.1194 -0.0219
 1168ERGO    R115732   7.480  14.962   8.884  0.2082 -0.0467 -0.0622
 1168ERGO    R215733   7.310  15.010   8.672  0.0945 -0.0896  0.0246
 1168ERGO    R315734   7.541  15.066   8.540  0.0085  0.0609 -0.0672
 1168ERGO    R415735   7.361  14.961   8.333  0.0004 -0.0970  0.0102
 1168ERGO    R515736   7.562  14.890   8.379  0.0734  0.0512 -0.0529
 1168ERGO    C115737   7.608  14.986   8.013 -0.1351  0.0402 -0.0846
 1168ERGO    C215738   7.635  15.237   7.808  0.0760  0.5320 -0.0532
 1169ERGO   ROH15739   3.526  17.298   6.035  0.3857  0.0116 -0.0119
 1169ERGO    R115740   3.530  17.318   6.317  0.2238 -0.0956 -0.0014
 1169ERGO    R215741   3.302  17.365   6.467  0.1797  0.1215 -0.1382
 1169ERGO    R315742   3.381  17.139   6.597 -0.1742 -0.0208 -0.1589
 1169ERGO    R415743   3.262  17.307   6.805  0.1125  0.1668 -0.1374
 1169ERGO    R515744   3.460  17.217   6.809 -0.0271 -0.1589 -0.1598
 1169ERGO    C115745   3.312  17.061   7.124 -0.2589  0.0598 -0.1564
 1169ERGO    C215746   3.142  16.814   7.242 -0.0356 -0.0448  0.0578
 1170ERGO   ROH15747  17.471  12.766   9.484  0.0811 -0.1367  0.0799
 1170ERGO    R115748  17.579  12.791   9.224 -0.0732 -0.0366  0.0237
 1170ERGO    R215749  17.740  12.597   9.110 -0.0035  0.0827 -0.0821
 1170ERGO    R315750  17.557  12.608   8.910 -0.1178 -0.0185  0.0156
 1170ERGO    R415751  17.808  12.537   8.777 -0.1352  0.1433 -0.1199
 1170ERGO    R515752  17.676  12.703   8.725 -0.2681  0.0679 -0.0420
 1170ERGO    C115753  17.675  12.513   8.394 -0.3193  0.0836 -0.0502
 1170ERGO    C215754  17.899  12.460   8.088 -0.0610 -0.1796 -0.1479
 1171ERGO   ROH15755  10.264  15.704   6.009  0.0155 -0.0426  0.0237
 1171ERGO    R115756  10.124  15.852   6.205 -0.0407  0.0422 -0.0793
 1171ERGO    R215757   9.883  15.978   6.153 -0.1215 -0.1394 -0.1506
 1171ERGO    R315758   9.799  15.834   6.368 -0.0066 -0.0093 -0.0165
 1171ERGO    R415759   9.585  16.029   6.321 -0.1268 -0.1696 -0.1508
 1171ERGO    R515760   9.691  15.995   6.509 -0.0783  0.0483 -0.1355
 1171ERGO    C115761   9.333  15.924   6.621 -0.0222 -0.0649 -0.0251
 1171ERGO    C215762   8.937  15.834   6.710  0.0372  0.0351  0.1711
 1172ERGO   ROH15763  18.543  17.275   6.446 -0.2170  0.0517 -0.0863
 1172ERGO    R115764  18.485  17.183   6.707 -0.0573  0.1150 -0.0295
 1172ERGO    R215765  18.454  17.353   6.922 -0.0840  0.1739 -0.0914
 1172ERGO    R315766  18.217  17.224   6.950  0.0075  0.0299  0.0618
 1172ERGO    R415767  18.265  17.348   7.211 -0.1361  0.5103 -0.1142
 1172ERGO    R515768  18.222  17.138   7.173  0.0349  0.3988  0.2177
 1172ERGO    C115769  17.931  17.224   7.405 -0.0804  0.5710  0.0165
 1172ERGO    C215770  17.731  17.213   7.628 -0.0797 -0.1026  0.0367
 1173ERGO   ROH15771  13.308  10.585   9.352 -0.1581  0.0599  0.0685
 1173ERGO    R115772  13.449  10.629   9.110 -0.1300  0.1451  0.1006
 1173ERGO    R215773  13.458  10.442   8.906  0.0489  0.1424  0.1135
 1173ERGO    R315774  13.366  10.649   8.756 -0.0564  0.0706  0.0779
 1173ERGO    R415775  13.476  10.459   8.562  0.2802  0.1980  0.1262
 1173ERGO    R515776  13.526  10.670   8.580  0.0545  0.2534  0.1931
 1173ERGO    C115777  13.400  10.663   8.220  0.3160  0.1630  0.1002
 1173ERGO    C215778  13.408  10.592   7.951 -0.1391  0.0964  0.0518
 1174ERGO   ROH15779   4.652   1.037   6.105  0.1260 -0.0739  0.1230
 1174ERGO    R115780   4.565   1.107   6.365  0.2063 -0.0793  0.1501
 1174ERGO    R215781   4.327   1.016   6.472  0.1345  0.1012  0.1335
 1174ERGO    R315782   4.487   0.930   6.674  0.0683 -0.1076  0.1013
 1174ERGO    R415783   4.223   0.966   6.797  0.0585 -0.0735  0.0843
 1174ERGO    R515784   4.411   1.053   6.865  0.0908 -0.2001  0.1738
 1174ERGO    C115785   4.313   0.855   7.177 -0.0479 -0.3714  0.0255
 1174ERGO    C215786   4.370   0.677   7.416 -0.0791 -0.2179 -0.2557
 1175ERGO   ROH15787   6.734   8.428   9.173  0.1950  0.1286  0.0824
 1175ERGO    R115788   6.588   8.448   8.932  0.1462  0.1851  0.1157
 1175ERGO    R215789   6.705   8.523   8.693  0.1582 -0.0275  0.0494
 1175ERGO    R315790   6.595   8.290   8.604 -0.1067  0.0464  0.1756
 1175ERGO    R415791   6.714   8.412   8.366  0.1760 -0.2988  0.1401
 1175ERGO    R515792   6.508   8.344   8.388  0.0744 -0.0072  0.0908
 1175ERGO    C115793   6.616   8.129   8.092 -0.0624 -0.3873  0.3114
 1175ERGO    C215794   6.691   7.826   7.880  0.1119 -0.3453 -0.0066
 1176ERGO   ROH15795   0.064  18.398   9.454 -0.1596  0.1654 -0.1053
 1176ERGO    R115796   0.013  18.413   9.176 -0.1165  0.1817 -0.1112
 1176ERGO    R215797  -0.015  18.654   9.043  0.2260  0.1921 -0.1569
 1176ERGO    R315798   0.180  18.552   8.884  0.0977 -0.1049 -0.1321
 1176ERGO    R415799   0.006  18.700   8.701  0.1913 -0.0350 -0.1921
 1176ERGO    R515800   0.067  18.492   8.681 -0.0155 -0.1210 -0.0741
 1176ERGO    C115801   0.201  18.631   8.352  0.0506 -0.4463 -0.1894
 1176ERGO    C215802   0.307  18.648   7.909 -0.0474  0.0683 -0.0121
 1177ERGO   ROH15803   8.618  18.825   9.161 -0.3945 -0.0304 -0.2094
 1177ERGO    R115804   8.542  18.724   8.908 -0.1740 -0.1160 -0.2436
 1177ERGO    R215805   8.511  18.886   8.686 -0.2452 -0.1499 -0.2599
 1177ERGO    R315806   8.687  18.711   8.574 -0.0072  0.0315 -0.1782
 1177ERGO    R415807   8.548  18.833   8.347 -0.2241 -0.3088 -0.2340
 1177ERGO    R515808   8.568  18.620   8.387  0.0925 -0.2584 -0.1048
 1177ERGO    C115809   8.733  18.639   8.044  0.0118 -0.2309 -0.1421
 1177ERGO    C215810   8.873  18.605   7.674 -0.1261  0.1527  0.0569
 1178ERGO   ROH15811   5.857   5.004   5.883 -0.1841 -0.2240 -0.0585
 1178ERGO    R115812   5.857   5.024   6.165 -0.0251 -0.1935 -0.0587
 1178ERGO    R215813   5.846   5.267   6.297  0.1553 -0.1700 -0.0746
 1178ERGO    R315814   5.632   5.155   6.421  0.1675 -0.0625  0.0439
 1178ERGO    R415815   5.731   5.354   6.611  0.2921 -0.0346 -0.0615
 1178ERGO    R515816   5.696   5.143   6.651  0.2431 -0.0053  0.0221
 1178ERGO    C115817   5.464   5.298   6.910  0.3831  0.1451  0.0573
 1178ERGO    C215818   5.266   5.232   7.211 -0.2032  0.3066 -0.0879
 1179ERGO   ROH15819   1.781  12.440   8.984 -0.2284 -0.0305  0.2031
 1179ERGO    R115820   1.672  12.492   8.728 -0.1513  0.0138  0.1800
 1179ERGO    R215821   1.490  12.695   8.683 -0.0972  0.0500  0.1518
 1179ERGO    R315822   1.670  12.770   8.494 -0.0378  0.0346  0.2007
 1179ERGO    R415823   1.408  12.832   8.376 -0.0247 -0.1957  0.0190
 1179ERGO    R515824   1.566  12.711   8.286  0.1017 -0.1654  0.1796
 1179ERGO    C115825   1.530  12.983   8.020  0.0733 -0.3532 -0.0122
 1179ERGO    C215826   1.596  13.062   7.733  0.0189 -0.2290 -0.0619
 1180ERGO   ROH15827  17.162  13.967   6.366 -0.0614 -0.0812 -0.0299
 1180ERGO    R115828  17.019  13.913   6.604 -0.0611 -0.0268 -0.0180
 1180ERGO    R215829  17.039  13.673   6.739 -0.1803 -0.0524 -0.0501
 1180ERGO    R315830  17.101  13.833   6.950 -0.0627 -0.1126 -0.0367
 1180ERGO    R415831  16.997  13.585   7.070 -0.3057 -0.0272 -0.0581
 1180ERGO    R515832  16.927  13.788   7.110 -0.1278  0.0386 -0.0616
 1180ERGO    C115833  17.030  13.684   7.462 -0.2685 -0.0693 -0.0502
 1180ERGO    C215834  17.020  13.419   7.649 -0.2238  0.1812 -0.0002
 1181ERGO   ROH15835  10.170  12.584   6.186 -0.1610 -0.2184  0.0634
 1181ERGO    R115836  10.092  12.503   6.446  0.0062 -0.2939  0.0911
 1181ERGO    R215837  10.268  12.388   6.625  0.2342  0.0683  0.1069
 1181ERGO    R315838  10.182  12.588   6.788 -0.1155 -0.0384  0.0619
 1181ERGO    R415839  10.235  12.363   6.968  0.4835  0.1448  0.1391
 1181ERGO    R515840  10.050  12.477   6.954  0.2153 -0.2623  0.1873
 1181ERGO    C115841  10.135  12.536   7.321  0.3002  0.0892  0.1155
 1181ERGO    C215842  10.009  12.387   7.571 -0.1035 -0.0241 -0.1218
 1182ERGO   ROH15843   8.719   2.748   9.830  0.2992  0.0071  0.0167
 1182ERGO    R115844   8.690   2.512   9.677  0.0390  0.0274  0.0288
 1182ERGO    R215845   8.489   2.480   9.490  0.0937  0.3016 -0.0880
 1182ERGO    R315846   8.697   2.423   9.324  0.1148 -0.0214  0.0439
 1182ERGO    R415847   8.458   2.390   9.158  0.1732  0.4191 -0.1271
 1182ERGO    R515848   8.617   2.243   9.187 -0.0959  0.1413 -0.0450
 1182ERGO    C115849   8.635   2.285   8.809  0.2392  0.1841 -0.0260
 1182ERGO    C215850   8.580   2.277   8.477  0.0185 -0.0410 -0.0080
 1183ERGO   ROH15851  11.268   7.230   7.443  0.1398 -0.1310 -0.2245
 1183ERGO    R115852  11.502   7.264   7.287  0.2303 -0.0213 -0.0687
 1183ERGO    R215853  11.749   7.316   7.399  0.1814 -0.1620  0.1148
 1183ERGO    R315854  11.825   7.098   7.254  0.2212 -0.0418 -0.0472
 1183ERGO    R415855  12.061   7.167   7.415  0.1239 -0.2737  0.1954
 1183ERGO    R515856  12.054   7.141   7.199  0.2755 -0.0557  0.1637
 1183ERGO    C115857  12.313   6.875   7.289  0.1279 -0.2260  0.0903
 1183ERGO    C215858  12.648   6.770   7.156 -0.2666 -0.2852 -0.1485
 1184ERGO   ROH15859   0.972   8.634   6.416 -0.1486 -0.1000 -0.1313
 1184ERGO    R115860   0.913   8.457   6.628 -0.1824 -0.1441 -0.1770
 1184ERGO    R215861   0.927   8.183   6.602  0.3303 -0.1363 -0.0900
 1184ERGO    R315862   1.091   8.202   6.818 -0.0333  0.2065  0.1696
 1184ERGO    R415863   0.908   7.982   6.883  0.4727 -0.3723 -0.2458
 1184ERGO    R515864   0.948   8.158   7.005 -0.2062 -0.3149 -0.0655
 1184ERGO    C115865   1.051   7.884   7.249  0.2142 -0.1878 -0.0928
 1184ERGO    C215866   1.066   7.673   7.561  0.1498  0.0049 -0.2161
 1185ERGO   ROH15867  13.414   9.499   6.265  0.1283 -0.0527 -0.1279
 1185ERGO    R115868  13.536   9.694   6.430 -0.0360  0.0110 -0.0792
 1185ERGO    R215869  13.565   9.661   6.702 -0.1018  0.0145 -0.0696
 1185ERGO    R315870  13.827   9.712   6.648 -0.1138  0.1679  0.0123
 1185ERGO    R415871  13.816   9.676   6.939 -0.1424 -0.0783 -0.0206
 1185ERGO    R515872  13.900   9.847   6.832 -0.1961  0.0452  0.1347
 1185ERGO    C115873  14.208   9.732   7.026 -0.1773  0.0117  0.0847
 1185ERGO    C215874  14.344   9.608   7.282  0.2199  0.1060  0.0302
 1186ERGO   ROH15875  13.418   4.753   9.389  0.0618  0.2011 -0.0097
 1186ERGO    R115876  13.538   4.696   9.139  0.2679  0.3003  0.0654
 1186ERGO    R215877  13.397   4.701   8.901  0.3158 -0.1924  0.0196
 1186ERGO    R315878  13.594   4.873   8.826 -0.0517  0.2165 -0.0432
 1186ERGO    R415879  13.516   4.735   8.579  0.3881 -0.2216  0.0426
 1186ERGO    R515880  13.718   4.752   8.660  0.3226  0.3422  0.1315
 1186ERGO    C115881  13.769   4.916   8.319  0.0850  0.1454 -0.0029
 1186ERGO    C215882  13.764   4.787   7.983  0.3131 -0.0400  0.2312
 1187ERGO   ROH15883  14.670   3.999   5.904 -0.1629  0.2116  0.1254
 1187ERGO    R115884  14.752   3.905   6.158 -0.2346 -0.1301  0.0264
 1187ERGO    R215885  14.759   4.067   6.382  0.2063 -0.2854  0.1316
 1187ERGO    R315886  14.603   3.872   6.489 -0.1533 -0.0412  0.0740
 1187ERGO    R415887  14.666   4.049   6.714  0.2166 -0.2339  0.1380
 1187ERGO    R515888  14.697   3.833   6.706 -0.1891 -0.3014  0.0498
 1187ERGO    C115889  14.466   3.855   7.008 -0.1149  0.0252  0.0876
 1187ERGO    C215890  14.321   4.011   7.394 -0.1264 -0.3484 -0.1669
 1188ERGO   ROH15891   9.161  14.225   6.076 -0.3074  0.1097  0.1766
 1188ERGO    R115892   9.218  14.049   6.290 -0.3527  0.0911  0.1746
 1188ERGO    R215893   9.475  13.971   6.355 -0.3821 -0.1256  0.0574
 1188ERGO    R315894   9.406  14.064   6.601 -0.1810 -0.0234  0.0765
 1188ERGO    R415895   9.606  13.856   6.653 -0.2455 -0.0961  0.0087
 1188ERGO    R515896   9.407  13.869   6.740 -0.1815  0.0199  0.1333
 1188ERGO    C115897   9.617  13.875   7.058  0.0229  0.0171 -0.0017
 1188ERGO    C215898   9.564  13.748   7.311 -0.0123 -0.2840  0.1237
 1189ERGO   ROH15899   7.550   4.569   5.787  0.1278  0.4497 -0.0020
 1189ERGO    R115900   7.607   4.636   6.055  0.0418  0.2832  0.0595
 1189ERGO    R215901   7.409   4.687   6.242 -0.0203  0.0602  0.0576
 1189ERGO    R315902   7.538   4.494   6.384  0.0371  0.0158 -0.0538
 1189ERGO    R415903   7.446   4.685   6.585  0.0464 -0.0852  0.0501
 1189ERGO    R515904   7.649   4.613   6.559  0.0535 -0.0435 -0.0226
 1189ERGO    C115905   7.588   4.502   6.919  0.1392 -0.2116 -0.0590
 1189ERGO    C215906   7.553   4.446   7.242  0.1525 -0.4133 -0.1434
 1190ERGO   ROH15907  10.178  13.657   9.343  0.1460  0.1607 -0.0059
 1190ERGO    R115908  10.289  13.637   9.084  0.1850  0.1474  0.0121
 1190ERGO    R215909  10.190  13.463   8.893  0.2772  0.0681  0.0401
 1190ERGO    R315910  10.173  13.688   8.742  0.2072  0.0269 -0.0149
 1190ERGO    R415911  10.148  13.468   8.550  0.2348 -0.0352  0.0434
 1190ERGO    R515912  10.290  13.633   8.540  0.1978 -0.0019 -0.0154
 1190ERGO    C115913  10.107  13.682   8.209  0.1442 -0.1339 -0.0063
 1190ERGO    C215914  10.033  13.769   7.859  0.0723  0.0249  0.0489
 1191ERGO   ROH15915   0.896   8.815   9.455 -0.0668  0.2728 -0.0423
 1191ERGO    R115916   0.899   8.692   9.200 -0.1285  0.0036  0.0793
 1191ERGO    R215917   0.698   8.522   9.114 -0.3448  0.1801  0.1657
 1191ERGO    R315918   0.688   8.694   8.903 -0.0103  0.0038  0.0021
 1191ERGO    R415919   0.645   8.430   8.785 -0.0090 -0.0319  0.1682
 1191ERGO    R515920   0.795   8.576   8.725  0.1243 -0.1792  0.2197
 1191ERGO    C115921   0.605   8.537   8.396  0.5005 -0.3211  0.0161
 1191ERGO    C215922   0.671   8.668   8.044 -0.0658 -0.0117  0.0099
 1192ERGO   ROH15923   2.693  15.039   8.982 -0.1094 -0.2839 -0.0220
 1192ERGO    R115924   2.806  15.165   8.755 -0.1406  0.0902  0.1647
 1192ERGO    R215925   2.828  15.040   8.510  0.3754  0.2697  0.1116
 1192ERGO    R315926   2.695  15.260   8.422 -0.0050  0.0471  0.1046
 1192ERGO    R415927   2.824  15.151   8.183  0.4404  0.4086  0.1568
 1192ERGO    R515928   2.840  15.355   8.257 -0.0411  0.4210  0.2729
 1192ERGO    C115929   2.698  15.423   7.910  0.1211  0.2805  0.1764
 1192ERGO    C215930   2.759  15.509   7.606  0.4162  0.1066 -0.1561
 1193ERGO   ROH15931   8.752  10.994   9.355  0.0955 -0.4887  0.0950
 1193ERGO    R115932   8.813  11.080   9.093 -0.0070 -0.2043  0.1596
 1193ERGO    R215933   9.056  11.027   8.972 -0.0083  0.0281  0.0482
 1193ERGO    R315934   8.900  10.921   8.777 -0.0037  0.1406 -0.0169
 1193ERGO    R415935   9.100  11.080   8.634  0.0473  0.1591  0.0754
 1193ERGO    R515936   8.884  11.095   8.613  0.0535  0.2115  0.0523
 1193ERGO    C115937   8.979  11.012   8.253  0.0841  0.3410  0.0303
 1193ERGO    C215938   8.937  10.846   7.947  0.2439  0.0433  0.2218
 1194ERGO   ROH15939  12.332  10.344   9.331 -0.1926 -0.2807  0.0744
 1194ERGO    R115940  12.472  10.422   9.098 -0.2067  0.0012  0.1561
 1194ERGO    R215941  12.501  10.256   8.878  0.0877  0.1275  0.0904
 1194ERGO    R315942  12.394  10.467   8.745 -0.1411  0.0495  0.1481
 1194ERGO    R415943  12.456  10.272   8.536  0.2245  0.2368  0.0773
 1194ERGO    R515944  12.520  10.480   8.542 -0.0628  0.3240  0.2114
 1194ERGO    C115945  12.329  10.479   8.212  0.0894  0.2273  0.1238
 1194ERGO    C215946  12.181  10.378   7.871 -0.0179  0.2365  0.1914
 1195ERGO   ROH15947   5.651   2.458   6.169  0.2839  0.3365  0.0881
 1195ERGO    R115948   5.707   2.631   6.385  0.0750  0.1907  0.2626
 1195ERGO    R215949   5.625   2.577   6.644  0.0939 -0.1418  0.2035
 1195ERGO    R315950   5.889   2.611   6.700  0.0540  0.0787  0.2681
 1195ERGO    R415951   5.754   2.631   6.960 -0.0007 -0.3486  0.2791
 1195ERGO    R515952   5.892   2.776   6.874 -0.1433 -0.1040  0.4514
 1195ERGO    C115953   6.076   2.694   7.197 -0.0933 -0.2621  0.3838
 1195ERGO    C215954   6.080   2.530   7.467 -0.1627 -0.0513 -0.1344
 1196ERGO   ROH15955  11.064   5.325   6.135 -0.0245  0.1890 -0.0166
 1196ERGO    R115956  11.112   5.248   6.404 -0.3568 -0.1620 -0.0487
 1196ERGO    R215957  11.247   5.409   6.583  0.2017 -0.7388  0.0896
 1196ERGO    R315958  11.024   5.373   6.734  0.0056 -0.0355  0.0040
 1196ERGO    R415959  11.229   5.460   6.924  0.2190 -0.6482  0.0764
 1196ERGO    R515960  11.105   5.281   6.940 -0.3554 -0.2795  0.0464
 1196ERGO    C115961  11.008   5.456   7.265  0.0449  0.0650 -0.0117
 1196ERGO    C215962  10.859   5.692   7.522  0.3312 -0.0817 -0.0376
 1197ERGO   ROH15963   7.308  12.750   9.146  0.1515  0.1458  0.1807
 1197ERGO    R115964   7.394  12.887   8.914  0.0313  0.0512  0.0794
 1197ERGO    R215965   7.619  12.812   8.771 -0.0332  0.0040  0.0031
 1197ERGO    R315966   7.445  12.805   8.563 -0.1329 -0.0967  0.0880
 1197ERGO    R415967   7.703  12.733   8.445 -0.1612 -0.0230 -0.0240
 1197ERGO    R515968   7.570  12.891   8.377 -0.2529 -0.0830  0.0117
 1197ERGO    C115969   7.588  12.680   8.060 -0.3294 -0.1331  0.0400
 1197ERGO    C215970   7.575  12.680   7.749  0.0139  0.1838 -0.0059
 1198ERGO   ROH15971   6.618   5.965   9.175  0.2856 -0.0830  0.0796
 1198ERGO    R115972   6.679   6.026   8.906  0.2783  0.1185  0.1227
 1198ERGO    R215973   6.937   6.063   8.816  0.3043 -0.1684  0.0743
 1198ERGO    R315974   6.867   5.873   8.635 -0.0452  0.1235 -0.1119
 1198ERGO    R415975   7.044   6.054   8.487  0.2518 -0.0183  0.0523
 1198ERGO    R515976   6.843   5.992   8.429  0.1311  0.3784  0.0081
 1198ERGO    C115977   7.040   5.870   8.126 -0.1070  0.3431 -0.1354
 1198ERGO    C215978   7.219   5.737   7.886 -0.2482  0.1665 -0.5590
 1199ERGO   ROH15979  17.368   8.042   9.640 -0.1651 -0.0229 -0.0567
 1199ERGO    R115980  17.274   8.096   9.379 -0.1239  0.0326 -0.0606
 1199ERGO    R215981  17.443   8.137   9.165 -0.0901 -0.0060 -0.0424
 1199ERGO    R315982  17.296   7.939   9.051 -0.1482  0.0537 -0.0721
 1199ERGO    R415983  17.402   8.092   8.825 -0.0690  0.0299 -0.0497
 1199ERGO    R515984  17.193   8.042   8.862 -0.0903  0.1019 -0.0767
 1199ERGO    C115985  17.240   7.879   8.520 -0.1112  0.1068 -0.0818
 1199ERGO    C215986  17.182   7.871   8.271 -0.1874 -0.1548 -0.2112
 1200ERGO   ROH15987   9.009   0.776   9.334 -0.2378 -0.1184 -0.1834
 1200ERGO    R115988   9.133   0.792   9.079 -0.1527 -0.1475 -0.1448
 1200ERGO    R215989   9.173   0.571   8.919 -0.2585 -0.1418 -0.1818
 1200ERGO    R315990   9.039   0.720   8.735 -0.1044 -0.0088 -0.1872
 1200ERGO    R415991   9.203   0.535   8.577 -0.2434 -0.1368 -0.1806
 1200ERGO    R515992   9.198   0.752   8.558 -0.0523 -0.1304 -0.1623
 1200ERGO    C115993   9.095   0.654   8.205 -0.0900 -0.0089 -0.1851
 1200ERGO    C215994   9.104   0.683   7.833  0.2563 -0.5301 -0.0092
 1201ERGO   ROH15995   0.967  10.548   9.381  0.1214 -0.1461  0.2039
 1201ERGO    R115996   0.915  10.459   9.117  0.2004  0.0170  0.1317
 1201ERGO    R215997   1.117  10.411   8.934  0.2750 -0.1347  0.2509
 1201ERGO    R315998   0.998  10.167   8.916  0.0117  0.0023  0.0741
 1201ERGO    R415999   1.147  10.196   8.666  0.4188 -0.1639  0.2897
 1201ERGO    R516000   0.935  10.148   8.686  0.3269  0.0833 -0.0222
 1201ERGO    C116001   1.053   9.842   8.492  0.2553 -0.0523  0.1462
 1201ERGO    C216002   1.088   9.773   8.228  0.0727 -0.3279  0.1308
 1202ERGO   ROH16003   9.081  14.710   6.181 -0.0260  0.1054 -0.0504
 1202ERGO    R116004   9.156  14.907   6.370 -0.2403  0.1022  0.0406
 1202ERGO    R216005   9.040  14.926   6.619 -0.0922 -0.3036  0.1447
 1202ERGO    R316006   9.297  14.911   6.705  0.0095  0.0980 -0.0610
 1202ERGO    R416007   9.136  14.908   6.951  0.1852 -0.3418  0.0652
 1202ERGO    R516008   9.301  15.043   6.905 -0.0813 -0.0137  0.0196
 1202ERGO    C116009   9.434  14.882   7.224  0.4423  0.0131 -0.1742
 1202ERGO    C216010   9.214  14.717   7.534 -0.0885 -0.1802  0.1051
 1203ERGO   ROH16011  10.054   6.768   6.300  0.1687 -0.1379 -0.0624
 1203ERGO    R116012  10.122   6.584   6.504  0.6424  0.0295 -0.0599
 1203ERGO    R216013  10.319   6.635   6.690  0.2295  0.7497  0.2091
 1203ERGO    R316014  10.121   6.581   6.868  0.1883 -0.1138 -0.0537
 1203ERGO    R416015  10.368   6.566   7.025  0.1116  0.9842  0.2779
 1203ERGO    R516016  10.214   6.413   7.011  0.7663  0.2707  0.0686
 1203ERGO    C116017  10.210   6.475   7.387  0.0043  0.3101  0.0712
 1203ERGO    C216018  10.343   6.526   7.636  0.0997 -0.2135 -0.0980
 1204ERGO   ROH16019  10.444   7.751   9.624  0.2824  0.0719  0.0996
 1204ERGO    R116020  10.318   7.792   9.374  0.1472  0.1995  0.1856
 1204ERGO    R216021  10.381   8.005   9.209  0.3567  0.0623  0.0767
 1204ERGO    R316022  10.422   7.808   9.026 -0.0931 -0.0626  0.0985
 1204ERGO    R416023  10.405   8.054   8.868  0.3553 -0.0538  0.0601
 1204ERGO    R516024  10.288   7.873   8.838 -0.0224  0.1706  0.1288
 1204ERGO    C116025  10.457   7.899   8.497 -0.0677 -0.2387  0.0708
 1204ERGO    C216026  10.476   7.839   8.127  0.0306  0.2386  0.0989
 1205ERGO   ROH16027  11.384   6.365   6.059 -0.0296 -0.1301 -0.1244
 1205ERGO    R116028  11.182   6.425   6.247  0.0658  0.0219 -0.0684
 1205ERGO    R216029  11.146   6.280   6.480  0.0409  0.0680 -0.0437
 1205ERGO    R316030  11.166   6.525   6.597  0.2364  0.0677 -0.0729
 1205ERGO    R416031  11.097   6.342   6.816 -0.1066  0.1755 -0.0839
 1205ERGO    R516032  10.992   6.525   6.762  0.1288  0.2857 -0.1825
 1205ERGO    C116033  11.087   6.607   7.122 -0.0089  0.2377 -0.1347
 1205ERGO    C216034  11.205   6.696   7.364  0.2035  0.2508 -0.1636
 1206ERGO   ROH16035  13.216  17.204   9.589  0.0411 -0.1904 -0.0776
 1206ERGO    R116036  13.208  17.106   9.323 -0.0076 -0.2063 -0.0710
 1206ERGO    R216037  13.126  17.261   9.110 -0.2599 -0.2838 -0.0376
 1206ERGO    R316038  13.366  17.188   9.006 -0.2438 -0.0694 -0.1556
 1206ERGO    R416039  13.176  17.156   8.785 -0.3599 -0.4196 -0.0091
 1206ERGO    R516040  13.314  17.005   8.860 -0.1338 -0.2170 -0.0107
 1206ERGO    C116041  13.431  17.025   8.498 -0.4031 -0.2975 -0.1033
 1206ERGO    C216042  13.603  17.090   8.358  0.1161 -0.3081 -0.0173
 1207ERGO   ROH16043   9.091   6.416   8.834  0.1180  0.0080  0.0606
 1207ERGO    R116044   9.111   6.452   8.554  0.0220  0.1669  0.0734
 1207ERGO    R216045   9.083   6.243   8.375  0.3571  0.1945 -0.0125
 1207ERGO    R316046   8.894   6.405   8.266  0.0614 -0.0776  0.0805
 1207ERGO    R416047   9.019   6.271   8.037  0.3192  0.2755  0.0007
 1207ERGO    R516048   8.995   6.486   8.064 -0.0719  0.2255  0.1278
 1207ERGO    C116049   8.804   6.439   7.737  0.0196  0.0671  0.0957
 1207ERGO    C216050   8.685   6.672   7.535  0.1087  0.0460 -0.1106
 1208ERGO   ROH16051   5.963  11.603   8.936  0.1360 -0.2203 -0.0461
 1208ERGO    R116052   6.114  11.713   8.723 -0.0496  0.1298 -0.0010
 1208ERGO    R216053   6.147  11.583   8.482  0.4252  0.1353  0.0662
 1208ERGO    R316054   6.052  11.817   8.380 -0.1603 -0.1423 -0.0694
 1208ERGO    R416055   6.175  11.680   8.151  0.6293  0.1912  0.0960
 1208ERGO    R516056   6.217  11.883   8.219 -0.0934  0.3574  0.1704
 1208ERGO    C116057   6.101  11.954   7.862  0.1986 -0.0368 -0.0140
 1208ERGO    C216058   6.077  12.020   7.365 -0.1690 -0.0100  0.1695
 1209ERGO   ROH16059  14.740  17.408   9.492 -0.0194  0.1533 -0.1456
 1209ERGO    R116060  14.686  17.535   9.244 -0.2096  0.0488 -0.1595
 1209ERGO    R216061  14.860  17.524   9.030 -0.1337  0.3780 -0.1188
 1209ERGO    R316062  14.641  17.432   8.898  0.0646 -0.0483 -0.1692
 1209ERGO    R416063  14.838  17.481   8.688  0.0136  0.3812 -0.1294
 1209ERGO    R516064  14.635  17.559   8.696 -0.1544 -0.0244 -0.1520
 1209ERGO    C116065  14.620  17.369   8.365  0.2856 -0.0170 -0.1827
 1209ERGO    C216066  14.583  17.460   8.231 -0.2001  0.5088 -0.3001
 1210ERGO   ROH16067   4.789   5.875   5.715 -0.0588  0.1337 -0.0736
 1210ERGO    R116068   4.650   5.935   5.954  0.0086  0.1158 -0.0291
 1210ERGO    R216069   4.374   5.945   5.967  0.0115  0.1525  0.0413
 1210ERGO    R316070   4.409   5.767   6.169  0.0385  0.1151  0.0031
 1210ERGO    R416071   4.234   5.973   6.282  0.0124  0.0652  0.0493
 1210ERGO    R516072   4.422   5.903   6.366  0.0220  0.0737  0.0314
 1210ERGO    C116073   4.187   5.822   6.655  0.0383 -0.0208  0.0180
 1210ERGO    C216074   4.165   5.716   7.026 -0.2786 -0.0055 -0.0176
 1211ERGO   ROH16075  12.096   3.694   6.170  0.0855  0.2556 -0.2648
 1211ERGO    R116076  12.119   3.781   6.439 -0.0403  0.2447 -0.2508
 1211ERGO    R216077  12.120   3.606   6.652 -0.1526  0.2369 -0.2578
 1211ERGO    R316078  12.352   3.733   6.714 -0.1750  0.2242 -0.1390
 1211ERGO    R416079  12.272   3.600   6.963 -0.2153  0.0860 -0.2281
 1211ERGO    R516080  12.319   3.811   6.938 -0.2273  0.1030 -0.1041
 1211ERGO    C116081  12.578   3.715   7.201 -0.2728 -0.0138 -0.0993
 1211ERGO    C216082  12.862   3.726   7.437 -0.2757  0.2213  0.0337
 1212ERGO   ROH16083  15.375  11.452   9.310  0.0547  0.1142  0.1705
 1212ERGO    R116084  15.287  11.366   9.055  0.1410 -0.0809  0.2039
 1212ERGO    R216085  15.139  11.527   8.886 -0.0543 -0.3054  0.1451
 1212ERGO    R316086  15.337  11.467   8.710  0.0135 -0.1462  0.1677
 1212ERGO    R416087  15.096  11.498   8.545 -0.0009 -0.4272  0.1490
 1212ERGO    R516088  15.230  11.327   8.547  0.1688 -0.2875  0.1928
 1212ERGO    C116089  15.256  11.426   8.180  0.0936 -0.3486  0.1723
 1212ERGO    C216090  15.235  11.729   8.015  0.0208  0.0923  0.1762
 1213ERGO   ROH16091  17.937   0.596   9.528  0.0945  0.1270 -0.0056
 1213ERGO    R116092  18.012   0.454   9.295 -0.1462  0.0718 -0.0531
 1213ERGO    R216093  17.859   0.454   9.065 -0.1440  0.4230 -0.0657
 1213ERGO    R316094  18.091   0.535   8.949  0.0119  0.0593 -0.0187
 1213ERGO    R416095  17.913   0.477   8.724 -0.0041  0.2788 -0.0532
 1213ERGO    R516096  18.113   0.396   8.755 -0.1324 -0.0087  0.0183
 1213ERGO    C116097  18.162   0.566   8.417  0.2235 -0.1467 -0.0018
 1213ERGO    C216098  18.162   0.595   8.001 -0.2234  0.0978 -0.0812
 1214ERGO   ROH16099  17.190   4.657   9.417 -0.4005  0.0445  0.0137
 1214ERGO    R116100  17.170   4.695   9.137 -0.1563  0.1445  0.0075
 1214ERGO    R216101  16.947   4.807   9.018 -0.0720  0.1403 -0.1506
 1214ERGO    R316102  17.130   4.977   8.911 -0.0108  0.2202  0.0736
 1214ERGO    R416103  16.881   5.035   8.768  0.0975  0.2162 -0.1284
 1214ERGO    R516104  17.073   4.986   8.679  0.1917  0.2903  0.0230
 1214ERGO    C116105  17.013   5.329   8.521  0.2534  0.3352  0.0951
 1214ERGO    C216106  17.083   5.653   8.325 -0.0660 -0.0794 -0.0565
 1215ERGO   ROH16107  13.163   8.242   9.611  0.1740  0.0693  0.1361
 1215ERGO    R116108  13.133   8.269   9.330  0.1006  0.0447  0.1405
 1215ERGO    R216109  13.344   8.328   9.163  0.0240  0.2280  0.0988
 1215ERGO    R316110  13.263   8.103   9.033  0.1918  0.1558  0.1198
 1215ERGO    R416111  13.324   8.295   8.819 -0.5122  0.3830  0.1056
 1215ERGO    R516112  13.138   8.185   8.846 -0.2801  0.0426  0.3744
 1215ERGO    C116113  13.237   8.064   8.498 -0.6668  0.4054  0.1292
 1215ERGO    C216114  13.365   7.958   8.168  0.2636  0.0201  0.0786
 1216ERGO   ROH16115  16.665  13.018   6.390 -0.0652  0.1452 -0.1238
 1216ERGO    R116116  16.686  12.876   6.634 -0.3320 -0.0254 -0.1955
 1216ERGO    R216117  16.867  12.945   6.832 -0.1516 -0.5007 -0.1785
 1216ERGO    R316118  16.644  12.951   6.988 -0.1298 -0.1065 -0.1535
 1216ERGO    R416119  16.867  12.987   7.175 -0.0734 -0.1171 -0.2220
 1216ERGO    R516120  16.709  12.838   7.189 -0.2205  0.0522 -0.0343
 1216ERGO    C116121  16.658  13.018   7.521 -0.0076  0.4762 -0.2240
 1216ERGO    C216122  16.526  13.362   7.770 -0.0248  0.2875 -0.1794
 1217ERGO   ROH16123  13.529   3.220   9.253  0.2167  0.0387 -0.1799
 1217ERGO    R116124  13.480   3.381   9.025 -0.1256 -0.0118 -0.1479
 1217ERGO    R216125  13.659   3.401   8.815 -0.1514  0.4205 -0.1406
 1217ERGO    R316126  13.443   3.329   8.667  0.0004 -0.0203 -0.1591
 1217ERGO    R416127  13.659   3.359   8.472 -0.0642  0.5239 -0.1537
 1217ERGO    R516128  13.464   3.455   8.465 -0.2851  0.0926 -0.1201
 1217ERGO    C116129  13.457   3.266   8.134  0.1292  0.1704 -0.1786
 1217ERGO    C216130  13.453   3.166   7.847  0.3333  0.0675 -0.1448
 1218ERGO   ROH16131  14.584   8.859   6.544  0.1355 -0.1295 -0.1238
 1218ERGO    R116132  14.436   8.745   6.756  0.1292 -0.1568 -0.1430
 1218ERGO    R216133  14.549   8.572   6.940  0.1576 -0.0761 -0.0832
 1218ERGO    R316134  14.450   8.750   7.120  0.0324 -0.0865 -0.1399
 1218ERGO    R416135  14.529   8.517   7.280  0.1680  0.0120 -0.0678
 1218ERGO    R516136  14.334   8.614   7.280  0.1072 -0.1125 -0.1089
 1218ERGO    C116137  14.425   8.652   7.648  0.0564  0.0535 -0.1122
 1218ERGO    C216138  14.591   8.476   7.930 -0.0762 -0.1181  0.3095
 1219ERGO   ROH16139  17.569   7.741   6.104  0.0542  0.1118  0.0263
 1219ERGO    R116140  17.620   7.854   6.359 -0.0112  0.2073 -0.0008
 1219ERGO    R216141  17.470   8.061   6.463 -0.1495  0.1381 -0.0414
 1219ERGO    R316142  17.440   7.891   6.673 -0.0288  0.1600 -0.0075
 1219ERGO    R416143  17.439   8.158   6.793 -0.1885  0.1706 -0.0557
 1219ERGO    R516144  17.567   7.991   6.849 -0.0840  0.2659 -0.0339
 1219ERGO    C116145  17.392   8.055   7.182 -0.0979  0.2099 -0.0322
 1219ERGO    C216146  17.344   7.990   7.487 -0.0999  0.2572 -0.1324
 1220ERGO   ROH16147  18.215  14.176   9.046  0.0494  0.0038 -0.1043
 1220ERGO    R116148  18.435  14.067   8.905 -0.0598 -0.1324 -0.1741
 1220ERGO    R216149  18.419  13.991   8.640 -0.1105  0.1581 -0.2637
 1220ERGO    R316150  18.632  14.157   8.613  0.1048 -0.0752 -0.0449
 1220ERGO    R416151  18.558  14.084   8.338 -0.0301  0.4354 -0.1432
 1220ERGO    R516152  18.756  14.065   8.429 -0.0424  0.0406 -0.1990
 1220ERGO    C116153  18.840  14.295   8.137  0.2188  0.3778  0.1323
 1220ERGO    C216154  18.849  14.405   7.794 -0.1638 -0.0484  0.0595
 1221ERGO   ROH16155  11.509   9.433   6.077 -0.1828  0.0737  0.1271
 1221ERGO    R116156  11.413   9.238   6.258  0.0534 -0.1481  0.0180
 1221ERGO    R216157  11.571   9.034   6.355  0.4435  0.2534  0.2477
 1221ERGO    R316158  11.492   9.130   6.596 -0.1245  0.0928  0.1417
 1221ERGO    R416159  11.562   8.849   6.647  0.4713  0.2372  0.2399
 1221ERGO    R516160  11.373   8.947   6.697  0.1533 -0.1929 -0.0219
 1221ERGO    C116161  11.482   8.832   7.044 -0.0458  0.0771  0.1358
 1221ERGO    C216162  11.441   8.654   7.315 -0.0665 -0.0571  0.3202
 1222ERGO   ROH16163   5.552  13.212   5.652  0.0133  0.1395 -0.1366
 1222ERGO    R116164   5.506  13.152   5.925 -0.2206  0.1604 -0.1698
 1222ERGO    R216165   5.663  13.256   6.128 -0.2028 -0.0681 -0.0707
 1222ERGO    R316166   5.423  13.339   6.226 -0.1546  0.2276 -0.1910
 1222ERGO    R416167   5.606  13.359   6.453 -0.2972 -0.3456  0.0044
 1222ERGO    R516168   5.416  13.253   6.449 -0.4874 -0.0276 -0.2861
 1222ERGO    C116169   5.349  13.497   6.734 -0.3069 -0.2296 -0.0647
 1222ERGO    C216170   5.342  13.513   7.098  0.0248  0.0945  0.0084
 1223ERGO   ROH16171   8.290   0.812   5.640 -0.1991  0.1440 -0.0044
 1223ERGO    R116172   8.143   0.726   5.866 -0.0620  0.0574  0.0524
 1223ERGO    R216173   8.258   0.582   6.073  0.1301  0.2307  0.0659
 1223ERGO    R316174   8.154   0.781   6.226 -0.0383  0.1686  0.0354
 1223ERGO    R416175   8.253   0.583   6.418  0.0499  0.2374  0.0654
 1223ERGO    R516176   8.052   0.667   6.410 -0.0065  0.1048  0.0156
 1223ERGO    C116177   8.152   0.771   6.763 -0.1549  0.1830  0.0365
 1223ERGO    C216178   8.020   0.633   7.080  0.0478  0.4642  0.1604
 1224ERGO   ROH16179  17.769   4.270   9.500  0.0912 -0.1717 -0.0290
 1224ERGO    R116180  17.807   4.159   9.242  0.1444  0.0004 -0.0946
 1224ERGO    R216181  17.597   4.097   9.074  0.1643 -0.2290 -0.0241
 1224ERGO    R316182  17.733   4.255   8.899 -0.1411  0.0467 -0.0251
 1224ERGO    R416183  17.537   4.113   8.734  0.2481 -0.5147 -0.0565
 1224ERGO    R516184  17.752   4.122   8.701  0.2619 -0.0017  0.0296
 1224ERGO    C116185  17.629   4.270   8.372  0.0104 -0.4223 -0.0762
 1224ERGO    C216186  17.673   4.307   8.026  0.3699  0.0255 -0.0377
 1225ERGO   ROH16187   6.738   6.141   5.903  0.2190 -0.0120 -0.0373
 1225ERGO    R116188   6.950   6.262   6.046  0.1941 -0.0823  0.0603
 1225ERGO    R216189   6.936   6.520   6.142  0.3242  0.0079 -0.1556
 1225ERGO    R316190   7.000   6.401   6.378  0.0088  0.1352 -0.0005
 1225ERGO    R416191   7.063   6.684   6.419  0.1552  0.1246 -0.1459
 1225ERGO    R516192   7.197   6.515   6.451  0.0132  0.0569  0.1132
 1225ERGO    C116193   7.197   6.668   6.801 -0.2392  0.3119  0.0055
 1225ERGO    C216194   7.267   6.881   7.130  0.4239 -0.3187  0.0748
 1226ERGO   ROH16195   4.496   7.153   5.870 -0.0610  0.2125  0.0811
 1226ERGO    R116196   4.468   7.117   6.149  0.1916  0.4069  0.1342
 1226ERGO    R216197   4.524   6.879   6.276 -0.3305  0.2785  0.1417
 1226ERGO    R316198   4.685   7.035   6.429  0.3316 -0.1094 -0.1139
 1226ERGO    R416199   4.592   6.822   6.610 -0.6187  0.5460  0.2515
 1226ERGO    R516200   4.577   7.037   6.644  0.2839  0.7115 -0.1148
 1226ERGO    C116201   4.782   6.935   6.949 -0.1649  0.3376  0.0755
 1226ERGO    C216202   4.906   6.846   7.302  0.1021  0.0197 -0.1343
 1227ERGO   ROH16203  17.578   6.990   9.671  0.1004  0.1382 -0.0761
 1227ERGO    R116204  17.679   7.009   9.407  0.0313  0.0476 -0.1097
 1227ERGO    R216205  17.679   6.794   9.232 -0.0618  0.0008 -0.0535
 1227ERGO    R316206  17.548   6.969   9.070 -0.0707 -0.0147 -0.0629
 1227ERGO    R416207  17.709   6.807   8.888 -0.0413  0.0022 -0.0517
 1227ERGO    R516208  17.706   7.024   8.900 -0.0661  0.0019 -0.0532
 1227ERGO    C116209  17.603   6.978   8.536 -0.0378 -0.0115 -0.0594
 1227ERGO    C216210  17.569   7.004   8.166  0.1410  0.0860  0.0288
 1228ERGO   ROH16211  16.465  13.921   9.577 -0.2749 -0.2580  0.1534
 1228ERGO    R116212  16.354  13.954   9.319 -0.5339 -0.3164  0.2555
 1228ERGO    R216213  16.494  13.896   9.088 -0.4755  0.3588  0.1060
 1228ERGO    R316214  16.279  13.740   9.034 -0.0460 -0.2612  0.0731
 1228ERGO    R416215  16.415  13.770   8.776 -0.3088  0.5232 -0.0060
 1228ERGO    R516216  16.205  13.813   8.818 -0.4370 -0.1842  0.2210
 1228ERGO    C116217  16.166  13.550   8.544  0.1916  0.0369 -0.1020
 1228ERGO    C216218  16.110  13.439   8.252 -0.3202  0.2377  0.1698
 1229ERGO   ROH16219  12.513  11.169   6.006  0.0155 -0.0464  0.0848
 1229ERGO    R116220  12.638  11.330   6.202  0.0531 -0.1369  0.1363
 1229ERGO    R216221  12.520  11.557   6.306  0.1470 -0.0858  0.1357
 1229ERGO    R316222  12.567  11.434   6.544  0.0230 -0.1426  0.1315
 1229ERGO    R416223  12.429  11.683   6.615 -0.0105 -0.1598  0.1206
 1229ERGO    R516224  12.620  11.613   6.694 -0.0523 -0.1800  0.2023
 1229ERGO    C116225  12.421  11.641   7.018 -0.2184 -0.2564  0.1079
 1229ERGO    C216226  12.417  11.454   7.270  0.1202 -0.1501 -0.0127
 1230ERGO   ROH16227   5.536  16.511   8.965 -0.1027 -0.2182 -0.0174
 1230ERGO    R116228   5.351  16.485   8.752 -0.0127 -0.1880 -0.1002
 1230ERGO    R216229   5.420  16.532   8.488  0.1011 -0.1547 -0.0665
 1230ERGO    R316230   5.321  16.282   8.452  0.1132 -0.1489 -0.1395
 1230ERGO    R416231   5.317  16.402   8.185  0.2451 -0.1265 -0.1282
 1230ERGO    R516232   5.149  16.309   8.287  0.1943 -0.1320 -0.2199
 1230ERGO    C116233   5.164  16.092   7.974  0.3403 -0.1045 -0.2325
 1230ERGO    C216234   5.092  15.953   7.733 -0.2653  0.1736  0.1939
 1231ERGO   ROH16235   7.924  16.609   9.436  0.1615  0.3940 -0.0341
 1231ERGO    R116236   8.061  16.558   9.194  0.1091  0.2800 -0.0406
 1231ERGO    R216237   8.097  16.304   9.094  0.1340  0.2273  0.0985
 1231ERGO    R316238   7.982  16.409   8.871  0.0547  0.0751  0.0660
 1231ERGO    R416239   8.218  16.266   8.772  0.0708  0.0880  0.0904
 1231ERGO    R516240   8.167  16.474   8.734  0.0046  0.0530 -0.0114
 1231ERGO    C116241   8.181  16.343   8.376 -0.0404 -0.1358  0.0552
 1231ERGO    C216242   8.249  16.432   8.118 -0.2423  0.0583  0.0902
 1232ERGO   ROH16243   9.233  17.916   9.370 -0.0549 -0.0316 -0.0948
 1232ERGO    R116244   9.347  18.027   9.136  0.1817 -0.0504  0.0087
 1232ERGO    R216245   9.508  17.881   8.966  0.0374 -0.1792 -0.0222
 1232ERGO    R316246   9.330  17.964   8.778  0.2115  0.1841 -0.0350
 1232ERGO    R416247   9.565  17.880   8.625 -0.0115 -0.4945 -0.0324
 1232ERGO    R516248   9.464  18.073   8.612  0.4706 -0.2337 -0.1114
 1232ERGO    C116249   9.431  17.958   8.250  0.1235 -0.3369 -0.0505
 1232ERGO    C216250   9.389  17.935   7.906  0.1603  0.1759 -0.0065
 1233ERGO   ROH16251  18.836  16.797   9.612 -0.1978 -0.0992 -0.1582
 1233ERGO    R116252  18.857  16.907   9.351 -0.1527 -0.1650 -0.1823
 1233ERGO    R216253  19.099  16.935   9.221 -0.1098 -0.0315 -0.0744
 1233ERGO    R316254  18.973  16.794   9.025  0.0853 -0.1831 -0.0936
 1233ERGO    R416255  19.137  16.989   8.881 -0.2023  0.0899 -0.0664
 1233ERGO    R516256  18.923  16.956   8.857 -0.1613 -0.2199 -0.0610
 1233ERGO    C116257  19.041  16.887   8.501 -0.0730  0.0184 -0.0797
 1233ERGO    C216258  19.213  16.922   8.165 -0.3683 -0.1585 -0.1681
 1234ERGO   ROH16259  14.469  14.132   5.981  0.1331  0.0799  0.0822
 1234ERGO    R116260  14.471  14.061   6.255  0.0758  0.1508  0.1017
 1234ERGO    R216261  14.372  14.226   6.452 -0.2308  0.0842  0.0110
 1234ERGO    R316262  14.224  14.008   6.517 -0.0024 -0.0829 -0.0167
 1234ERGO    R416263  14.311  14.117   6.775 -0.3350  0.1334  0.0082
 1234ERGO    R516264  14.337  13.912   6.705 -0.0196  0.1359  0.1073
 1234ERGO    C116265  14.136  13.849   7.023 -0.1812  0.0053 -0.0194
 1234ERGO    C216266  14.084  13.921   7.352  0.0549 -0.0480  0.1919
 1235ERGO   ROH16267   4.121  13.465   5.869 -0.0282 -0.0250 -0.0930
 1235ERGO    R116268   4.284  13.393   6.090  0.0885  0.0923 -0.1380
 1235ERGO    R216269   4.411  13.581   6.248 -0.0440  0.1921 -0.1372
 1235ERGO    R316270   4.282  13.452   6.449  0.1120  0.0443 -0.1319
 1235ERGO    R416271   4.446  13.655   6.583 -0.2174  0.3141 -0.1456
 1235ERGO    R516272   4.444  13.441   6.625  0.0938  0.3223 -0.0999
 1235ERGO    C116273   4.346  13.577   6.968 -0.1719  0.2464 -0.1455
 1235ERGO    C216274   4.288  13.459   7.353  0.1727 -0.0539  0.1004
 1236ERGO   ROH16275  15.186  18.240   5.983 -0.0805 -0.0475  0.1961
 1236ERGO    R116276  14.988  18.260   6.184  0.0089  0.1537  0.2663
 1236ERGO    R216277  14.897  18.040   6.325 -0.3233  0.2067  0.1382
 1236ERGO    R316278  14.965  18.192   6.540 -0.0012 -0.0544  0.2284
 1236ERGO    R416279  14.746  18.023   6.636 -0.3073  0.2763  0.1505
 1236ERGO    R516280  14.757  18.240   6.648  0.0958  0.2596  0.2924
 1236ERGO    C116281  14.722  18.154   7.018  0.0044  0.0720  0.2422
 1236ERGO    C216282  14.553  18.106   7.317 -0.0241 -0.0304 -0.0373
 1237ERGO   ROH16283   2.827   8.435   9.318 -0.0714  0.0678 -0.0517
 1237ERGO    R116284   2.916   8.500   9.057 -0.0835  0.0717 -0.0557
 1237ERGO    R216285   2.925   8.313   8.852 -0.1004  0.0749 -0.0633
 1237ERGO    R316286   2.774   8.498   8.722 -0.1031  0.0833 -0.0469
 1237ERGO    R416287   2.866   8.318   8.511 -0.2725 -0.0139 -0.0345
 1237ERGO    R516288   2.887   8.534   8.514 -0.1976 -0.0221 -0.1157
 1237ERGO    C116289   2.689   8.494   8.191 -0.3753 -0.0579 -0.0024
 1237ERGO    C216290   2.703   8.485   7.828  0.2035 -0.2700 -0.0711
 1238ERGO   ROH16291   6.212  16.942   5.833 -0.2569  0.1092 -0.1590
 1238ERGO    R116292   6.310  17.040   6.080 -0.2226  0.0986 -0.1684
 1238ERGO    R216293   6.154  17.182   6.257 -0.2158  0.0368 -0.1113
 1238ERGO    R316294   6.236  16.992   6.433 -0.1289  0.0311 -0.1577
 1238ERGO    R416295   6.039  17.151   6.582 -0.2018 -0.0983 -0.1187
 1238ERGO    R516296   6.243  17.106   6.644 -0.1820 -0.0192 -0.1296
 1238ERGO    C116297   6.050  16.955   6.936 -0.1120 -0.1825 -0.1667
 1238ERGO    C216298   5.976  17.008   7.282 -0.1340 -0.6365 -0.1619
 1239ERGO   ROH16299  17.746  11.176   9.215 -0.2164  0.1458  0.0745
 1239ERGO    R116300  17.611  11.116   8.974 -0.1615  0.0599  0.0650
 1239ERGO    R216301  17.536  11.310   8.793 -0.0896 -0.0084 -0.0376
 1239ERGO    R316302  17.675  11.156   8.618 -0.0647 -0.1010  0.0628
 1239ERGO    R416303  17.451  11.262   8.461  0.0229 -0.0790 -0.0566
 1239ERGO    R516304  17.507  11.052   8.483 -0.0452 -0.0914  0.0281
 1239ERGO    C116305  17.533  11.089   8.104  0.1119 -0.2070  0.0267
 1239ERGO    C216306  17.539  11.249   7.818  0.0136  0.0082 -0.2910
 1240ERGO   ROH16307  16.404  12.202   8.959 -0.1740  0.0973 -0.0828
 1240ERGO    R116308  16.400  12.237   8.678 -0.0915  0.1534 -0.0774
 1240ERGO    R216309  16.456  12.480   8.557 -0.0181  0.1674 -0.0146
 1240ERGO    R316310  16.638  12.332   8.420 -0.0052  0.1649  0.0053
 1240ERGO    R416311  16.545  12.534   8.228 -0.0657  0.0983 -0.0391
 1240ERGO    R516312  16.548  12.318   8.198 -0.0280  0.0894  0.0184
 1240ERGO    C116313  16.769  12.426   7.907 -0.0810  0.0557 -0.0345
 1240ERGO    C216314  16.800  12.583   7.622 -0.0054  0.0151  0.1831
 1241ERGO   ROH16315   2.802  12.573   9.282 -0.1904 -0.2136  0.0805
 1241ERGO    R116316   2.840  12.657   9.015 -0.0166 -0.1123  0.1356
 1241ERGO    R216317   2.898  12.481   8.810 -0.0176 -0.0507  0.0856
 1241ERGO    R316318   2.681  12.595   8.693  0.1017  0.1224  0.0281
 1241ERGO    R416319   2.810  12.440   8.479 -0.1477 -0.2737  0.1454
 1241ERGO    R516320   2.756  12.652   8.473  0.1310 -0.1995 -0.0530
 1241ERGO    C116321   2.554  12.523   8.175 -0.1115 -0.2409  0.1263
 1241ERGO    C216322   2.423  12.609   8.016  0.0748  0.0426  0.1246
 1242ERGO   ROH16323  10.184   8.901   6.033  0.0510 -0.1916 -0.0660
 1242ERGO    R116324  10.280   8.801   6.280  0.3016  0.0171 -0.0740
 1242ERGO    R216325  10.480   8.926   6.424  0.0410  0.4734 -0.0881
 1242ERGO    R316326  10.296   8.917   6.624  0.0657  0.0567 -0.0752
 1242ERGO    R416327  10.549   8.978   6.759 -0.0361  0.4977 -0.0758
 1242ERGO    R516328  10.412   8.816   6.808  0.2738  0.2159 -0.1171
 1242ERGO    C116329  10.417   9.000   7.142 -0.0577  0.1208 -0.0564
 1242ERGO    C216330  10.699   9.044   7.367  0.0210  0.0296  0.0050
 1243ERGO   ROH16331  15.411  12.732   6.532  0.1876  0.1117 -0.0223
 1243ERGO    R116332  15.444  12.680   6.808  0.1147  0.0700 -0.0207
 1243ERGO    R216333  15.580  12.851   6.976  0.1139  0.0217  0.0332
 1243ERGO    R316334  15.350  12.840   7.121  0.0778  0.0517 -0.0230
 1243ERGO    R416335  15.547  12.959   7.303  0.0714 -0.0688  0.0587
 1243ERGO    R516336  15.422  12.785   7.343  0.0068 -0.0391 -0.0238
 1243ERGO    C116337  15.312  13.013   7.628  0.0128 -0.0933  0.0208
 1243ERGO    C216338  15.303  13.319   7.830 -0.2750 -0.1933  0.0469
 1244ERGO   ROH16339  10.645   0.422   5.735  0.2556 -0.0326 -0.0825
 1244ERGO    R116340  10.787   0.332   5.963  0.1876 -0.1570 -0.0886
 1244ERGO    R216341  10.704   0.389   6.221  0.2963 -0.0069 -0.0876
 1244ERGO    R316342  10.718   0.119   6.250 -0.0202 -0.0211 -0.0336
 1244ERGO    R416343  10.809   0.225   6.507  0.4293 -0.0554 -0.1633
 1244ERGO    R516344  10.915   0.083   6.381  0.0983 -0.2339 -0.2573
 1244ERGO    C116345  10.883  -0.123   6.700  0.2098 -0.0969 -0.1568
 1244ERGO    C216346  10.933  -0.361   6.939 -0.2346  0.1011 -0.3598
 1245ERGO   ROH16347  18.043  14.121   5.609  0.1906 -0.1423  0.0500
 1245ERGO    R116348  18.118  14.171   5.878  0.1165 -0.0807  0.0600
 1245ERGO    R216349  18.326  14.339   5.944  0.1472 -0.1222  0.0764
 1245ERGO    R316350  18.137  14.461   6.097  0.1310 -0.0162 -0.0266
 1245ERGO    R416351  18.391  14.513   6.236  0.0819 -0.1649  0.1165
 1245ERGO    R516352  18.211  14.424   6.322 -0.0172 -0.0627  0.0142
 1245ERGO    C116353  18.251  14.729   6.549  0.0286 -0.0904  0.0430
 1245ERGO    C216354  18.450  14.729   6.941 -0.0043  0.0318 -0.1097
 1246ERGO   ROH16355   6.955   9.222   5.705 -0.0622  0.0331 -0.0583
 1246ERGO    R116356   6.921   9.351   5.954 -0.1161 -0.0920  0.0002
 1246ERGO    R216357   6.820   9.607   5.977  0.0611 -0.0275  0.0913
 1246ERGO    R316358   6.644   9.487   6.146 -0.1319 -0.0010 -0.0871
 1246ERGO    R416359   6.653   9.766   6.235  0.0529 -0.0696  0.1120
 1246ERGO    R516360   6.686   9.590   6.358 -0.1613 -0.1840  0.0082
 1246ERGO    C116361   6.391   9.746   6.544 -0.1331 -0.0693 -0.0434
 1246ERGO    C216362   6.237   9.620   6.899  0.1585 -0.4001 -0.3849
 1247ERGO   ROH16363  17.778  10.311   9.663 -0.0410  0.2147 -0.0173
 1247ERGO    R116364  17.701  10.176   9.426 -0.0074  0.0764  0.0497
 1247ERGO    R216365  17.579  10.305   9.215 -0.0747 -0.0673  0.0008
 1247ERGO    R316366  17.783  10.195   9.072 -0.0435 -0.0532  0.0334
 1247ERGO    R416367  17.551  10.184   8.893  0.0109  0.0322 -0.0449
 1247ERGO    R516368  17.680  10.017   8.949 -0.0299 -0.0032 -0.0525
 1247ERGO    C116369  17.725  10.011   8.571  0.0900  0.1034 -0.0410
 1247ERGO    C216370  17.539   9.844   8.230  0.5453  0.0582 -0.1870
 1248ERGO   ROH16371  13.494   3.881   5.848  0.0726  0.2140 -0.0013
 1248ERGO    R116372  13.553   3.744   6.089 -0.0356  0.1022 -0.0390
 1248ERGO    R216373  13.649   3.873   6.313  0.2470 -0.0620 -0.0709
 1248ERGO    R316374  13.437   3.754   6.434  0.1155  0.2422  0.0113
 1248ERGO    R416375  13.601   3.854   6.655  0.5578 -0.3044 -0.0346
 1248ERGO    R516376  13.529   3.650   6.628  0.1143 -0.1486 -0.1813
 1248ERGO    C116377  13.373   3.731   6.967  0.6153 -0.1599  0.0636
 1248ERGO    C216378  13.345   3.656   7.417  0.5272 -0.2512  0.1566
 1249ERGO   ROH16379   0.420  12.786   9.145 -0.1012  0.0100  0.0604
 1249ERGO    R116380   0.536  12.632   8.938 -0.0387  0.0642  0.0554
 1249ERGO    R216381   0.388  12.461   8.779  0.0270  0.0324  0.0327
 1249ERGO    R316382   0.499  12.604   8.577 -0.0041  0.0814  0.0494
 1249ERGO    R416383   0.326  12.408   8.443  0.2269 -0.1143  0.0167
 1249ERGO    R516384   0.538  12.443   8.404  0.2208  0.0652  0.1082
 1249ERGO    C116385   0.394  12.513   8.057  0.3142 -0.1537  0.0230
 1249ERGO    C216386   0.221  12.315   7.710  0.2412 -0.2366  0.1426
 1250ERGO   ROH16387  11.038  16.744   6.850 -0.0175 -0.5245  0.3413
 1250ERGO    R116388  11.137  16.998   6.927  0.0699 -0.4605  0.0322
 1250ERGO    R216389  10.976  17.190   7.043  0.1326 -0.2554 -0.2133
 1250ERGO    R316390  11.167  17.187   7.237  0.1201 -0.0840 -0.1957
 1250ERGO    R416391  10.999  17.418   7.302 -0.0146 -0.1539 -0.2873
 1250ERGO    R516392  11.216  17.417   7.277 -0.0115 -0.0423 -0.2691
 1250ERGO    C116393  11.192  17.547   7.635 -0.1122  0.0659 -0.3138
 1250ERGO    C216394  11.221  17.742   7.913 -0.0041 -0.0889  0.1354
 1251ERGO   ROH16395  16.300  14.721   6.295 -0.0721  0.3486  0.0487
 1251ERGO    R116396  16.463  14.662   6.519 -0.2364  0.2953  0.1544
 1251ERGO    R216397  16.714  14.771   6.553  0.0254 -0.2458  0.0018
 1251ERGO    R316398  16.614  14.847   6.794  0.1788  0.3665 -0.1071
 1251ERGO    R416399  16.903  14.821   6.838  0.1200 -0.7303  0.0332
 1251ERGO    R516400  16.744  14.725   6.953 -0.3459 -0.0346  0.0571
 1251ERGO    C116401  16.918  14.921   7.230  0.3190 -0.4377 -0.0508
 1251ERGO    C216402  16.935  14.975   7.555 -0.5972 -0.0333 -0.2959
 1252ERGO   ROH16403   9.013  13.512   5.702 -0.0184  0.0963  0.1383
 1252ERGO    R116404   9.089  13.451   5.968 -0.1608 -0.0059  0.1570
 1252ERGO    R216405   9.118  13.646   6.162 -0.0773 -0.0586  0.1988
 1252ERGO    R316406   8.943  13.490   6.300 -0.2508  0.0558  0.1105
 1252ERGO    R416407   9.092  13.637   6.507 -0.1235 -0.1841  0.1920
 1252ERGO    R516408   9.066  13.420   6.493 -0.3411 -0.1543  0.0939
 1252ERGO    C116409   8.912  13.485   6.836 -0.3135 -0.1496  0.1051
 1252ERGO    C216410   8.804  13.430   7.063  0.0228 -0.0194 -0.0253
 1253ERGO   ROH16411  15.691   9.476   6.494 -0.0080 -0.0233 -0.1997
 1253ERGO    R116412  15.919   9.461   6.660 -0.1729 -0.1976  0.0182
 1253ERGO    R216413  16.079   9.680   6.713  0.0983 -0.3721 -0.0587
 1253ERGO    R316414  16.030   9.612   6.972 -0.2340 -0.0537 -0.0285
 1253ERGO    R416415  16.190   9.857   6.989  0.2040 -0.3189 -0.1344
 1253ERGO    R516416  16.232   9.667   7.087 -0.2167 -0.3170  0.0761
 1253ERGO    C116417  16.209   9.895   7.392 -0.0466  0.0108 -0.1500
 1253ERGO    C216418  16.402  10.114   7.538 -0.3616  0.1051  0.1944
 1254ERGO   ROH16419  14.885  10.858   9.491  0.1650  0.0965 -0.0286
 1254ERGO    R116420  15.058  10.943   9.283  0.0203  0.1564 -0.1259
 1254ERGO    R216421  15.231  10.771   9.154  0.2014  0.2693 -0.0351
 1254ERGO    R316422  15.106  10.864   8.931  0.0399 -0.0404 -0.0807
 1254ERGO    R416423  15.378  10.803   8.843  0.1107  0.2485 -0.0807
 1254ERGO    R516424  15.274  10.992   8.818 -0.1398  0.1020 -0.1936
 1254ERGO    C116425  15.347  10.909   8.453 -0.0938 -0.0544 -0.1501
 1254ERGO    C216426  15.444  10.871   8.196  0.1581 -0.0511  0.0572
 1255ERGO   ROH16427  12.963   4.691   9.325 -0.0962 -0.0733  0.1032
 1255ERGO    R116428  12.738   4.521   9.293 -0.0766 -0.0918  0.0588
 1255ERGO    R216429  12.482   4.619   9.251 -0.0930 -0.1103  0.0995
 1255ERGO    R316430  12.492   4.457   9.033 -0.0784 -0.0396  0.0480
 1255ERGO    R416431  12.207   4.505   9.077 -0.0798 -0.0489  0.0391
 1255ERGO    R516432  12.304   4.311   9.059 -0.0826 -0.0439 -0.0158
 1255ERGO    C116433  12.055   4.286   8.771 -0.0585  0.0533 -0.0444
 1255ERGO    C216434  11.994   4.211   8.482  0.0171 -0.0140  0.0243
 1256ERGO   ROH16435   7.814   8.970   9.448  0.0785 -0.0881 -0.1716
 1256ERGO    R116436   7.896   9.062   9.193 -0.0749 -0.1105 -0.2299
 1256ERGO    R216437   8.158   9.052   9.108 -0.0938  0.0564 -0.3150
 1256ERGO    R316438   8.051   8.918   8.897 -0.0669 -0.0930 -0.2342
 1256ERGO    R416439   8.254   9.093   8.778 -0.2649  0.0535 -0.3653
 1256ERGO    R516440   8.044   9.080   8.721 -0.2799 -0.1435 -0.2751
 1256ERGO    C116441   8.209   8.991   8.389 -0.3393 -0.0885 -0.3189
 1256ERGO    C216442   8.413   8.991   8.188 -0.0128  0.0837  0.1727
 1257ERGO   ROH16443   8.564   8.388   6.090  0.0739 -0.1313 -0.0563
 1257ERGO    R116444   8.395   8.394   6.316  0.0893 -0.0634 -0.0465
 1257ERGO    R216445   8.395   8.195   6.507 -0.0223 -0.0946 -0.0771
 1257ERGO    R316446   8.437   8.402   6.678  0.1144 -0.1456 -0.0480
 1257ERGO    R416447   8.376   8.173   6.852 -0.1342 -0.1035 -0.0831
 1257ERGO    R516448   8.277   8.368   6.853  0.0373 -0.0171 -0.0942
 1257ERGO    C116449   8.405   8.355   7.213 -0.0711 -0.1565 -0.0593
 1257ERGO    C216450   8.373   8.191   7.615 -0.1977  0.0677  0.3114
 1258ERGO   ROH16451  13.911   8.687   6.155  0.2328 -0.0417  0.0527
 1258ERGO    R116452  13.966   8.607   6.421  0.1315  0.0771  0.1098
 1258ERGO    R216453  14.015   8.789   6.624 -0.1347  0.1740  0.0891
 1258ERGO    R316454  13.813   8.655   6.748 -0.1083  0.0526  0.0037
 1258ERGO    R416455  13.993   8.737   6.965 -0.1791  0.0435  0.0676
 1258ERGO    R516456  13.922   8.535   6.925 -0.0954  0.0296 -0.0188
 1258ERGO    C116457  13.791   8.582   7.280 -0.1802 -0.1465 -0.0253
 1258ERGO    C216458  13.682   8.697   7.552  0.2224 -0.0989  0.3199
 1259ERGO   ROH16459  11.751   9.050   9.195 -0.1730  0.0438 -0.0288
 1259ERGO    R116460  11.795   8.903   8.957 -0.0089  0.0821 -0.0245
 1259ERGO    R216461  11.589   8.827   8.790  0.0731 -0.1460 -0.0299
 1259ERGO    R316462  11.737   8.954   8.601 -0.0566  0.0133 -0.0259
 1259ERGO    R416463  11.613   8.729   8.459  0.1717 -0.1046 -0.0344
 1259ERGO    R516464  11.826   8.777   8.466  0.1227  0.1105 -0.0348
 1259ERGO    C116465  11.767   8.792   8.090  0.1074  0.0690 -0.0334
 1259ERGO    C216466  11.509   8.633   7.815  0.0127 -0.0080 -0.2484
 1260ERGO   ROH16467  12.348  18.148   5.957  0.1062 -0.1722 -0.0262
 1260ERGO    R116468  12.285  18.196   6.229 -0.1525 -0.4479 -0.0328
 1260ERGO    R216469  12.254  17.992   6.413  0.4996 -0.6219 -0.0908
 1260ERGO    R316470  12.440  18.132   6.551 -0.0115  0.0162 -0.0027
 1260ERGO    R416471  12.330  17.943   6.746  0.4376 -0.2717 -0.0207
 1260ERGO    R516472  12.345  18.159   6.769 -0.2468 -0.2005 -0.0763
 1260ERGO    C116473  12.550  18.046   7.070 -0.0782  0.5310  0.1026
 1260ERGO    C216474  12.631  18.092   7.381  0.1283 -0.3590  0.4545
 1261ERGO   ROH16475   4.263   6.691   9.108  0.0718 -0.2659 -0.0706
 1261ERGO    R116476   4.262   6.915   8.934 -0.0739 -0.1473  0.0774
 1261ERGO    R216477   4.375   6.908   8.681  0.0039  0.1196  0.0966
 1261ERGO    R316478   4.129   6.993   8.605 -0.0522 -0.0464  0.0933
 1261ERGO    R416479   4.310   7.102   8.403 -0.1294  0.0448  0.0766
 1261ERGO    R516480   4.166   7.214   8.520 -0.1966 -0.0343  0.0655
 1261ERGO    C116481   4.041   7.295   8.169 -0.2598 -0.1546  0.0619
 1261ERGO    C216482   4.046   7.241   7.836 -0.2119 -0.0547  0.1482
 1262ERGO   ROH16483   9.638   8.751   6.263 -0.3455  0.0852 -0.1184
 1262ERGO    R116484   9.453   8.656   6.456 -0.1895 -0.0092 -0.0109
 1262ERGO    R216485   9.530   8.510   6.677  0.0191  0.0677 -0.0210
 1262ERGO    R316486   9.396   8.704   6.812 -0.0363  0.0064  0.0094
 1262ERGO    R416487   9.444   8.496   7.012  0.2978  0.1446  0.0563
 1262ERGO    R516488   9.252   8.584   6.961  0.1869 -0.0439  0.1782
 1262ERGO    C116489   9.267   8.670   7.332  0.4081  0.1320  0.1297
 1262ERGO    C216490   9.207   8.622   7.640 -0.0535  0.0460 -0.1690
 1263ERGO   ROH16491  17.740  11.002   6.282 -0.0911 -0.0342  0.0030
 1263ERGO    R116492  17.776  11.261   6.391 -0.0570 -0.0516  0.0336
 1263ERGO    R216493  17.788  11.307   6.663 -0.0267 -0.0886  0.0381
 1263ERGO    R316494  18.023  11.429   6.599 -0.0219 -0.1008  0.0319
 1263ERGO    R416495  17.979  11.496   6.881 -0.0249 -0.0782  0.0274
 1263ERGO    R516496  18.017  11.636   6.719 -0.0180 -0.0912  0.0166
 1263ERGO    C116497  18.310  11.720   6.948 -0.0194 -0.0835  0.0154
 1263ERGO    C216498  18.567  11.700   7.173  0.5356 -0.1002  0.3221
 1264ERGO   ROH16499   7.301   6.960   9.048 -0.0474 -0.0330  0.1436
 1264ERGO    R116500   7.240   7.047   8.786  0.0300  0.0150  0.1405
 1264ERGO    R216501   7.429   7.162   8.620  0.1196 -0.0964  0.1587
 1264ERGO    R316502   7.351   6.965   8.448  0.0103 -0.0438  0.1489
 1264ERGO    R416503   7.458   7.177   8.275 -0.1036  0.0058  0.1434
 1264ERGO    R516504   7.262   7.083   8.260 -0.1117  0.0111  0.2417
 1264ERGO    C116505   7.401   7.001   7.915 -0.3362  0.1148  0.1253
 1264ERGO    C216506   7.295   6.812   7.628 -0.2328  0.1517  0.0119
 1265ERGO   ROH16507   1.951  11.752   5.918 -0.3313 -0.1727  0.0475
 1265ERGO    R116508   2.007  11.966   6.094 -0.2316 -0.1894  0.0360
 1265ERGO    R216509   1.842  12.187   6.117 -0.1375 -0.1212  0.0371
 1265ERGO    R316510   1.846  12.122   6.381 -0.1492 -0.1099  0.0405
 1265ERGO    R416511   1.799  12.412   6.376 -0.2055 -0.1154  0.0213
 1265ERGO    R516512   1.956  12.307   6.486 -0.1935 -0.0815  0.0414
 1265ERGO    C116513   1.777  12.482   6.775 -0.2560 -0.1012  0.0154
 1265ERGO    C216514   1.634  12.745   6.949 -0.0080 -0.3080 -0.0616
 1266ERGO   ROH16515   3.411   6.124   8.844  0.1425 -0.2105 -0.0402
 1266ERGO    R116516   3.377   5.912   8.660 -0.0432 -0.1296 -0.1031
 1266ERGO    R216517   3.200   5.704   8.703 -0.0113 -0.1456 -0.0217
 1266ERGO    R316518   3.105   5.777   8.459 -0.2465 -0.0297  0.1017
 1266ERGO    R416519   3.006   5.503   8.500 -0.1439 -0.0726  0.0324
 1266ERGO    R516520   3.120   5.577   8.328 -0.3149  0.0509 -0.0267
 1266ERGO    C116521   2.804   5.454   8.151 -0.4419  0.0787  0.1797
 1266ERGO    C216522   2.673   5.144   7.957 -0.0537  0.2039 -0.1426
 1267ERGO   ROH16523   0.736  11.257   9.314  0.2992  0.0370 -0.0965
 1267ERGO    R116524   0.785  11.425   9.092 -0.1585  0.2308 -0.0587
 1267ERGO    R216525   0.908  11.336   8.862  0.1327  0.6225 -0.0577
 1267ERGO    R316526   0.686  11.437   8.742 -0.1589  0.0138 -0.0685
 1267ERGO    R416527   0.892  11.444   8.534 -0.1014  0.7058 -0.0219
 1267ERGO    R516528   0.768  11.611   8.600 -0.6289  0.3316  0.0176
 1267ERGO    C116529   0.674  11.601   8.231 -0.5114  0.1827 -0.0113
 1267ERGO    C216530   0.516  11.419   8.002  0.0692  0.0943 -0.1429
 1268ERGO   ROH16531  12.222  14.157   6.289  0.0326  0.1917 -0.0621
 1268ERGO    R116532  12.153  14.074   6.551 -0.0213  0.1175 -0.0986
 1268ERGO    R216533  12.186  13.814   6.638 -0.0550  0.0864 -0.1690
 1268ERGO    R316534  12.327  13.933   6.838 -0.0825  0.0192 -0.1100
 1268ERGO    R416535  12.205  13.698   6.963 -0.1542  0.0182 -0.1879
 1268ERGO    R516536  12.191  13.905   7.032 -0.1332  0.0047 -0.1496
 1268ERGO    C116537  12.348  13.743   7.340 -0.2379 -0.0845 -0.1435
 1268ERGO    C216538  12.471  13.690   7.613  0.0138 -0.1020 -0.1316
 1269ERGO   ROH16539   2.229  10.849   6.175  0.0118 -0.0623 -0.1012
 1269ERGO    R116540   2.209  10.683   6.404  0.0928  0.0985  0.0243
 1269ERGO    R216541   2.079  10.763   6.635  0.0206  0.1955 -0.0502
 1269ERGO    R316542   1.940  10.533   6.598  0.1670  0.0782  0.1122
 1269ERGO    R416543   1.857  10.627   6.862  0.0453  0.2584  0.0124
 1269ERGO    R516544   1.936  10.430   6.814  0.1757  0.2610  0.2015
 1269ERGO    C116545   1.597  10.332   6.960  0.1971  0.1849  0.2013
 1269ERGO    C216546   1.307  10.299   7.215 -0.1368  0.5478  0.0477
 1270ERGO   ROH16547  14.865  11.755   5.981 -0.1502  0.1385 -0.0271
 1270ERGO    R116548  14.957  11.663   6.232 -0.2011  0.1497 -0.0029
 1270ERGO    R216549  14.994  11.832   6.448 -0.2191  0.1673 -0.0053
 1270ERGO    R316550  14.831  11.655   6.574 -0.2622  0.1940 -0.0265
 1270ERGO    R416551  14.991  11.773   6.789 -0.1697  0.0406 -0.0270
 1270ERGO    R516552  14.967  11.560   6.747 -0.2695  0.0729 -0.0937
 1270ERGO    C116553  14.836  11.572   7.105 -0.1814 -0.0083 -0.0596
 1270ERGO    C216554  14.772  11.476   7.340 -0.2673  0.0830 -0.1762
 1271ERGO   ROH16555  10.776   3.650   6.415  0.1307  0.1470 -0.0323
 1271ERGO    R116556  10.902   3.545   6.646  0.1616  0.0574 -0.0886
 1271ERGO    R216557  11.152   3.629   6.729  0.1468  0.0733 -0.0529
 1271ERGO    R316558  11.023   3.677   6.963  0.1400 -0.0755 -0.0256
 1271ERGO    R416559  11.271   3.833   6.982  0.0115  0.1241 -0.0300
 1271ERGO    R516560  11.198   3.687   7.127  0.1520  0.0385 -0.0479
 1271ERGO    C116561  11.218   3.997   7.349 -0.0736  0.0139  0.0089
 1271ERGO    C216562  11.111   4.271   7.482 -0.1150 -0.2217  0.1090
 1272ERGO   ROH16563   4.428   3.646   5.761 -0.2241  0.2245  0.1491
 1272ERGO    R116564   4.329   3.543   6.005 -0.1309  0.3744  0.2497
 1272ERGO    R216565   4.411   3.299   6.109 -0.5410  0.1485  0.0506
 1272ERGO    R316566   4.469   3.449   6.328  0.1032 -0.0462  0.0372
 1272ERGO    R416567   4.438   3.177   6.431 -0.5561 -0.0137 -0.0075
 1272ERGO    R516568   4.334   3.355   6.502 -0.0015  0.2781  0.1464
 1272ERGO    C116569   4.507   3.246   6.824  0.0399 -0.2908 -0.0540
 1272ERGO    C216570   4.558   3.239   7.106 -0.1608  0.1306  0.0456
 1273ERGO   ROH16571   1.752  14.240   8.886  0.0279  0.2452  0.0528
 1273ERGO    R116572   1.693  14.179   8.616 -0.0075  0.0931  0.0938
 1273ERGO    R216573   1.478  14.288   8.482  0.0215  0.0803  0.0370
 1273ERGO    R316574   1.668  14.363   8.303  0.0361 -0.0961 -0.0228
 1273ERGO    R416575   1.415  14.401   8.162  0.0145  0.2350  0.0919
 1273ERGO    R516576   1.586  14.285   8.092 -0.1456  0.0506 -0.0093
 1273ERGO    C116577   1.557  14.536   7.807  0.0242  0.1594  0.0677
 1273ERGO    C216578   1.741  14.551   7.470 -0.2961  0.0125  0.3538
 1274ERGO   ROH16579  13.206   2.209   5.775  0.2148 -0.0169  0.0193
 1274ERGO    R116580  13.100   2.250   6.035  0.3221  0.1370  0.0394
 1274ERGO    R216581  12.934   2.067   6.158 -0.1107  0.4762 -0.0247
 1274ERGO    R316582  13.119   2.082   6.357 -0.0562 -0.0372 -0.0222
 1274ERGO    R416583  12.888   1.950   6.480 -0.4263  0.5347 -0.0456
 1274ERGO    R516584  12.991   2.128   6.554  0.0478  0.2709 -0.0154
 1274ERGO    C116585  13.034   1.896   6.854 -0.5589  0.0869 -0.0554
 1274ERGO    C216586  12.913   1.940   7.201  0.1798 -0.0816 -0.3221
 1275ERGO   ROH16587   0.181  15.791   9.375 -0.0187 -0.0484 -0.1567
 1275ERGO    R116588   0.270  15.730   9.113  0.0308  0.0022 -0.1543
 1275ERGO    R216589   0.113  15.594   8.930  0.1007 -0.0684 -0.1823
 1275ERGO    R316590   0.166  15.810   8.773  0.0141 -0.0281 -0.1515
 1275ERGO    R416591  -0.007  15.640   8.610 -0.1695  0.1110 -0.0571
 1275ERGO    R516592   0.187  15.719   8.553 -0.2141  0.0706 -0.2032
 1275ERGO    C116593  -0.028  15.869   8.276 -0.4081  0.2533  0.0447
 1275ERGO    C216594  -0.067  15.925   7.896 -0.2605 -0.0068 -0.2262
 1276ERGO   ROH16595  14.260   2.751   9.374 -0.0972 -0.0803  0.1680
 1276ERGO    R116596  14.323   2.690   9.105 -0.0166  0.0832  0.1486
 1276ERGO    R216597  14.247   2.454   8.983  0.2273  0.0476  0.0537
 1276ERGO    R316598  14.139   2.621   8.798  0.0713  0.0119  0.1120
 1276ERGO    R416599  14.172   2.365   8.658  0.6464  0.1833 -0.0872
 1276ERGO    R516600  14.246   2.560   8.593  0.3498  0.3793  0.1395
 1276ERGO    C116601  14.026   2.470   8.295  0.7437  0.2288 -0.1145
 1276ERGO    C216602  14.002   2.339   8.089  0.0641 -0.0164 -0.2865
 1277ERGO   ROH16603   3.380   6.197   5.892  0.0444  0.0236  0.0975
 1277ERGO    R116604   3.391   6.203   6.175  0.2027 -0.2408  0.0994
 1277ERGO    R216605   3.166   6.227   6.332  0.3296  0.1941  0.2265
 1277ERGO    R316606   3.262   6.001   6.449 -0.1694 -0.1594 -0.0106
 1277ERGO    R416607   3.124   6.145   6.665  0.4741  0.1332  0.2308
 1277ERGO    R516608   3.330   6.072   6.668  0.2898 -0.4621 -0.0414
 1277ERGO    C116609   3.189   5.885   6.969  0.0898 -0.2342  0.0106
 1277ERGO    C216610   3.060   5.786   7.251 -0.1467 -0.0488  0.0770
 1278ERGO   ROH16611  10.576   0.058   9.400 -0.0083 -0.1294  0.0823
 1278ERGO    R116612  10.468   0.054   9.138 -0.1529  0.0483  0.1379
 1278ERGO    R216613  10.498   0.265   8.962  0.0181  0.0407  0.1604
 1278ERGO    R316614  10.597   0.072   8.799 -0.3096 -0.0593  0.0708
 1278ERGO    R416615  10.592   0.313   8.633  0.1762  0.0607  0.2072
 1278ERGO    R516616  10.503   0.120   8.584 -0.1810  0.2467  0.0763
 1278ERGO    C116617  10.740   0.159   8.288 -0.0393 -0.0217  0.1503
 1278ERGO    C216618  10.837   0.269   8.016  0.1368  0.1070 -0.1402
 1279ERGO   ROH16619  11.004   1.048   9.290  0.2128 -0.2616  0.0262
 1279ERGO    R116620  11.129   0.989   9.043 -0.0069 -0.1463 -0.1136
 1279ERGO    R216621  11.011   1.047   8.800 -0.1208  0.1841  0.0205
 1279ERGO    R316622  11.244   1.178   8.753 -0.0323  0.0163 -0.0215
 1279ERGO    R416623  11.114   1.161   8.490 -0.1140  0.1158 -0.0030
 1279ERGO    R516624  11.317   1.096   8.540 -0.1424 -0.0368 -0.0457
 1279ERGO    C116625  11.394   1.351   8.267 -0.0269 -0.0815 -0.0562
 1279ERGO    C216626  11.485   1.676   7.930  0.2608 -0.0262 -0.0330
 1280ERGO   ROH16627  14.084   8.062   9.986  0.1657 -0.0889  0.0356
 1280ERGO    R116628  14.072   8.123   9.710  0.1795 -0.0493  0.0429
 1280ERGO    R216629  14.298   8.161   9.555  0.1911 -0.0489  0.0517
 1280ERGO    R316630  14.185   7.970   9.400  0.1752 -0.0191  0.0280
 1280ERGO    R416631  14.366   8.113   9.220  0.3044 -0.1248  0.0855
 1280ERGO    R516632  14.154   8.075   9.187  0.3065 -0.0382  0.0028
 1280ERGO    C116633  14.298   7.905   8.878  0.3554 -0.1410  0.0829
 1280ERGO    C216634  14.426   7.973   8.498  0.0590 -0.1228  0.2898
 1281ERGO   ROH16635  17.106   0.737   9.693 -0.0701 -0.2017 -0.0641
 1281ERGO    R116636  17.006   0.932   9.514  0.1118 -0.1056 -0.0638
 1281ERGO    R216637  17.160   1.044   9.314  0.1543 -0.4297 -0.2201
 1281ERGO    R316638  16.957   0.960   9.154 -0.1029 -0.1689 -0.0411
 1281ERGO    R416639  17.076   1.186   9.010  0.2020 -0.4462 -0.2413
 1281ERGO    R516640  16.866   1.162   9.063  0.1857 -0.0540 -0.0874
 1281ERGO    C116641  16.836   1.190   8.684 -0.0118 -0.2111 -0.0856
 1281ERGO    C216642  16.760   1.290   8.341 -0.0397  0.2129 -0.0394
 1282ERGO   ROH16643   2.068   0.849   5.990 -0.1600 -0.4483  0.0921
 1282ERGO    R116644   2.015   0.989   6.230 -0.0796 -0.3707  0.0648
 1282ERGO    R216645   1.947   0.861   6.465  0.0786 -0.3002  0.1500
 1282ERGO    R316646   2.156   1.003   6.565  0.0880 -0.1972 -0.0110
 1282ERGO    R416647   2.057   0.846   6.792  0.1113  0.0283  0.1578
 1282ERGO    R516648   2.088   1.062   6.786  0.1097  0.0251 -0.0614
 1282ERGO    C116649   2.318   0.970   7.077  0.1391  0.3164  0.0111
 1282ERGO    C216650   2.581   1.009   7.378  0.2772  0.1981 -0.1247
 1283ERGO   ROH16651   8.667  16.599   6.065  0.3438 -0.1947  0.0633
 1283ERGO    R116652   8.600  16.721   6.311  0.2320 -0.0834 -0.0186
 1283ERGO    R216653   8.608  16.586   6.552 -0.0659 -0.0349  0.0334
 1283ERGO    R316654   8.770  16.792   6.626  0.0330 -0.1375  0.0999
 1283ERGO    R416655   8.635  16.711   6.873 -0.0176 -0.1225  0.0623
 1283ERGO    R516656   8.642  16.912   6.789  0.0922 -0.1120  0.1179
 1283ERGO    C116657   8.802  16.978   7.129  0.1034 -0.2699  0.1417
 1283ERGO    C216658   8.957  17.155   7.363  0.3380 -0.1687  0.2424
 1284ERGO   ROH16659   1.016  13.629   9.147 -0.2970  0.1581 -0.0431
 1284ERGO    R116660   0.844  13.539   8.941 -0.3284  0.2639 -0.0638
 1284ERGO    R216661   0.740  13.708   8.749  0.0344  0.2798 -0.2512
 1284ERGO    R316662   0.850  13.527   8.578 -0.1494 -0.0253 -0.0555
 1284ERGO    R416663   0.685  13.700   8.408  0.3259  0.2167 -0.3000
 1284ERGO    R516664   0.676  13.482   8.419 -0.1013  0.2283 -0.1884
 1284ERGO    C116665   0.755  13.525   8.049  0.3230 -0.1065 -0.1446
 1284ERGO    C216666   0.529  13.519   7.824  0.0611 -0.0157  0.0520
 1285ERGO   ROH16667  10.906   1.686   6.456  0.1927 -0.1468  0.0646
 1285ERGO    R116668  10.865   1.909   6.627  0.1361 -0.1286  0.0260
 1285ERGO    R216669  10.760   1.884   6.881 -0.0013 -0.0940 -0.0308
 1285ERGO    R316670  10.986   2.018   6.952 -0.0201 -0.1198  0.0831
 1285ERGO    R416671  10.809   2.041   7.185 -0.0204 -0.3657  0.1168
 1285ERGO    R516672  10.906   2.205   7.079 -0.0511 -0.2473  0.2605
 1285ERGO    C116673  11.049   2.259   7.429 -0.0490 -0.5481  0.3096
 1285ERGO    C216674  10.947   2.437   7.671  0.2008  0.0904 -0.0435
 1286ERGO   ROH16675  15.606  18.013   6.016  0.1205 -0.1289  0.1275
 1286ERGO    R116676  15.726  17.856   6.219  0.0728 -0.1079  0.1733
 1286ERGO    R216677  15.908  17.960   6.400  0.1253 -0.1158  0.1298
 1286ERGO    R316678  15.735  17.856   6.583  0.0932  0.0121  0.1724
 1286ERGO    R416679  16.000  17.764   6.669  0.0245 -0.3808 -0.0253
 1286ERGO    R516680  15.825  17.640   6.632 -0.1605 -0.1337  0.0074
 1286ERGO    C116681  15.892  17.552   6.998 -0.0643 -0.4149 -0.0757
 1286ERGO    C216682  15.798  17.474   7.283  0.2921  0.2408 -0.1195
 1287ERGO   ROH16683   8.104   3.210   9.010 -0.0295  0.0763 -0.0302
 1287ERGO    R116684   8.269   3.118   8.799  0.0187  0.0250  0.0279
 1287ERGO    R216685   8.179   3.097   8.538  0.0507 -0.1218  0.0249
 1287ERGO    R316686   8.395   3.252   8.485  0.0104 -0.0829 -0.0211
 1287ERGO    R416687   8.318   3.140   8.225 -0.0915 -0.0051 -0.0224
 1287ERGO    R516688   8.515   3.130   8.317 -0.0511 -0.0144 -0.1135
 1287ERGO    C116689   8.602   3.311   7.992 -0.2123  0.0995 -0.0930
 1287ERGO    C216690   8.558   3.274   7.670  0.0638 -0.1336  0.0781
 1288ERGO   ROH16691   1.491   3.562   9.624  0.2121 -0.0716  0.0906
 1288ERGO    R116692   1.533   3.449   9.368  0.0903  0.0103  0.0340
 1288ERGO    R216693   1.336   3.446   9.173  0.0233  0.1441  0.0990
 1288ERGO    R316694   1.529   3.566   9.024  0.0103  0.1393  0.0778
 1288ERGO    R416695   1.334   3.467   8.829  0.0939 -0.0452  0.0853
 1288ERGO    R516696   1.548   3.428   8.829  0.1103  0.0398  0.1568
 1288ERGO    C116697   1.513   3.593   8.487  0.1228 -0.1600  0.0574
 1288ERGO    C216698   1.404   3.641   8.226 -0.2326  0.1247 -0.2374
 1289ERGO   ROH16699  15.864   2.315   9.576  0.0530  0.0095 -0.0168
 1289ERGO    R116700  15.914   2.348   9.300  0.1043 -0.1542 -0.0281
 1289ERGO    R216701  15.871   2.147   9.115 -0.2146 -0.1491  0.0346
 1289ERGO    R316702  15.720   2.336   8.992  0.0779  0.0558 -0.0212
 1289ERGO    R416703  15.837   2.181   8.773 -0.1490 -0.1867  0.0241
 1289ERGO    R516704  15.846   2.397   8.798  0.1827 -0.1891 -0.0334
 1289ERGO    C116705  15.675   2.379   8.458  0.1637 -0.0162 -0.0344
 1289ERGO    C216706  15.682   2.286   8.069  0.2734 -0.0659 -0.1045
 1290ERGO   ROH16707  13.890  15.765   9.344  0.0253  0.0486 -0.1238
 1290ERGO    R116708  13.988  15.824   9.085  0.0884 -0.0674 -0.1274
 1290ERGO    R216709  14.049  15.627   8.901 -0.0378 -0.1471 -0.0904
 1290ERGO    R316710  13.879  15.768   8.742  0.0729 -0.0514 -0.1237
 1290ERGO    R416711  14.025  15.592   8.558  0.0509 -0.0782 -0.1035
 1290ERGO    R516712  14.005  15.809   8.543  0.1480 -0.0719 -0.0768
 1290ERGO    C116713  13.852  15.705   8.209  0.2065  0.0519 -0.1425
 1290ERGO    C216714  13.813  15.712   7.838 -0.2396  0.1370 -0.1790
 1291ERGO   ROH16715   1.815   0.029   9.085 -0.2303  0.2812  0.0398
 1291ERGO    R116716   1.879   0.187   8.859  0.1653  0.3049  0.1603
 1291ERGO    R216717   2.139   0.222   8.770  0.2690 -0.3186  0.1592
 1291ERGO    R316718   2.037   0.134   8.535 -0.0153  0.1382  0.0994
 1291ERGO    R416719   2.254   0.314   8.458  0.3905 -0.2946  0.2110
 1291ERGO    R516720   2.047   0.324   8.390  0.3853  0.2555  0.2748
 1291ERGO    C116721   2.225   0.285   8.055  0.1943  0.1482  0.1850
 1291ERGO    C216722   2.431   0.201   7.668  0.1753 -0.0097  0.0962
 1292ERGO   ROH16723   5.473  11.979   5.910 -0.0935  0.2846 -0.2062
 1292ERGO    R116724   5.334  12.152   6.086  0.1002  0.3312 -0.0964
 1292ERGO    R216725   5.281  12.084   6.348 -0.1999  0.1092 -0.2094
 1292ERGO    R316726   5.405  12.320   6.402  0.2025 -0.1700  0.1590
 1292ERGO    R416727   5.292  12.234   6.659 -0.8636  0.0966 -0.1660
 1292ERGO    R516728   5.261  12.427   6.561 -0.0920  0.1784 -0.3123
 1292ERGO    C116729   5.415  12.544   6.891 -0.8722 -0.1729  0.2051
 1292ERGO    C216730   5.364  12.674   7.258  0.1663  0.0630 -0.0498
 1293ERGO   ROH16731   8.943   1.815   6.462  0.3050  0.0334  0.2362
 1293ERGO    R116732   8.803   1.908   6.689  0.2789  0.0774  0.2029
 1293ERGO    R216733   8.739   1.744   6.902  0.0119  0.0502  0.1084
 1293ERGO    R316734   8.867   1.935   7.046  0.1279 -0.1296  0.2467
 1293ERGO    R416735   8.631   1.869   7.206 -0.0606  0.0992  0.0626
 1293ERGO    R516736   8.691   2.067   7.141  0.2113  0.0476  0.1537
 1293ERGO    C116737   8.689   2.121   7.518  0.0061 -0.0410  0.1658
 1293ERGO    C216738   8.685   2.242   7.981  0.2012  0.3093  0.0157
 1294ERGO   ROH16739  11.326  10.785   9.510  0.0870 -0.1523  0.0419
 1294ERGO    R116740  11.116  10.617   9.420  0.2240 -0.2191 -0.1577
 1294ERGO    R216741  10.850  10.692   9.432  0.1413 -0.5406  0.1556
 1294ERGO    R316742  10.855  10.635   9.167  0.0531 -0.0146  0.0286
 1294ERGO    R416743  10.578  10.586   9.247  0.2020 -0.7276  0.1701
 1294ERGO    R516744  10.708  10.447   9.143  0.4086 -0.2737 -0.2130
 1294ERGO    C116745  10.424  10.471   8.890  0.1545 -0.3427  0.0594
 1294ERGO    C216746  10.269  10.417   8.523 -0.0399  0.0372 -0.3563
 1295ERGO   ROH16747   5.973   7.918   5.993  0.0781  0.1541  0.0986
 1295ERGO    R116748   6.040   7.701   6.161  0.0570  0.1641  0.1197
 1295ERGO    R216749   6.194   7.730   6.389 -0.0336  0.1899  0.1771
 1295ERGO    R316750   5.982   7.608   6.509 -0.0546  0.1470  0.0973
 1295ERGO    R416751   6.208   7.560   6.690 -0.0821  0.0715  0.1132
 1295ERGO    R516752   6.075   7.409   6.605 -0.0728  0.1066  0.0336
 1295ERGO    C116753   6.018   7.346   6.977 -0.1301 -0.0377  0.0012
 1295ERGO    C216754   5.800   7.286   7.263 -0.2854  0.0867  0.1756
 1296ERGO   ROH16755  18.017   6.022   6.422  0.1220  0.2318  0.3232
 1296ERGO    R116756  18.015   5.796   6.592  0.0428  0.1434  0.2056
 1296ERGO    R216757  18.197   5.763   6.797 -0.0236  0.0147  0.2408
 1296ERGO    R316758  17.972   5.734   6.948 -0.0706 -0.0386  0.1621
 1296ERGO    R416759  18.192   5.647   7.122 -0.0964  0.0898  0.2674
 1296ERGO    R516760  18.012   5.534   7.074 -0.0356  0.0045  0.2243
 1296ERGO    C116761  17.978   5.551   7.453 -0.1830  0.0834  0.2091
 1296ERGO    C216762  18.114   5.625   7.740  0.0741 -0.1151  0.6225
 1297ERGO   ROH16763   2.157   8.677   9.044 -0.0891 -0.1667  0.0166
 1297ERGO    R116764   2.248   8.614   8.784  0.0304  0.0628  0.0000
 1297ERGO    R216765   2.096   8.471   8.603  0.2864 -0.1749 -0.0378
 1297ERGO    R316766   2.143   8.685   8.443 -0.1008 -0.0393  0.0189
 1297ERGO    R416767   2.076   8.467   8.258  0.2316 -0.0982 -0.0353
 1297ERGO    R516768   2.255   8.593   8.252  0.0232  0.2059 -0.0303
 1297ERGO    C116769   2.109   8.666   7.906 -0.1638  0.0738  0.0193
 1297ERGO    C216770   2.076   8.882   7.620  0.0551  0.2250  0.1473
 1298ERGO   ROH16771   9.972   5.218   9.334 -0.1844  0.0989 -0.0446
 1298ERGO    R116772   9.853   5.254   9.080 -0.0848 -0.0647 -0.1142
 1298ERGO    R216773   9.960   5.147   8.849 -0.0907 -0.3569  0.0264
 1298ERGO    R316774   9.711   5.041   8.822 -0.1560 -0.2156  0.0432
 1298ERGO    R416775   9.795   5.105   8.548 -0.1861 -0.1077  0.0396
 1298ERGO    R516776   9.611   5.169   8.646 -0.1351 -0.0592  0.1316
 1298ERGO    C116777   9.466   4.980   8.347 -0.3030  0.1700  0.0632
 1298ERGO    C216778   9.472   4.899   8.021  0.2202  0.0550  0.3345
 1299ERGO   ROH16779   4.057  10.839   8.859 -0.1055  0.1281 -0.2123
 1299ERGO    R116780   3.919  10.697   8.657  0.0787 -0.1047 -0.1761
 1299ERGO    R216781   3.811  10.822   8.435 -0.2650 -0.2696 -0.0911
 1299ERGO    R316782   3.960  10.640   8.300  0.0281  0.0429 -0.2112
 1299ERGO    R416783   3.776  10.749   8.099 -0.4370 -0.3525 -0.0586
 1299ERGO    R516784   3.806  10.538   8.147  0.0807 -0.3107 -0.0586
 1299ERGO    C116785   3.896  10.534   7.777 -0.2620 -0.1074 -0.1522
 1299ERGO    C216786   3.824  10.252   7.389 -0.1196 -0.1513 -0.1218
 1300ERGO   ROH16787  17.700   2.516   6.328  0.0722  0.1843 -0.1476
 1300ERGO    R116788  17.716   2.603   6.597  0.0289  0.0538 -0.1019
 1300ERGO    R216789  17.493   2.665   6.748  0.0099  0.0990 -0.1476
 1300ERGO    R316790  17.600   2.485   6.921 -0.1383 -0.0355 -0.1933
 1300ERGO    R416791  17.396   2.626   7.077  0.1461  0.2701 -0.0858
 1300ERGO    R516792  17.606   2.600   7.130  0.1465 -0.0180 -0.2067
 1300ERGO    C116793  17.440   2.434   7.431  0.0864  0.2434 -0.0928
 1300ERGO    C216794  17.333   2.129   7.649 -0.0564  0.3950 -0.0067
 1301ERGO   ROH16795   6.652  18.457   9.202 -0.1660 -0.0893 -0.0964
 1301ERGO    R116796   6.504  18.537   8.974 -0.0370 -0.0989 -0.1845
 1301ERGO    R216797   6.565  18.764   8.828 -0.0246 -0.0404 -0.0902
 1301ERGO    R316798   6.572  18.588   8.620  0.1943  0.0077 -0.1265
 1301ERGO    R416799   6.522  18.847   8.495 -0.1701 -0.0290 -0.0689
 1301ERGO    R516800   6.404  18.666   8.470  0.0703 -0.1877 -0.0937
 1301ERGO    C116801   6.503  18.730   8.107 -0.0493  0.0225 -0.0907
 1301ERGO    C216802   6.537  18.754   7.733 -0.1364  0.2604  0.2082
 1302ERGO   ROH16803   7.297  17.439   5.844  0.2494 -0.0678 -0.0544
 1302ERGO    R116804   7.312  17.362   6.115  0.1459 -0.0281 -0.0369
 1302ERGO    R216805   7.372  17.540   6.318  0.0416  0.0066 -0.0365
 1302ERGO    R316806   7.140  17.447   6.424  0.0080 -0.0046 -0.1190
 1302ERGO    R416807   7.261  17.607   6.638  0.0945 -0.2789  0.0448
 1302ERGO    R516808   7.194  17.400   6.653  0.0049 -0.2688 -0.1683
 1302ERGO    C116809   6.978  17.559   6.924  0.0937 -0.4558  0.0147
 1302ERGO    C216810   6.592  17.785   7.014 -0.0902  0.0630  0.2886
 1303ERGO   ROH16811  14.058   7.235   6.149 -0.0428 -0.2201  0.1257
 1303ERGO    R116812  13.921   7.298   6.389 -0.0802 -0.2052  0.1017
 1303ERGO    R216813  13.800   7.105   6.546 -0.0849 -0.2020  0.1118
 1303ERGO    R316814  13.954   7.215   6.741 -0.1151 -0.1643  0.1130
 1303ERGO    R416815  13.763   7.045   6.884 -0.1067 -0.1516  0.1177
 1303ERGO    R516816  13.802   7.256   6.921 -0.1283 -0.1502  0.0922
 1303ERGO    C116817  13.887   7.113   7.265 -0.1478 -0.0868  0.1224
 1303ERGO    C216818  13.811   7.164   7.603  0.3528 -0.0770  0.0336
 1304ERGO   ROH16819   1.348  11.714   5.763  0.0419  0.0271 -0.0327
 1304ERGO    R116820   1.411  11.785   6.030 -0.0310  0.0123 -0.0110
 1304ERGO    R216821   1.277  11.681   6.248  0.0143 -0.1216 -0.0454
 1304ERGO    R316822   1.528  11.614   6.329  0.0508  0.0238 -0.0364
 1304ERGO    R416823   1.387  11.685   6.576  0.0293  0.0276 -0.0514
 1304ERGO    R516824   1.576  11.767   6.507 -0.0145  0.0990 -0.0838
 1304ERGO    C116825   1.686  11.624   6.843  0.0723  0.2511 -0.0465
 1304ERGO    C216826   1.804  11.459   7.213 -0.2131  0.0078 -0.1047
 1305ERGO   ROH16827  12.985   1.726   9.392 -0.0235 -0.3005  0.0943
 1305ERGO    R116828  13.049   1.580   9.158 -0.1395 -0.2501  0.0295
 1305ERGO    R216829  12.857   1.483   8.985 -0.2192 -0.0412 -0.0036
 1305ERGO    R316830  13.001   1.620   8.800 -0.1303 -0.0649  0.0482
 1305ERGO    R416831  12.825   1.445   8.643 -0.0997 -0.0373 -0.0151
 1305ERGO    R516832  13.042   1.460   8.627 -0.0920 -0.0712  0.0639
 1305ERGO    C116833  12.943   1.551   8.270  0.0533 -0.0573  0.0270
 1305ERGO    C216834  12.716   1.503   7.987 -0.1018 -0.2226 -0.1804
 1306ERGO   ROH16835   3.806  11.488   6.071  0.3301  0.0824 -0.0160
 1306ERGO    R116836   3.700  11.302   6.256  0.3805 -0.0336 -0.1035
 1306ERGO    R216837   3.855  11.177   6.447  0.3549  0.1681  0.0481
 1306ERGO    R316838   3.669  11.276   6.618  0.0714 -0.0462 -0.1274
 1306ERGO    R416839   3.880  11.169   6.791  0.0110  0.1355  0.0750
 1306ERGO    R516840   3.667  11.121   6.800  0.0416 -0.0831 -0.1548
 1306ERGO    C116841   3.718  11.257   7.153 -0.4555 -0.0847 -0.0740
 1306ERGO    C216842   3.814  11.332   7.421  0.3054  0.0786 -0.3019
 1307ERGO   ROH16843  11.736  15.460   5.920 -0.0749 -0.2475  0.3020
 1307ERGO    R116844  11.741  15.650   6.130 -0.0323 -0.1937  0.2534
 1307ERGO    R216845  11.877  15.606   6.367  0.0784 -0.1020  0.2096
 1307ERGO    R316846  11.994  15.844   6.305 -0.0044 -0.0896  0.0989
 1307ERGO    R416847  12.097  15.778   6.571  0.0251  0.0690  0.1248
 1307ERGO    R516848  11.999  15.963   6.513 -0.0390  0.0079  0.0427
 1307ERGO    C116849  12.335  16.100   6.632 -0.0835  0.1801 -0.0284
 1307ERGO    C216850  12.464  16.143   6.847 -0.4478 -0.1349  0.4835
 1308ERGO   ROH16851   2.515   5.183   5.937 -0.2955 -0.2716  0.1565
 1308ERGO    R116852   2.686   5.187   6.162 -0.1021 -0.1386  0.0110
 1308ERGO    R216853   2.685   5.393   6.346  0.0927 -0.0033 -0.1330
 1308ERGO    R316854   2.647   5.191   6.524  0.2041  0.1303  0.0459
 1308ERGO    R416855   2.743   5.416   6.686 -0.1825  0.4155 -0.1058
 1308ERGO    R516856   2.827   5.214   6.680  0.0647  0.5041  0.1615
 1308ERGO    C116857   2.742   5.239   7.051 -0.2381  0.7848  0.0781
 1308ERGO    C216858   2.757   5.152   7.392 -0.0366 -0.2619 -0.4835
 1309ERGO   ROH16859  11.650  10.926   6.085 -0.2463 -0.0351  0.1030
 1309ERGO    R116860  11.580  11.001   6.349 -0.1394 -0.0992  0.1507
 1309ERGO    R216861  11.598  10.827   6.564  0.0397 -0.1241  0.1202
 1309ERGO    R316862  11.750  11.026   6.670  0.0189 -0.0796  0.0658
 1309ERGO    R416863  11.693  10.847   6.895  0.0764 -0.0438  0.1047
 1309ERGO    R516864  11.657  11.062   6.888  0.0406 -0.0533  0.0689
 1309ERGO    C116865  11.891  11.045   7.188  0.0783  0.0448  0.0445
 1309ERGO    C216866  12.017  11.178   7.417  0.0910 -0.1439 -0.0289
 1310ERGO   ROH16867  12.209  14.505   7.642  0.0579 -0.0707 -0.0454
 1310ERGO    R116868  12.164  14.772   7.558 -0.0808  0.0091  0.2656
 1310ERGO    R216869  12.039  14.833   7.319  0.4415  0.2066  0.0280
 1310ERGO    R316870  11.875  14.979   7.479 -0.1780 -0.2656 -0.1339
 1310ERGO    R416871  11.844  15.096   7.211  0.7546  0.4401  0.0159
 1310ERGO    R516872  11.896  15.203   7.395  0.0847 -0.0191  0.5198
 1310ERGO    C116873  11.576  15.388   7.298  0.3555  0.1327 -0.1431
 1310ERGO    C216874  11.320  15.481   7.045 -0.1121  0.1088 -0.0160
 1311ERGO   ROH16875  10.566  10.419   6.207  0.1786 -0.0920 -0.0872
 1311ERGO    R116876  10.510  10.496   6.474  0.0866  0.0032 -0.1328
 1311ERGO    R216877  10.515  10.317   6.685 -0.0212  0.0700 -0.0701
 1311ERGO    R316878  10.688  10.497   6.791 -0.0349  0.0789 -0.0648
 1311ERGO    R416879  10.586  10.348   7.022  0.2389 -0.1685 -0.1000
 1311ERGO    R516880  10.585  10.564   6.997  0.0964 -0.1472  0.0773
 1311ERGO    C116881  10.790  10.536   7.317  0.3777 -0.2989 -0.1124
 1311ERGO    C216882  10.925  10.581   7.661  0.1086 -0.0730  0.0023
 1312ERGO   ROH16883   0.061   3.414   6.044  0.3237  0.0474  0.1419
 1312ERGO    R116884   0.052   3.439   6.325  0.2193  0.0726  0.1366
 1312ERGO    R216885  -0.156   3.564   6.457  0.1373  0.0247  0.0526
 1312ERGO    R316886  -0.168   3.329   6.594  0.1590  0.0348  0.0719
 1312ERGO    R416887  -0.352   3.508   6.737 -0.0845 -0.0600 -0.1164
 1312ERGO    R516888  -0.186   3.395   6.823 -0.0915  0.0539  0.0491
 1312ERGO    C116889  -0.476   3.255   7.028 -0.1934 -0.1000 -0.1968
 1312ERGO    C216890  -0.726   3.401   7.142  0.1034 -0.0009  0.1633
 1313ERGO   ROH16891  10.239   7.461   6.235  0.2058  0.1066 -0.0465
 1313ERGO    R116892  10.314   7.617   6.459  0.1440  0.0922 -0.0161
 1313ERGO    R216893  10.232   7.879   6.491  0.0392  0.0508  0.0365
 1313ERGO    R316894  10.144   7.788   6.731  0.0780 -0.0300  0.0210
 1313ERGO    R416895  10.247   8.057   6.787 -0.0199  0.0031  0.0688
 1313ERGO    R516896  10.303   7.873   6.889  0.0527  0.0016  0.0330
 1313ERGO    C116897  10.173   8.075   7.185 -0.0177 -0.1004  0.0731
 1313ERGO    C216898  10.378   8.223   7.313 -0.2400  0.3351  0.1488
 1314ERGO   ROH16899   5.941   2.533   9.537  0.2449 -0.0784 -0.0580
 1314ERGO    R116900   5.974   2.670   9.291  0.0875 -0.0756 -0.0788
 1314ERGO    R216901   6.206   2.652   9.141  0.0709  0.0918 -0.1230
 1314ERGO    R316902   6.034   2.579   8.944  0.0889 -0.0624 -0.0827
 1314ERGO    R416903   6.282   2.648   8.804 -0.0365  0.2899 -0.1512
 1314ERGO    R516904   6.084   2.728   8.763 -0.1559  0.0591 -0.0564
 1314ERGO    C116905   6.165   2.577   8.423 -0.0822  0.2606 -0.1298
 1314ERGO    C216906   6.382   2.417   8.193  0.0146 -0.0649 -0.3052
 1315ERGO   ROH16907   0.627  11.225   6.070 -0.1270 -0.2577  0.1173
 1315ERGO    R116908   0.607  11.352   6.322 -0.0699 -0.1268  0.0569
 1315ERGO    R216909   0.494  11.229   6.542 -0.0326 -0.0074  0.1422
 1315ERGO    R316910   0.730  11.292   6.659 -0.0068  0.0408  0.0651
 1315ERGO    R416911   0.530  11.323   6.872  0.0483  0.0176  0.1263
 1315ERGO    R516912   0.676  11.472   6.808  0.0042  0.0411  0.0715
 1315ERGO    C116913   0.773  11.438   7.175  0.1197  0.0775  0.0448
 1315ERGO    C216914   0.571  11.383   7.441  0.0527 -0.0510  0.0804
 1316ERGO   ROH16915   1.857  14.875   5.745  0.2424  0.0978 -0.0357
 1316ERGO    R116916   1.878  15.063   5.955  0.0986  0.0185  0.0519
 1316ERGO    R216917   1.827  14.998   6.219  0.0879 -0.1273  0.0162
 1316ERGO    R316918   2.076  15.099   6.258  0.0252 -0.0035  0.1019
 1316ERGO    R416919   1.917  15.208   6.478 -0.0916 -0.1099  0.0662
 1316ERGO    R516920   2.039  15.321   6.338 -0.1091 -0.0323  0.1171
 1316ERGO    C116921   2.204  15.425   6.666 -0.2551  0.0165  0.1759
 1316ERGO    C216922   2.357  15.580   6.978  0.0037 -0.1410  0.3520
 1317ERGO   ROH16923   6.160  14.487   5.975 -0.0818 -0.0573  0.0147
 1317ERGO    R116924   6.125  14.500   6.256  0.0004  0.0384  0.0207
 1317ERGO    R216925   6.263  14.679   6.415 -0.0291  0.1620 -0.0939
 1317ERGO    R316926   6.013  14.748   6.498 -0.0338  0.0848 -0.0417
 1317ERGO    R416927   6.193  14.878   6.689 -0.0347  0.0453 -0.0097
 1317ERGO    R516928   6.027  14.746   6.737 -0.0069 -0.0047 -0.0425
 1317ERGO    C116929   5.918  15.058   6.926 -0.0425 -0.0951  0.0883
 1317ERGO    C216930   5.779  15.393   7.123  0.0156  0.0855  0.2642
 1318ERGO   ROH16931  11.120   5.873   9.422 -0.3177 -0.0419  0.1149
 1318ERGO    R116932  11.187   5.938   9.154 -0.3077  0.1464  0.1631
 1318ERGO    R216933  11.227   5.746   8.960  0.1334  0.2626  0.1357
 1318ERGO    R316934  11.039   5.890   8.826 -0.0675 -0.0420  0.0778
 1318ERGO    R416935  11.179   5.738   8.618 -0.0072 -0.1179  0.1588
 1318ERGO    R516936  11.147   5.953   8.622 -0.2111 -0.1337 -0.0348
 1318ERGO    C116937  10.975   5.868   8.292 -0.2776 -0.6255  0.1180
 1318ERGO    C216938  10.949   5.901   8.019  0.0838  0.1711  0.0186
 1319ERGO   ROH16939   2.626  11.877   9.174  0.0024 -0.2438  0.2231
 1319ERGO    R116940   2.495  11.649   9.070 -0.0478 -0.1388  0.0534
 1319ERGO    R216941   2.292  11.667   8.883  0.0173  0.0393 -0.0024
 1319ERGO    R316942   2.450  11.497   8.742  0.0004  0.0603 -0.0471
 1319ERGO    R416943   2.266  11.608   8.543  0.0485  0.1730 -0.0284
 1319ERGO    R516944   2.303  11.397   8.582  0.0006  0.1508 -0.1038
 1319ERGO    C116945   2.400  11.414   8.213  0.0509  0.2706 -0.0854
 1319ERGO    C216946   2.451  11.218   7.922  0.2274 -0.3405 -0.0420
 1320ERGO   ROH16947   6.647  18.057   8.959 -0.0965  0.2304  0.1315
 1320ERGO    R116948   6.733  18.103   8.694 -0.0291  0.0367  0.1173
 1320ERGO    R216949   6.645  17.953   8.480 -0.1492  0.0204  0.1725
 1320ERGO    R316950   6.579  18.195   8.378  0.0793  0.0408  0.0664
 1320ERGO    R416951   6.539  18.008   8.155 -0.4524 -0.0721  0.2526
 1320ERGO    R516952   6.660  18.190   8.152 -0.1932 -0.2461 -0.0278
 1320ERGO    C116953   6.415  18.269   7.871 -0.4145 -0.1068  0.1997
 1320ERGO    C216954   6.171  18.316   7.585 -0.3931 -0.1858 -0.3482
 1321ERGO   ROH16955   2.439   7.574   9.016 -0.0547 -0.0540  0.1570
 1321ERGO    R116956   2.455   7.479   8.750 -0.1532 -0.0107  0.1350
 1321ERGO    R216957   2.273   7.551   8.555 -0.0966  0.2007  0.1567
 1321ERGO    R316958   2.496   7.624   8.419 -0.0325  0.0256  0.1657
 1321ERGO    R416959   2.289   7.600   8.213 -0.0634  0.2617  0.1672
 1321ERGO    R516960   2.484   7.502   8.213 -0.1521  0.0820  0.1391
 1321ERGO    C116961   2.509   7.698   7.887  0.0161  0.1328  0.1818
 1321ERGO    C216962   2.469   7.678   7.641  0.2889 -0.1260  0.2402
 1322ERGO   ROH16963   5.144  15.086   6.019 -0.1101 -0.1296  0.1443
 1322ERGO    R116964   5.353  15.015   6.196 -0.1565  0.0809  0.2892
 1322ERGO    R216965   5.325  15.024   6.471 -0.4311 -0.1560  0.2794
 1322ERGO    R316966   5.407  14.765   6.455 -0.0054 -0.0205  0.1596
 1322ERGO    R416967   5.436  14.835   6.738 -0.2514 -0.1479  0.2104
 1322ERGO    R516968   5.590  14.751   6.609 -0.0544  0.1772  0.2328
 1322ERGO    C116969   5.577  14.482   6.879  0.2528 -0.0159  0.0579
 1322ERGO    C216970   5.605  14.133   7.009 -0.0157 -0.0612  0.0688
 1323ERGO   ROH16971   6.952  14.230   9.281  0.2580  0.0393 -0.0290
 1323ERGO    R116972   6.790  14.187   9.053  0.1105 -0.1182  0.1026
 1323ERGO    R216973   6.871  14.257   8.797 -0.1648 -0.0395  0.0354
 1323ERGO    R316974   6.815  13.997   8.744  0.0422 -0.0965  0.0831
 1323ERGO    R416975   6.823  14.125   8.482  0.1400 -0.1793  0.0436
 1323ERGO    R516976   6.661  14.005   8.562  0.1613 -0.2587 -0.0281
 1323ERGO    C116977   6.742  13.803   8.248  0.5118 -0.3142  0.0933
 1323ERGO    C216978   6.708  13.770   7.869 -0.2047  0.0700 -0.2458
 1324ERGO   ROH16979  11.712  16.092   9.569 -0.1533  0.0957 -0.0430
 1324ERGO    R116980  11.910  16.050   9.371 -0.1281  0.1878 -0.0382
 1324ERGO    R216981  11.857  15.919   9.134 -0.0524  0.1273 -0.0244
 1324ERGO    R316982  11.960  16.145   9.024 -0.1860  0.1772 -0.0488
 1324ERGO    R416983  11.893  15.975   8.795 -0.1392  0.1444 -0.0310
 1324ERGO    R516984  12.086  16.067   8.835 -0.1810  0.2412 -0.0690
 1324ERGO    C116985  12.010  16.220   8.494 -0.3153  0.2011 -0.0577
 1324ERGO    C216986  12.155  16.296   8.231  0.0255 -0.0636  0.0363
 1325ERGO   ROH16987   0.401   1.869   9.212  0.2168  0.1234 -0.1334
 1325ERGO    R116988   0.250   1.984   9.003  0.1067  0.0645 -0.0880
 1325ERGO    R216989   0.352   2.180   8.836 -0.0202  0.1057 -0.1208
 1325ERGO    R316990   0.275   2.007   8.640 -0.0122  0.0738 -0.0956
 1325ERGO    R416991   0.317   2.263   8.502 -0.0257  0.0536 -0.1330
 1325ERGO    R516992   0.138   2.140   8.496 -0.0186  0.0445 -0.1147
 1325ERGO    C116993   0.225   2.149   8.124 -0.0214 -0.0067 -0.1164
 1325ERGO    C216994   0.054   2.252   7.894 -0.0602  0.0524  0.2856
 1326ERGO   ROH16995  11.678  12.529   5.967  0.2365  0.1489 -0.2097
 1326ERGO    R116996  11.708  12.621   6.233  0.2565  0.1776 -0.2242
 1326ERGO    R216997  11.677  12.457   6.452  0.0920  0.2484 -0.2064
 1326ERGO    R316998  11.925  12.547   6.515  0.1482  0.0744 -0.1635
 1326ERGO    R416999  11.797  12.493   6.774  0.0578  0.1307 -0.1781
 1326ERGO    R517000  11.891  12.680   6.712  0.1986  0.0823 -0.1504
 1326ERGO    C117001  12.100  12.599   7.021  0.0908 -0.1013 -0.1214
 1326ERGO    C217002  12.353  12.562   7.171  0.0673 -0.1577 -0.2734
 1327ERGO   ROH17003  10.893   6.690   9.623  0.1259  0.0679  0.0628
 1327ERGO    R117004  10.703   6.785   9.437  0.1156  0.1890  0.1328
 1327ERGO    R217005  10.755   6.994   9.263  0.2211  0.0925  0.0396
 1327ERGO    R317006  10.678   6.814   9.075 -0.0416  0.1006  0.1368
 1327ERGO    R417007  10.753   7.055   8.923  0.3312 -0.0991  0.0040
 1327ERGO    R517008  10.564   6.947   8.910  0.1677  0.1802  0.0570
 1327ERGO    C117009  10.679   6.922   8.548  0.1487 -0.2032  0.0746
 1327ERGO    C217010  10.780   6.972   8.303 -0.0701  0.3043 -0.0603
 1328ERGO   ROH17011   2.665  13.555   8.786  0.3878 -0.0022  0.1893
 1328ERGO    R117012   2.777  13.441   8.552  0.2255 -0.0632  0.1407
 1328ERGO    R217013   2.726  13.540   8.299  0.1176 -0.0781  0.1599
 1328ERGO    R317014   2.997  13.551   8.284  0.1142 -0.1633  0.0053
 1328ERGO    R417015   2.906  13.611   8.013 -0.0407  0.2052  0.1267
 1328ERGO    R517016   3.049  13.457   8.070 -0.0580  0.0751 -0.1482
 1328ERGO    C117017   3.265  13.662   7.831 -0.1361  0.2904 -0.0378
 1328ERGO    C217018   3.395  13.835   7.673  0.0432  0.1492  0.1058
 1329ERGO   ROH17019   5.965  15.415   9.353  0.0863 -0.0057  0.0711
 1329ERGO    R117020   5.973  15.594   9.134  0.3803  0.1080  0.1696
 1329ERGO    R217021   6.200  15.635   8.983  0.3485 -0.5107 -0.0730
 1329ERGO    R317022   6.034  15.573   8.776 -0.1091  0.1095  0.0788
 1329ERGO    R417023   6.233  15.758   8.662  0.5605 -0.6696 -0.1149
 1329ERGO    R517024   6.015  15.778   8.653  0.5977  0.2009  0.0793
 1329ERGO    C117025   6.096  15.773   8.280  0.2543 -0.1797  0.0030
 1329ERGO    C217026   6.063  15.961   7.978 -0.0313 -0.2299 -0.0672
 1330ERGO   ROH17027  15.668   1.366   6.313  0.3258  0.2861  0.0463
 1330ERGO    R117028  15.603   1.594   6.467  0.3812  0.1288  0.3085
 1330ERGO    R217029  15.343   1.680   6.504  0.4265  0.3885  0.0418
 1330ERGO    R317030  15.409   1.665   6.767  0.0125 -0.1086  0.1350
 1330ERGO    R417031  15.185   1.856   6.756  0.4158  0.3870  0.0369
 1330ERGO    R517032  15.381   1.889   6.847  0.3687 -0.1428  0.3842
 1330ERGO    C117033  15.156   1.944   7.150  0.0208 -0.0805  0.1215
 1330ERGO    C217034  14.911   2.029   7.371  0.0844  0.0927  0.1760
 1331ERGO   ROH17035   5.322   9.901   9.088 -0.3982  0.1577  0.0072
 1331ERGO    R117036   5.119   9.800   8.918 -0.2814  0.1237 -0.1120
 1331ERGO    R217037   5.077   9.897   8.662 -0.0206 -0.0197 -0.2045
 1331ERGO    R317038   5.104   9.635   8.594 -0.0543 -0.0710 -0.0300
 1331ERGO    R417039   4.979   9.761   8.360  0.1732 -0.1384 -0.2162
 1331ERGO    R517040   4.906   9.586   8.468  0.0189 -0.0606 -0.1673
 1331ERGO    C117041   4.947   9.437   8.119  0.2543 -0.2558 -0.0593
 1331ERGO    C217042   5.141   9.364   7.802 -0.2754 -0.1176 -0.0696
 1332ERGO   ROH17043   4.613   4.415   6.100  0.0391 -0.0795  0.1071
 1332ERGO    R117044   4.655   4.636   6.272 -0.0501 -0.0551  0.0969
 1332ERGO    R217045   4.525   4.663   6.514  0.0940 -0.2035  0.1877
 1332ERGO    R317046   4.778   4.688   6.611  0.1401  0.0320  0.0179
 1332ERGO    R417047   4.605   4.801   6.820  0.1347 -0.3598  0.2491
 1332ERGO    R517048   4.776   4.899   6.725 -0.0505 -0.0581  0.1971
 1332ERGO    C117049   4.889   4.905   7.090  0.2017 -0.2297  0.1255
 1332ERGO    C217050   4.737   4.980   7.426 -0.2420  0.0003  0.0355
 1333ERGO   ROH17051   7.435   0.377   9.038 -0.0529 -0.1822 -0.0493
 1333ERGO    R117052   7.286   0.368   8.797 -0.0401 -0.0613 -0.0618
 1333ERGO    R217053   7.159   0.590   8.693 -0.0433 -0.0126  0.0504
 1333ERGO    R317054   7.303   0.528   8.471 -0.0317  0.1119  0.0212
 1333ERGO    R417055   7.053   0.640   8.368 -0.1889 -0.1708  0.0718
 1333ERGO    R517056   7.140   0.448   8.315  0.0083 -0.0883  0.0762
 1333ERGO    C117057   7.126   0.611   7.970 -0.2628 -0.1461  0.0570
 1333ERGO    C217058   7.055   0.671   7.635 -0.1973  0.0363  0.0204
 1334ERGO   ROH17059  13.495   7.337   9.878 -0.0047  0.0008  0.2382
 1334ERGO    R117060  13.618   7.384   9.627  0.0107 -0.0118  0.2435
 1334ERGO    R217061  13.728   7.182   9.475  0.0068 -0.0202  0.2548
 1334ERGO    R317062  13.563   7.281   9.283  0.0236 -0.0163  0.2421
 1334ERGO    R417063  13.758   7.117   9.137  0.0690  0.0210  0.2521
 1334ERGO    R517064  13.708   7.325   9.097  0.0498  0.0224  0.2694
 1334ERGO    C117065  13.620   7.172   8.760  0.1208  0.0487  0.2386
 1334ERGO    C217066  13.744   7.177   8.496  0.0696  0.1051 -0.0004
 1335ERGO   ROH17067   2.931   3.116   8.039 -0.1629  0.0139 -0.3296
 1335ERGO    R117068   3.092   2.916   7.920 -0.0997 -0.0263 -0.1783
 1335ERGO    R217069   3.171   2.689   8.057 -0.0493  0.0867 -0.0137
 1335ERGO    R317070   3.060   2.561   7.844  0.0003 -0.0894  0.0644
 1335ERGO    R417071   3.321   2.432   7.879  0.0910  0.1007  0.0833
 1335ERGO    R517072   3.244   2.521   7.696  0.0021 -0.0379  0.0540
 1335ERGO    C117073   3.304   2.163   7.577  0.2193 -0.0563  0.2132
 1335ERGO    C217074   3.464   1.850   7.613 -0.2075  0.2225  0.1385
 1336ERGO   ROH17075   1.872   6.932   6.070  0.0112  0.0950  0.1077
 1336ERGO    R117076   1.637   6.955   6.226 -0.0305  0.0815  0.0482
 1336ERGO    R217077   1.637   7.066   6.478 -0.0707 -0.0740  0.1207
 1336ERGO    R317078   1.443   7.225   6.373  0.0214  0.0605  0.1541
 1336ERGO    R417079   1.323   7.113   6.616 -0.1083 -0.0622  0.0307
 1336ERGO    R517080   1.239   7.107   6.415 -0.0338  0.1011 -0.0043
 1336ERGO    C117081   0.959   7.291   6.598 -0.0436  0.0709  0.0095
 1336ERGO    C217082   0.772   7.524   6.848  0.1360 -0.1522 -0.3188
 1337ERGO   ROH17083   2.765  14.085   5.886 -0.1584  0.2285 -0.1232
 1337ERGO    R117084   2.577  14.105   6.097 -0.1295  0.1432 -0.0871
 1337ERGO    R217085   2.628  14.007   6.352 -0.1563 -0.1079 -0.1669
 1337ERGO    R317086   2.565  14.261   6.426 -0.0114 -0.1351  0.0498
 1337ERGO    R417087   2.599  14.117   6.678 -0.1146 -0.3574 -0.0779
 1337ERGO    R517088   2.426  14.235   6.618 -0.0344 -0.2089  0.0146
 1337ERGO    C117089   2.524  14.420   6.937  0.0458 -0.5284  0.1772
 1337ERGO    C217090   2.680  14.576   7.170  0.0490  0.3218  0.0033
 1338ERGO   ROH17091   9.675  18.382   9.404  0.0002 -0.0479  0.0158
 1338ERGO    R117092   9.563  18.456   9.155 -0.0500 -0.1642  0.0031
 1338ERGO    R217093   9.661  18.667   9.004 -0.2915 -0.0182  0.0462
 1338ERGO    R317094   9.676  18.478   8.810 -0.0096  0.0208  0.0265
 1338ERGO    R417095   9.632  18.728   8.665 -0.2431 -0.0065  0.0441
 1338ERGO    R517096   9.515  18.545   8.647 -0.0327 -0.1399 -0.0200
 1338ERGO    C117097   9.631  18.585   8.286  0.0496  0.0369  0.0244
 1338ERGO    C217098   9.598  18.382   8.024 -0.2149 -0.1679  0.0463
 1339ERGO   ROH17099   7.122  13.594   5.739  0.1332  0.0798 -0.0369
 1339ERGO    R117100   7.171  13.411   5.949  0.1295  0.0606 -0.0537
 1339ERGO    R217101   7.326  13.474   6.169  0.0391  0.0755  0.0028
 1339ERGO    R317102   7.105  13.396   6.307  0.0240 -0.0242 -0.0752
 1339ERGO    R417103   7.330  13.325   6.480 -0.0051  0.2302  0.0795
 1339ERGO    R517104   7.170  13.192   6.413  0.1270  0.0741  0.0581
 1339ERGO    C117105   7.124  13.164   6.791 -0.0449  0.2267  0.0510
 1339ERGO    C217106   7.030  13.360   7.152 -0.2090 -0.1016  0.1596
 1340ERGO   ROH17107   7.633  14.384   5.940 -0.0525 -0.1621 -0.0824
 1340ERGO    R117108   7.539  14.286   6.188  0.1130 -0.1638 -0.0190
 1340ERGO    R217109   7.708  14.220   6.396  0.2334  0.2226  0.0146
 1340ERGO    R317110   7.552  14.392   6.536 -0.0303  0.0665 -0.0816
 1340ERGO    R417111   7.618  14.180   6.727  0.1328  0.1719 -0.0190
 1340ERGO    R517112   7.418  14.251   6.676  0.0701 -0.0668 -0.1186
 1340ERGO    C117113   7.418  14.318   7.051 -0.1733 -0.0042 -0.1288
 1340ERGO    C217114   7.507  14.359   7.294  0.2614 -0.1797  0.0132
 1341ERGO   ROH17115  18.167   9.275   6.233 -0.2629  0.1755  0.0410
 1341ERGO    R117116  18.041   9.250   6.485 -0.0813  0.1106  0.1265
 1341ERGO    R217117  18.051   9.018   6.635  0.0240  0.0728  0.0572
 1341ERGO    R317118  18.146   9.184   6.827  0.1642  0.0185  0.0367
 1341ERGO    R417119  18.013   8.968   6.974 -0.1145  0.1946  0.0607
 1341ERGO    R517120  17.976   9.182   6.997  0.1161  0.2466 -0.0021
 1341ERGO    C117121  18.079   9.095   7.353 -0.0635  0.2147  0.0435
 1341ERGO    C217122  17.946   9.094   7.642 -0.1899  0.2781 -0.1719
 1342ERGO   ROH17123  16.564   7.469   6.294  0.0075  0.2522  0.0389
 1342ERGO    R117124  16.531   7.611   6.536  0.0609 -0.0178  0.2077
 1342ERGO    R217125  16.322   7.787   6.578  0.2057  0.1139  0.3593
 1342ERGO    R317126  16.278   7.632   6.797  0.0020 -0.1191  0.1618
 1342ERGO    R417127  16.130   7.881   6.849  0.2131 -0.0299  0.4158
 1342ERGO    R517128  16.278   7.788   6.980  0.0968 -0.3308  0.3527
 1342ERGO    C117129  15.977   7.791   7.214  0.0260 -0.3323  0.2633
 1342ERGO    C217130  15.828   7.853   7.441  0.0658  0.1384 -0.2271
 1343ERGO   ROH17131   7.925   2.830   6.101  0.0883 -0.0737  0.1163
 1343ERGO    R117132   7.717   2.793   6.289  0.0065 -0.0077  0.0440
 1343ERGO    R217133   7.540   2.581   6.275 -0.0131 -0.0087  0.0310
 1343ERGO    R317134   7.622   2.538   6.530 -0.1028  0.0613  0.0686
 1343ERGO    R417135   7.334   2.485   6.536 -0.0921  0.1160  0.0120
 1343ERGO    R517136   7.444   2.622   6.666 -0.1148  0.1298 -0.0078
 1343ERGO    C117137   7.292   2.390   6.928 -0.2221  0.2543  0.0363
 1343ERGO    C217138   7.439   2.162   7.255 -0.1991  0.0611  0.0108
 1344ERGO   ROH17139   6.262   9.299   9.127 -0.2849 -0.0765  0.1869
 1344ERGO    R117140   6.255   9.198   8.862  0.1646  0.0161  0.1323
 1344ERGO    R217141   6.039   9.236   8.695  0.1675 -0.4784  0.0064
 1344ERGO    R317142   6.228   9.337   8.527  0.0292  0.1023  0.1774
 1344ERGO    R417143   5.994   9.291   8.356  0.2544 -0.4737 -0.0052
 1344ERGO    R517144   6.196   9.217   8.322  0.4967  0.0803  0.1049
 1344ERGO    C117145   6.145   9.418   8.002  0.1752  0.0741  0.1486
 1344ERGO    C217146   6.324   9.498   7.813  0.2057 -0.1018  0.2467
 1345ERGO   ROH17147  11.233   3.042   9.369  0.3585  0.0688  0.0517
 1345ERGO    R117148  11.259   2.986   9.093  0.2920  0.1812  0.0220
 1345ERGO    R217149  11.063   3.048   8.909  0.1973  0.1479  0.1138
 1345ERGO    R317150  11.267   3.177   8.783  0.0884  0.2960  0.0851
 1345ERGO    R417151  11.059   3.149   8.578  0.1866 -0.1285  0.0267
 1345ERGO    R517152  11.267   3.086   8.561  0.2760  0.1088  0.1562
 1345ERGO    C117153  11.248   3.329   8.268  0.0781 -0.1504 -0.0510
 1345ERGO    C217154  11.418   3.474   8.045 -0.0581 -0.2870 -0.0354
 1346W        W17155  10.043  11.107   4.247 -0.0612 -0.0796 -0.3205
 1347W        W17156   6.180  10.104  14.038 -0.1485  0.2075  0.0456
 1348W        W17157   3.655   0.754  10.901 -0.2460 -0.0651 -0.0668
 1349W        W17158   6.618   8.441   0.863 -0.0780 -0.2120 -0.0867
 1350W        W17159  16.292   1.348   5.258 -0.1323 -0.1701 -0.0214
 1351W        W17160  11.360  17.302  12.969 -0.1966  0.2188 -0.1079
 1352W        W17161  11.570  17.415  13.495 -0.2047  0.2799 -0.0026
 1353W        W17162  12.676   2.633   5.350  0.0587 -0.2042 -0.1458
 1354W        W17163   6.291   8.595   2.008  0.1821  0.3791  0.0844
 1355W        W17164  16.586  13.505  10.865 -0.0454  0.2077  0.1384
 1356W        W17165  16.658   3.906  14.148  0.3034  0.1524 -0.0861
 1357W        W17166  12.559  11.532  13.303 -0.3162  0.1682  0.0285
 1358W        W17167  17.102  12.810   3.030  0.2354 -0.0466  0.1482
 1359W        W17168   6.541   6.733   4.866 -0.1284  0.0750  0.0639
 1360W        W17169  17.407  15.862  13.987  0.1875  0.1410 -0.0107
 1361W        W17170   6.073  12.633   4.168 -0.1536 -0.0064 -0.0112
 1362W        W17171   5.595  18.068   1.883  0.0458  0.2753 -0.3587
 1363W        W17172   7.994  10.447  11.992  0.0082  0.0949 -0.2012
 1364W        W17173  17.714   5.364   2.598 -0.1622 -0.1214 -0.1847
 1365W        W17174   6.011   9.372  10.618  0.2042  0.1812  0.1149
 1366W        W17175   0.134  13.686   3.278  0.3264 -0.0283 -0.1464
 1367W        W17176   6.513  11.386   4.088 -0.0809 -0.0258  0.3435
 1368W        W17177  10.637  14.506   2.617  0.0347 -0.0195 -0.2114
 1369W        W17178   9.881   3.258   2.968 -0.0708 -0.0261  0.0609
 1370W        W17179  15.398   6.434  15.204  0.1182 -0.1088 -0.0317
 1371W        W17180  18.376   3.681  11.172 -0.2143  0.0025 -0.0576
 1372W        W17181  16.798  13.292   1.483  0.3216  0.1386 -0.0415
 1373W        W17182   8.451   6.080  14.244  0.2498  0.0377  0.1616
 1374W        W17183   9.259  15.372  14.050 -0.1971 -0.0324  0.3275
 1375W        W17184  16.384  16.564  10.660 -0.0373  0.1785  0.0677
 1376W        W17185  16.358   4.286  14.098  0.0584  0.2669 -0.0074
 1377W        W17186   6.477   4.068  12.371  0.0885 -0.1481  0.0585
 1378W        W17187   5.696  14.666   1.154 -0.2242 -0.1631  0.0254
 1379W        W17188  14.141   5.245   0.992  0.1847  0.0516  0.5647
 1380W        W17189   1.835   2.385  10.894 -0.1791 -0.0909 -0.2586
 1381W        W17190   8.049  12.468   0.734 -0.0420 -0.2182  0.3075
 1382W        W17191   6.301  17.322  10.859 -0.3046  0.3993 -0.1917
 1383W        W17192  16.530   0.248  13.727  0.3463 -0.1145  0.0426
 1384W        W17193  12.048  10.359  14.586 -0.1324  0.0383 -0.3218
 1385W        W17194  17.810   1.724  13.397 -0.0316  0.2095 -0.2451
 1386W        W17195  14.123   2.983   3.299 -0.1852  0.2242  0.0913
 1387W        W17196  16.282   5.260  11.252 -0.1245  0.2089  0.1835
 1388W        W17197   1.000   9.853  12.936 -0.0329 -0.1742  0.0265
 1389W        W17198  17.108  16.611   1.717 -0.1238 -0.2185  0.2029
 1390W        W17199   0.216  10.734   3.948  0.0778  0.5333  0.1690
 1391W        W17200   3.244   0.099  12.929  0.1043 -0.0667  0.0379
 1392W        W17201   2.284  14.746  13.331 -0.2468  0.1423  0.3501
 1393W        W17202  15.494  13.068   5.034  0.0793  0.0765  0.4484
 1394W        W17203  14.250   5.841   1.084 -0.3214  0.0715 -0.0453
 1395W        W17204  14.331  10.648   4.504 -0.0611  0.3372 -0.0110
 1396W        W17205   6.103   2.377   4.707  0.2061  0.2455  0.0247
 1397W        W17206   4.718   3.510  14.733 -0.0075  0.2851  0.0156
 1398W        W17207  17.608   7.079  15.219 -0.4757 -0.0310 -0.2144
 1399W        W17208   7.851   1.224  13.291 -0.4234  0.2488 -0.1616
 1400W        W17209   0.266   3.857  12.541 -0.0419  0.1874  0.2326
 1401W        W17210  16.136   5.137   3.786  0.1525 -0.0693  0.0832
 1402W        W17211  11.491   8.500   3.784 -0.0990 -0.0254 -0.0495
 1403W        W17212  15.745  11.224  11.869 -0.1075 -0.0467 -0.1173
 1404W        W17213   4.819  12.082   0.012  0.1329  0.2134  0.0384
 1405W        W17214   0.126  16.958   4.993 -0.1291 -0.1243 -0.0228
 1406W        W17215   4.145   1.051   0.647 -0.0082 -0.0137 -0.2589
 1407W        W17216   3.327  10.556  14.835  0.1255  0.0599  0.1615
 1408W        W17217   5.927   9.970  11.509 -0.0898  0.1824 -0.1541
 1409W        W17218  16.889   9.772  15.124 -0.1788 -0.2188  0.1471
 1410W        W17219   2.796  14.256   0.573  0.2012  0.3199  0.0997
 1411W        W17220  12.582  16.169   9.680 -0.2038  0.1239 -0.0798
 1412W        W17221   5.819  11.932   3.555  0.2441  0.1773 -0.1029
 1413W        W17222  10.492  11.783   3.104  0.0309  0.0414 -0.1296
 1414W        W17223   3.535   2.938  10.109  0.0714 -0.0172 -0.0026
 1415W        W17224   2.660  15.407  15.067 -0.0414 -0.0698  0.0761
 1416W        W17225   4.066   5.052  12.701  0.0735  0.1637  0.1915
 1417W        W17226  15.769   4.588   3.575 -0.2420  0.0894  0.2923
 1418W        W17227   0.808  10.971   2.678  0.0920  0.2466  0.1942
 1419W        W17228   6.516   2.619  11.542  0.1387 -0.0671  0.2105
 1420W        W17229  17.059   9.998   5.677 -0.0093  0.1479 -0.1063
 1421W        W17230  10.783   0.323  15.391  0.1654  0.1913 -0.1640
 1422W        W17231  10.241   1.284  10.973 -0.0634 -0.2715 -0.2385
 1423W        W17232  12.720   6.710  15.030  0.0719 -0.0954  0.1005
 1424W        W17233  17.128  16.063  13.492 -0.0245  0.3658  0.2175
 1425W        W17234   7.311  18.646  12.384  0.1485  0.2869 -0.1378
 1426W        W17235  10.521   3.454   4.171 -0.1918  0.2219 -0.0665
 1427W        W17236   1.099  10.422   2.532  0.0034 -0.0843  0.1327
 1428W        W17237  11.319   7.786   5.646 -0.2754  0.2344  0.0723
 1429W        W17238  13.811  11.046  14.161  0.1162  0.1185 -0.3800
 1430W        W17239  11.981  13.518   4.878  0.3441  0.2089 -0.3151
 1431W        W17240  14.162   9.194   0.436  0.1589 -0.0697  0.0814
 1432W        W17241   3.469  13.101   2.966  0.0636 -0.2077  0.2761
 1433W        W17242   9.172   3.445  13.666  0.0654 -0.1254 -0.1095
 1434W        W17243   4.694   8.927  12.500  0.1160  0.2565  0.1191
 1435W        W17244   1.682  15.621   4.212  0.0338  0.0989 -0.0332
 1436W        W17245   6.106  13.205  10.603 -0.0048  0.1235 -0.2235
 1437W        W17246  17.163   5.838  13.503 -0.0385  0.2169 -0.0906
 1438W        W17247   5.363  10.525  15.110 -0.2518 -0.0959 -0.0436
 1439W        W17248   0.220   4.754   5.052  0.0612  0.2143  0.1356
 1440W        W17249  15.100   8.469   4.117  0.4942  0.0747 -0.3120
 1441W        W17250  10.039  14.584   1.412 -0.0994 -0.1275 -0.2616
 1442W        W17251  13.381   4.987  10.717  0.0274  0.1222  0.3545
 1443W        W17252   0.318  17.715  12.816  0.2150 -0.1319 -0.0997
 1444W        W17253   7.349  16.653  12.590  0.1651  0.0438 -0.1221
 1445W        W17254  10.083   0.198  14.074 -0.0410 -0.1193 -0.1348
 1446W        W17255  12.605   8.166   3.924  0.3661 -0.0780  0.3157
 1447W        W17256   0.788   1.618  14.929  0.0313  0.0841 -0.1053
 1448W        W17257   8.519   9.905  14.258  0.0669 -0.0605 -0.2711
 1449W        W17258  16.642   3.010   1.359 -0.2511 -0.0291 -0.0983
 1450W        W17259   8.658   5.062  14.488 -0.1913  0.0503 -0.1901
 1451W        W17260  14.464   9.006  15.118 -0.3189 -0.1393  0.2743
 1452W        W17261   3.302  10.026   5.431  0.2842  0.0102  0.1755
 1453W        W17262   8.711   2.564  13.733 -0.5447  0.0335 -0.0718
 1454W        W17263   0.967   7.587  12.730 -0.0116  0.5168  0.0696
 1455W        W17264  16.241   2.408  10.763 -0.4648  0.0910 -0.1738
 1456W        W17265  10.504   4.532  12.931  0.1526  0.1854  0.1848
 1457W        W17266  10.500   9.330  14.048 -0.0791  0.2289 -0.0967
 1458W        W17267  16.792   3.835   2.510 -0.0573  0.1840  0.0799
 1459W        W17268   6.216   5.123  12.904  0.1965 -0.1741 -0.4059
 1460W        W17269   8.340   7.847   3.513  0.0540 -0.2892  0.0397
 1461W        W17270   1.804  17.691   2.447  0.0469  0.3872  0.1353
 1462W        W17271  14.588  15.389  13.041  0.0788  0.1080  0.3333
 1463W        W17272  12.337  17.781  11.596  0.0335  0.0322  0.3702
 1464W        W17273  14.714   3.572   2.118 -0.1906 -0.0210  0.2508
 1465W        W17274   9.756  17.361  13.614  0.0811 -0.0012 -0.1493
 1466W        W17275  16.801  14.626   1.061 -0.0892 -0.0775  0.1140
 1467W        W17276  12.315   9.641   3.170  0.1497 -0.1412 -0.3165
 1468W        W17277   3.035   2.217  10.309  0.1032  0.0878 -0.0400
 1469W        W17278   5.069   1.689  14.921  0.1113 -0.1899  0.1429
 1470W        W17279  17.685  10.666   3.793 -0.1967 -0.0974 -0.2544
 1471W        W17280  16.475   2.607   0.270 -0.1197  0.1896  0.0018
 1472W        W17281   2.855  13.841   3.650 -0.0293  0.2737 -0.1917
 1473W        W17282   5.864   5.620   4.372  0.1719 -0.0055 -0.1627
 1474W        W17283   4.233  13.863   2.641 -0.1892 -0.0913 -0.0417
 1475W        W17284  12.594  14.658  14.627 -0.1725  0.0714  0.1140
 1476W        W17285   6.902  10.450  14.822  0.2264  0.2149 -0.2496
 1477W        W17286   9.018  10.460   1.207 -0.0689  0.0588  0.0596
 1478W        W17287  14.772  10.117  11.009 -0.0126  0.1070  0.0928
 1479W        W17288  12.183  15.022   3.587  0.1628 -0.0704 -0.0564
 1480W        W17289   4.983   2.555   0.105 -0.0379 -0.0574  0.1151
 1481W        W17290   6.452  13.350  15.383  0.1530 -0.2253  0.0554
 1482W        W17291  17.422  11.591   3.995  0.3160  0.3139 -0.0354
 1483W        W17292  11.848   6.345  12.179  0.0348 -0.0015  0.3673
 1484W        W17293   3.134  15.553  11.136  0.0533 -0.1984  0.3830
 1485W        W17294   4.414   0.204  12.122  0.1126 -0.3004 -0.2800
 1486W        W17295  17.544   5.972   5.254 -0.0723 -0.0778  0.1426
 1487W        W17296  11.640   6.953  13.060 -0.1180  0.0687 -0.3524
 1488W        W17297  12.999   0.118  14.476  0.2003 -0.0540  0.1827
 1489W        W17298   0.937  13.321  10.885  0.4608  0.0440 -0.1049
 1490W        W17299   9.345  15.473   0.862  0.0832 -0.0684 -0.3307
 1491W        W17300  12.275  16.670   0.274  0.0910 -0.1468 -0.1607
 1492W        W17301   8.138  14.395   5.744  0.0110  0.0023 -0.1947
 1493W        W17302   0.482   9.566   1.268  0.0836 -0.1193  0.2736
 1494W        W17303   0.939  18.356  13.887 -0.0281  0.3834  0.0273
 1495W        W17304   0.548   9.617   3.280 -0.0242 -0.0833  0.1748
 1496W        W17305  11.824   4.471   3.318 -0.1945 -0.0731 -0.0110
 1497W        W17306  15.551   9.844   0.810 -0.0277  0.3719  0.4665
 1498W        W17307  12.076   1.514  10.713  0.0070  0.1461 -0.0870
 1499W        W17308   1.132  18.737  11.168 -0.1061 -0.2083  0.0074
 1500W        W17309   0.144   2.807  12.661  0.1307 -0.0651 -0.1790
 1501W        W17310   0.333   3.604   3.660  0.3088  0.0023 -0.2845
 1502W        W17311   0.742   6.688  10.860  0.2986 -0.0047 -0.2042
 1503W        W17312   6.052   6.060   4.145  0.4549  0.2554 -0.2020
 1504W        W17313   8.142  13.076   3.038 -0.2162 -0.1477  0.1750
 1505W        W17314  11.975  18.084  10.683 -0.0515  0.1440 -0.3045
 1506W        W17315   5.455  10.480   0.794  0.0926 -0.1192  0.1280
 1507W        W17316  14.876  12.758  10.481  0.0694  0.2835  0.1629
 1508W        W17317  15.735   2.176   5.748 -0.0887 -0.0549 -0.1128
 1509W        W17318  17.652   4.462   4.926  0.3932  0.0335  0.1052
 1510W        W17319  16.623   5.166  11.603 -0.0118  0.2211  0.0491
 1511W        W17320   9.992  11.587  10.286 -0.0498  0.0704 -0.2207
 1512W        W17321   4.426  18.291   2.082 -0.1637 -0.2386  0.3557
 1513W        W17322  18.291   6.143  14.546 -0.3702 -0.2430  0.2894
 1514W        W17323  14.839  13.116   2.115 -0.3128  0.1376 -0.0093
 1515W        W17324   2.413  10.566   4.567 -0.2609 -0.0733 -0.0727
 1516W        W17325   6.541   7.039   5.794  0.1585 -0.2514 -0.2810
 1517W        W17326  15.564   6.011   5.901  0.4323  0.1206 -0.0902
 1518W        W17327  11.902  13.051  14.407 -0.0655  0.0139 -0.1662
 1519W        W17328  15.884   5.595   6.307  0.1698  0.2241 -0.0113
 1520W        W17329  10.323  13.549   0.084  0.0750  0.0259 -0.0397
 1521W        W17330   9.853  16.864   2.624  0.2244 -0.0000  0.0027
 1522W        W17331   7.595  18.185  11.844 -0.3018  0.0938 -0.0388
 1523W        W17332   2.688   3.673   2.780  0.3778  0.0774 -0.0428
 1524W        W17333   9.584   0.864   5.330 -0.2943 -0.0802  0.0968
 1525W        W17334  15.365  16.046  14.408  0.1222 -0.2434  0.0190
 1526W        W17335   0.486  16.601   3.737 -0.0423 -0.0877 -0.0753
 1527W        W17336   2.101  18.240   0.308 -0.0528  0.1017 -0.1316
 1528W        W17337   2.986   1.609   3.322 -0.0921  0.1360  0.1023
 1529W        W17338  11.433  16.989   0.724 -0.0552 -0.0473  0.0046
 1530W        W17339  11.846  17.097  12.103  0.0432 -0.0186 -0.2978
 1531W        W17340   8.101  13.850   1.010  0.1710  0.0055  0.0938
 1532W        W17341   1.993  11.410   4.615 -0.3044  0.3540  0.4015
 1533W        W17342  17.072   6.123   5.450  0.1160  0.0350  0.0399
 1534W        W17343   6.870  17.575   3.937  0.1352  0.0173  0.1080
 1535W        W17344   0.840  14.254   3.782  0.0696 -0.3653  0.0507
 1536W        W17345   6.178  13.702   2.827 -0.3323 -0.0647  0.1376
 1537W        W17346  15.140  17.775  10.993 -0.0958  0.2463 -0.1975
 1538W        W17347  13.885  13.071  13.430 -0.0908  0.0816  0.0174
 1539W        W17348  10.669   4.915  14.613  0.1166 -0.1497 -0.1059
 1540W        W17349  10.597   0.665  10.829  0.1230 -0.0489 -0.1944
 1541W        W17350   5.683   3.682  13.741 -0.0830  0.0078 -0.1724
 1542W        W17351   0.057   0.978   0.579 -0.2603  0.0571 -0.1780
 1543W        W17352   6.322  13.049   9.778  0.3298 -0.0366 -0.2115
 1544W        W17353  13.229   7.812  13.134 -0.4372 -0.0493  0.1349
 1545W        W17354  18.396  16.543  11.707 -0.1873 -0.0199 -0.2648
 1546W        W17355   5.636   4.260   4.435 -0.0714 -0.1161  0.2006
 1547W        W17356   0.206   6.413   4.847  0.1859  0.1227 -0.1032
 1548W        W17357   5.083  14.819   0.438 -0.2431  0.2061  0.1458
 1549W        W17358  15.581  12.333   2.076  0.4764  0.3010  0.3120
 1550W        W17359   0.301  10.341   1.034 -0.1316  0.0612  0.3351
 1551W        W17360  13.138   8.463  12.512 -0.0087 -0.2434 -0.0151
 1552W        W17361  12.360  16.938   0.710  0.2115 -0.2654 -0.0697
 1553W        W17362  14.668   2.998  14.353 -0.2051  0.4793  0.2194
 1554W        W17363   5.299   5.156  10.885 -0.0284 -0.0024  0.0134
 1555W        W17364   1.158  13.829   4.194  0.0175  0.4044 -0.1248
 1556W        W17365  10.520  16.953   3.366 -0.1591 -0.0205 -0.1718
 1557W        W17366  10.226  16.318   5.889 -0.2698  0.0547 -0.0620
 1558W        W17367  16.912   1.859  10.681  0.0541 -0.2057  0.0898
 1559W        W17368  10.397   1.534   5.008 -0.0915 -0.1776  0.2212
 1560W        W17369  15.283   2.100   1.738 -0.1151  0.0776 -0.3089
 1561W        W17370  10.652  17.495   2.525 -0.0816 -0.2122  0.1142
 1562W        W17371  15.180  14.283   1.789 -0.0911 -0.2011  0.2421
 1563W        W17372   5.802   0.126  15.144 -0.0162  0.4394  0.4714
 1564W        W17373  10.241  11.064  11.181  0.1750 -0.0831  0.0463
 1565W        W17374   8.079   9.023  14.692 -0.0012  0.0297 -0.0656
 1566W        W17375  11.719   5.928   2.964 -0.0103  0.1998  0.1994
 1567W        W17376   7.877   8.780   0.353  0.0674  0.0953  0.0807
 1568W        W17377   6.326   9.174  10.092  0.0772 -0.0439  0.2029
 1569W        W17378   4.462  12.212   3.068 -0.0551  0.1319  0.1462
 1570W        W17379   5.698   6.788  10.675 -0.0087  0.0942  0.4510
 1571W        W17380   0.061   5.274   2.801 -0.4433 -0.0129  0.0586
 1572W        W17381   0.557  16.459  11.009  0.1949  0.1628  0.2363
 1573W        W17382   5.718  11.568   2.661 -0.1457  0.0789 -0.2765
 1574W        W17383   3.932   9.618   2.091 -0.0111 -0.0418 -0.2413
 1575W        W17384   9.539  12.613  11.318 -0.0418  0.0878  0.1916
 1576W        W17385  11.705  18.327   3.337 -0.2548  0.0705  0.2170
 1577W        W17386   4.165   8.482  12.858 -0.2528 -0.1119 -0.1687
 1578W        W17387   4.539  16.011   0.615 -0.1274  0.3480  0.0100
 1579W        W17388  14.674  11.133   3.228  0.0478  0.0947 -0.1557
 1580W        W17389  13.651   0.987  11.339 -0.0354 -0.1198 -0.1134
 1581W        W17390  18.757  11.389   0.383 -0.4025 -0.3392  0.0826
 1582W        W17391  10.406  13.544  13.281 -0.0453  0.0645  0.0862
 1583W        W17392   7.084  18.389  12.894 -0.3084 -0.0801  0.2653
 1584W        W17393  13.248   5.607  12.438  0.0258 -0.3877  0.0124
 1585W        W17394  10.705   2.215   2.375 -0.1655  0.2351  0.2142
 1586W        W17395   2.405  16.215   1.519 -0.3365  0.2377  0.0739
 1587W        W17396   7.467   6.782  12.912  0.0608  0.0488 -0.0971
 1588W        W17397   6.028  13.776   1.640 -0.1976 -0.0925  0.0626
 1589W        W17398   7.473  16.106  14.421  0.0381  0.1467  0.1791
 1590W        W17399   1.060   7.132   0.499 -0.2754  0.1879  0.0419
 1591W        W17400  13.480  12.120  10.909 -0.1296  0.2960  0.2686
 1592W        W17401  15.388  11.889   1.784  0.0869 -0.4467 -0.0218
 1593W        W17402   3.873   7.878   3.236  0.1459 -0.0529  0.1662
 1594W        W17403  14.226   8.058   1.110  0.0576  0.0132 -0.1350
 1595W        W17404  12.982  12.838   1.422  0.0561  0.0570  0.3270
 1596W        W17405  17.504   4.841   0.145 -0.1988  0.2776 -0.3198
 1597W        W17406  16.881   5.566   4.703 -0.1413 -0.1144  0.0033
 1598W        W17407  14.711  16.967   1.464 -0.2300 -0.0938 -0.1473
 1599W        W17408  16.647   5.916  13.934 -0.0473  0.0139  0.2850
 1600W        W17409  16.169  16.128  14.824 -0.0297  0.1649  0.0880
 1601W        W17410  18.072   7.590   0.148  0.5293 -0.0469  0.2869
 1602W        W17411   4.545   0.878   4.308 -0.0303 -0.3442  0.0156
 1603W        W17412   1.945  16.180  14.291  0.2506 -0.1982  0.0645
 1604W        W17413   9.329   2.867   2.311 -0.2146 -0.2406  0.0196
 1605W        W17414   9.213  12.841   0.437 -0.1389  0.1752  0.3884
 1606W        W17415   2.316  10.053  13.244  0.1883  0.0973  0.0196
 1607W        W17416   9.437   9.803   4.037 -0.1513  0.0484  0.0493
 1608W        W17417   0.403  10.376   1.899  0.0031  0.2173  0.0359
 1609W        W17418   7.804   4.053   2.526  0.0832  0.1814  0.0478
 1610W        W17419  15.802   4.421  13.311  0.1727  0.3553  0.1663
 1611W        W17420   6.023   8.325  13.581 -0.2366  0.1284  0.3708
 1612W        W17421   8.983   5.279  12.198 -0.0890 -0.1194 -0.0282
 1613W        W17422   7.275  16.007   1.761  0.1305  0.4407  0.1082
 1614W        W17423   8.556  13.414   4.943 -0.1444  0.0977 -0.0864
 1615W        W17424  12.764  14.017   2.047  0.0413  0.1004 -0.2510
 1616W        W17425   7.169   3.695   2.172 -0.0232  0.1149 -0.0227
 1617W        W17426   1.414   7.869  14.009 -0.2635 -0.0999  0.1984
 1618W        W17427   5.904   9.386  11.344  0.1836  0.0666  0.3174
 1619W        W17428   6.227  13.884   4.727  0.0016 -0.1386 -0.0409
 1620W        W17429   5.512   0.851   3.060  0.1799  0.4584  0.0990
 1621W        W17430   4.795   7.140  12.787 -0.0541 -0.0440 -0.2442
 1622W        W17431  12.148  15.166   4.684 -0.0340 -0.0495  0.2546
 1623W        W17432   6.521   1.678  12.845 -0.0121 -0.0221  0.0805
 1624W        W17433   2.756  14.401   3.028 -0.2494 -0.0809  0.2207
 1625W        W17434   3.718   6.677  13.735 -0.0497  0.2378 -0.0249
 1626W        W17435   9.512   8.961  12.252  0.0934 -0.0560 -0.3552
 1627W        W17436   7.782   8.579   1.116  0.1099  0.3897 -0.3385
 1628W        W17437   6.988  18.566   1.275  0.0173 -0.1460  0.0134
 1629W        W17438   9.835   7.036   9.806 -0.2655 -0.1540  0.0983
 1630W        W17439   2.632  17.858   1.291 -0.0052  0.1069 -0.0785
 1631W        W17440   2.550   9.124   0.866 -0.2354  0.1957 -0.0614
 1632W        W17441  10.458   6.836  11.205 -0.0013  0.2595  0.2503
 1633W        W17442  15.983   6.386   2.154  0.3786 -0.0321  0.2779
 1634W        W17443  14.837  15.360   2.405  0.0098  0.1016  0.7157
 1635W        W17444   2.104   6.650  10.555 -0.0964 -0.3066  0.1467
 1636W        W17445   9.629  14.312  12.087 -0.1367 -0.3189 -0.0104
 1637W        W17446   7.847   0.206   5.628  0.1847  0.1206 -0.0571
 1638W        W17447   4.595  15.962   1.846 -0.0390 -0.2038  0.1043
 1639W        W17448  17.105  13.291   3.255  0.0452  0.0810  0.3551
 1640W        W17449  18.881  14.765  10.700 -0.2141  0.2224  0.1867
 1641W        W17450   7.169   2.194  13.656  0.1087  0.0721  0.0572
 1642W        W17451  16.566   4.895  11.104  0.0367 -0.1996  0.3116
 1643W        W17452   1.387   4.924  11.375  0.0087 -0.2127  0.3670
 1644W        W17453  16.123   8.544   2.802 -0.2532  0.1346 -0.1116
 1645W        W17454   3.601  16.391  11.236 -0.2466 -0.2952 -0.1394
 1646W        W17455  12.056   8.635  14.199 -0.2406  0.1525  0.1849
 1647W        W17456   7.226  12.044   2.817 -0.0511  0.2967  0.1532
 1648W        W17457  11.586   2.538   4.065 -0.1694 -0.1346  0.0809
 1649W        W17458   4.844   2.952   0.457 -0.2439  0.0368  0.0226
 1650W        W17459  15.388  14.478  11.888 -0.4129  0.1074 -0.1243
 1651W        W17460  15.309  13.662  15.172 -0.0780  0.0907  0.2450
 1652W        W17461  17.990  17.793   0.419  0.1449 -0.0304  0.1987
 1653W        W17462   9.300   3.208  15.011 -0.0774 -0.0271  0.2978
 1654W        W17463  17.782   4.933  12.720 -0.1383 -0.0863 -0.1750
 1655W        W17464   2.036   0.280  10.953  0.0184  0.2754  0.0737
 1656W        W17465   0.053   5.662   0.913  0.0811 -0.0235 -0.0830
 1657W        W17466   6.831   1.539   0.223  0.3729  0.1082 -0.0183
 1658W        W17467   3.239  13.362  13.750  0.3840  0.1193  0.2932
 1659W        W17468  14.213   1.238   9.681  0.0026  0.0218  0.4150
 1660W        W17469   8.544   8.106   0.758 -0.0635 -0.1246  0.1670
 1661W        W17470   0.089  12.499  12.810 -0.3026 -0.1843  0.1520
 1662W        W17471  11.412  14.730   3.247 -0.2198 -0.0243 -0.2963
 1663W        W17472  11.942   4.278  14.278  0.1509 -0.0127  0.3416
 1664W        W17473   2.971   0.202   4.850  0.4389 -0.4731  0.0289
 1665W        W17474   2.024  11.783   3.161 -0.0523  0.1224  0.1207
 1666W        W17475   2.297   2.382  13.044  0.2272 -0.3632 -0.0568
 1667W        W17476  13.865   3.268  13.901  0.3171 -0.0014  0.3348
 1668W        W17477   4.563   5.121   1.118 -0.0012 -0.0822 -0.1639
 1669W        W17478   2.195  14.435  11.808 -0.1953  0.3557  0.1014
 1670W        W17479  13.265   3.705   9.514 -0.3395  0.4260 -0.2241
 1671W        W17480  17.828  15.207  12.541  0.0005 -0.4037  0.0962
 1672W        W17481   8.971   7.248  13.153 -0.0177 -0.2576  0.0693
 1673W        W17482   3.775  10.388   3.259 -0.1031  0.1984  0.1005
 1674W        W17483   8.331  13.145   2.465 -0.3858 -0.1622  0.3938
 1675W        W17484   6.961   5.805   2.951 -0.0228 -0.0870 -0.1787
 1676W        W17485  11.304  18.837  10.676 -0.0170 -0.0205  0.0155
 1677W        W17486   7.290  17.532   3.061 -0.2010  0.0317  0.3575
 1678W        W17487  12.617  12.175  11.477 -0.0317 -0.1208  0.1476
 1679W        W17488  10.821  17.302   5.278 -0.0811  0.2183  0.0636
 1680W        W17489  18.274  11.230   5.113 -0.1259 -0.2542 -0.0771
 1681W        W17490   7.236   5.624  13.684  0.0289 -0.1358  0.3128
 1682W        W17491   4.306  18.724   3.416  0.5738  0.1940 -0.2082
 1683W        W17492   3.760  15.477   9.424  0.2242 -0.0021  0.1319
 1684W        W17493   8.789   8.230   3.425 -0.0124 -0.1105  0.2897
 1685W        W17494   7.685  17.781   2.629  0.2775  0.1280  0.1107
 1686W        W17495   3.254  11.479   2.987 -0.1355 -0.2836  0.0816
 1687W        W17496  17.103  14.807  13.705 -0.4062  0.3172  0.1123
 1688W        W17497  17.421  11.903   3.048 -0.0273 -0.1695  0.0328
 1689W        W17498   7.291   1.929   0.876  0.3432  0.4200 -0.0948
 1690W        W17499   3.858  17.724  13.676  0.1591 -0.0665 -0.1727
 1691W        W17500  17.182  15.140   0.411  0.1438  0.3620 -0.0112
 1692W        W17501  14.232  10.750  14.187 -0.0528 -0.3276  0.0563
 1693W        W17502   4.183  12.407   1.517  0.2510 -0.1550  0.2162
 1694W        W17503  12.626   3.259   1.270 -0.2600  0.2623  0.0761
 1695W        W17504  16.223  13.069   9.961  0.3533  0.3891 -0.0755
 1696W        W17505   3.364  13.692   3.762 -0.1055  0.1028 -0.0357
 1697W        W17506   6.035   7.761   3.505 -0.0208 -0.1304  0.0321
 1698W        W17507   3.957   0.850  12.761  0.0353 -0.2057  0.1477
 1699W        W17508  10.719  13.938  12.510 -0.1381  0.2262  0.0005
 1700W        W17509  10.576  14.183  10.327 -0.3395  0.1058  0.0313
 1701W        W17510   7.087   6.851   4.893 -0.1090 -0.3102  0.1556
 1702W        W17511  13.907   1.600  12.905 -0.0684 -0.1995 -0.4231
 1703W        W17512  10.576  18.387   0.072  0.3461 -0.0296 -0.1055
 1704W        W17513  12.625  11.062  13.603 -0.2040 -0.4795  0.0772
 1705W        W17514   9.607  17.451   1.978 -0.1510 -0.0399 -0.2251
 1706W        W17515  18.001  18.729   4.216 -0.1146  0.5287  0.0734
 1707W        W17516   6.175   9.681   3.427 -0.3019 -0.1315 -0.1392
 1708W        W17517  12.481   0.628   2.411  0.1559 -0.0049  0.0373
 1709W        W17518   5.510   9.321   2.248  0.1581 -0.2465 -0.2497
 1710W        W17519  18.303   7.131   3.925  0.0516 -0.1663 -0.0168
 1711W        W17520   4.680   0.117  13.034 -0.3477 -0.5272  0.0806
 1712W        W17521   7.057   4.379  11.303  0.0708  0.0420 -0.1690
 1713W        W17522   2.091  10.019   9.874 -0.0657  0.1849  0.4884
 1714W        W17523  10.635   1.657   0.248 -0.0191  0.0181 -0.2253
 1715W        W17524   0.670  11.395  11.147 -0.4898  0.2289 -0.0399
 1716W        W17525   6.952   8.003   9.984  0.1720 -0.1304  0.0774
 1717W        W17526   0.528  18.001  11.972 -0.1329 -0.0801 -0.2925
 1718W        W17527  18.737   9.784  13.309 -0.0716  0.2962 -0.4971
 1719W        W17528   5.265   0.403  10.964  0.3289  0.0878 -0.1876
 1720W        W17529  13.261   0.967   9.682  0.0904 -0.0474  0.1813
 1721W        W17530  12.376   1.056  11.674  0.0834  0.1746 -0.1315
 1722W        W17531   5.239  15.008  12.884 -0.4828 -0.2813  0.0541
 1723W        W17532   7.698   3.662   3.422  0.0602 -0.2383  0.1748
 1724W        W17533  13.867   3.978   4.313  0.5671  0.0584 -0.3557
 1725W        W17534   9.262   2.710  11.351  0.0931 -0.0794 -0.1560
 1726W        W17535   7.155   9.968   3.191  0.2516  0.1861  0.2395
 1727W        W17536  13.440   2.002  11.203 -0.1233 -0.0212 -0.0870
 1728W        W17537   4.371   2.866   4.129 -0.3339 -0.0327  0.0716
 1729W        W17538  12.474  17.416   3.754 -0.2321 -0.2564  0.1648
 1730W        W17539   1.957   0.239   4.359  0.1518  0.2715 -0.1228
 1731W        W17540  13.006  11.495   3.885  0.0585 -0.1873  0.0541
 1732W        W17541  12.401   1.374   2.866 -0.3600  0.0480 -0.0211
 1733W        W17542  15.057  10.607   2.217 -0.3263 -0.0009 -0.2448
 1734W        W17543  18.615  13.363   2.013  0.0076 -0.0555  0.1791
 1735W        W17544   2.096  13.549   3.467 -0.0378  0.1861 -0.2221
 1736W        W17545   9.695  11.771   1.061 -0.3314  0.4014 -0.2245
 1737W        W17546  13.609  11.818   2.945 -0.1215  0.0730 -0.1258
 1738W        W17547  12.776   2.450   2.974 -0.0972  0.1941  0.0406
 1739W        W17548  17.621  10.271   5.191  0.1664  0.2285  0.0373
 1740W        W17549   4.101   9.634   0.395  0.0954  0.0552  0.1823
 1741W        W17550   8.118   1.638  14.358 -0.0066  0.3097 -0.3658
 1742W        W17551   5.096  11.295  14.816 -0.0241  0.0516  0.0882
 1743W        W17552  18.031  14.426  14.188 -0.3398 -0.3558 -0.1436
 1744W        W17553   0.366  12.473  13.222 -0.0228 -0.2050 -0.1127
 1745W        W17554  18.623  14.800  11.667 -0.4357  0.2618  0.0318
 1746W        W17555  15.647   6.593  11.873  0.2187  0.2404 -0.2165
 1747W        W17556  15.102   5.634  10.377  0.2303  0.1228 -0.0694
 1748W        W17557   2.280  17.167  12.344  0.2202  0.3359  0.1696
 1749W        W17558   0.671  10.797   0.350  0.1779  0.1526 -0.3568
 1750W        W17559   0.332  18.296   0.094  0.2237  0.1368 -0.3090
 1751W        W17560  16.003   6.432   4.337  0.0219  0.1669  0.1720
 1752W        W17561  14.633   9.997  10.485  0.0332  0.0902 -0.1591
 1753W        W17562   3.198  17.091  11.413  0.1907  0.0875 -0.1444
 1754W        W17563   7.506   8.726  14.670 -0.1700  0.0152  0.0589
 1755W        W17564  11.098  13.905   0.558 -0.0003  0.0283  0.0156
 1756W        W17565  12.803   7.034   2.398 -0.2782  0.0103  0.1602
 1757W        W17566   6.472   1.177   1.851 -0.0937  0.2983  0.4657
 1758W        W17567   8.596  16.832   1.242 -0.2734  0.0487 -0.0867
 1759W        W17568  10.460  13.040  14.112  0.0021  0.4466  0.0050
 1760W        W17569   5.125  13.918  13.930  0.0457  0.0531  0.2393
 1761W        W17570   8.416  12.778  12.046  0.0368  0.3065  0.2266
 1762W        W17571  14.253  17.776  11.543 -0.1947  0.1484  0.1491
 1763W        W17572   7.986   6.783   4.587 -0.1015  0.0127 -0.0791
 1764W        W17573  11.252  10.400   2.767  0.1180  0.0628 -0.0427
 1765W        W17574  14.234   7.475   2.725  0.3422  0.4690  0.1002
 1766W        W17575   6.761  17.920  12.993  0.0634  0.2439  0.3116
 1767W        W17576   2.953   3.162  14.014  0.0490 -0.0161  0.1061
 1768W        W17577   2.899   5.892  11.773 -0.1829 -0.0440  0.0847
 1769W        W17578   0.951   5.476  15.107 -0.1720  0.1698  0.1749
 1770W        W17579   1.233  14.696  13.467  0.1341  0.0514  0.1807
 1771W        W17580   7.965   5.540  14.815  0.1538  0.0464  0.0961
 1772W        W17581   2.218  15.061  12.023 -0.2491  0.2279  0.2968
 1773W        W17582  11.426   8.207  14.525  0.2073 -0.2222 -0.1104
 1774W        W17583   0.644   3.575  14.723 -0.3626  0.0350 -0.0571
 1775W        W17584  10.402  14.732   3.022  0.0293  0.2900  0.0253
 1776W        W17585   7.528  17.229  12.426  0.0246 -0.0143  0.0375
 1777W        W17586  18.857  13.110  12.872 -0.2534 -0.0136 -0.0998
 1778W        W17587  18.803  15.683  10.970  0.0554 -0.1694  0.4616
 1779W        W17588   6.016  15.768  12.462  0.2100 -0.1418 -0.4473
 1780W        W17589   5.110  11.383  13.519 -0.2438  0.2116  0.2302
 1781W        W17590  13.890   9.568   4.376 -0.0870  0.0322  0.1980
 1782W        W17591  11.377   2.758   3.488  0.4450  0.0225 -0.0391
 1783W        W17592   9.434   6.037   2.282 -0.3274 -0.0198 -0.0142
 1784W        W17593   8.513   4.503   4.551  0.2022  0.1099  0.1912
 1785W        W17594  10.368   8.852  11.978 -0.0459 -0.0972  0.0849
 1786W        W17595  18.550   7.217   5.304 -0.0337  0.0507 -0.0921
 1787W        W17596   9.470   7.839  12.447 -0.2420 -0.2017 -0.4120
 1788W        W17597   1.040  17.795   2.596 -0.2602 -0.0861 -0.2952
 1789W        W17598   0.946   8.509  10.419  0.0704 -0.0577  0.3345
 1790W        W17599  16.244   6.978  13.636 -0.0599 -0.0561  0.1686
 1791W        W17600  10.473   1.398  11.451  0.1955  0.1682 -0.1303
 1792W        W17601   9.245   6.077  15.364 -0.3162  0.2748 -0.0962
 1793W        W17602   9.544  11.459  12.886  0.0735 -0.1805 -0.1959
 1794W        W17603   9.151   3.816   3.527 -0.0411 -0.0983 -0.1119
 1795W        W17604  15.866  14.938  12.974 -0.0413 -0.0918  0.0371
 1796W        W17605   9.738   2.621   4.915  0.2241  0.3225 -0.1388
 1797W        W17606  10.453  14.146  13.580  0.0112  0.3474 -0.1419
 1798W        W17607   3.777   6.830  10.489 -0.0652 -0.1479  0.2617
 1799W        W17608  10.912   1.957  11.971 -0.1131  0.0033  0.2155
 1800W        W17609  18.431   2.816   4.640 -0.1202 -0.0464 -0.1926
 1801W        W17610   7.303   5.835   5.273 -0.0483 -0.2768  0.1615
 1802W        W17611   9.939  16.994  10.657 -0.0820  0.1318  0.1003
 1803W        W17612   2.269  17.584  14.175 -0.0823  0.1474  0.1394
 1804W        W17613   7.311   7.607   2.561  0.0733 -0.0251 -0.0063
 1805W        W17614   5.353   3.621   0.054 -0.2785 -0.1526  0.2404
 1806W        W17615  11.609   1.162   0.383  0.0587 -0.1865  0.1582
 1807W        W17616  13.633   5.700  11.361 -0.0229  0.0992  0.1598
 1808W        W17617   4.656   7.304   5.044 -0.1109  0.1165 -0.0208
 1809W        W17618   8.899   3.558  11.643 -0.0205 -0.2828 -0.0922
 1810W        W17619   8.656   5.468  13.368 -0.1829 -0.1552  0.2430
 1811W        W17620   3.255   4.338   5.000 -0.0450 -0.3760  0.1143
 1812W        W17621  14.771   1.620  13.988 -0.3379 -0.2300 -0.3802
 1813W        W17622   0.007   3.461   0.634  0.2620 -0.1409  0.1288
 1814W        W17623   2.090  11.638  12.640 -0.2842  0.1708  0.3599
 1815W        W17624  18.047  10.153   1.159  0.0996 -0.1344  0.0779
 1816W        W17625   1.239   1.981   3.846 -0.2474 -0.0354 -0.0814
 1817W        W17626   2.077  16.299  11.120  0.0979  0.1570 -0.1203
 1818W        W17627   5.742  17.174  13.260  0.4101 -0.0519  0.3700
 1819W        W17628   3.803   4.414   4.271  0.1502  0.1571 -0.0151
 1820W        W17629   7.379   5.288  14.798 -0.0676 -0.0746 -0.1597
 1821W        W17630   4.491  11.874  11.394  0.0623  0.0553  0.0718
 1822W        W17631  18.270   6.144   3.729 -0.2735  0.2783 -0.0086
 1823W        W17632   6.943   2.564  12.686 -0.0148 -0.1634 -0.0183
 1824W        W17633  18.105   8.619   3.148  0.3829 -0.0381  0.2404
 1825W        W17634   8.098  11.980  11.004 -0.1187 -0.1490  0.1141
 1826W        W17635   8.612   3.296  11.341  0.0877  0.4342  0.1478
 1827W        W17636  12.723  14.426  11.583 -0.0243 -0.0660  0.5582
 1828W        W17637  15.474   8.265  10.895  0.0478 -0.0092 -0.1944
 1829W        W17638  11.364   0.703   2.581 -0.2564 -0.2408  0.2175
 1830W        W17639   0.277   7.925   3.112  0.0601 -0.0315  0.1269
 1831W        W17640   6.776  14.291   2.068  0.0470 -0.0764  0.0629
 1832W        W17641  17.942  14.840   2.557  0.0494 -0.0293 -0.1009
 1833W        W17642   3.952   0.072   4.983 -0.0794  0.0823 -0.1502
 1834W        W17643   2.931  13.900   3.104  0.1353 -0.1090  0.0777
 1835W        W17644  14.391   1.751   1.653 -0.1105 -0.0279 -0.1160
 1836W        W17645  13.439   1.873   3.093  0.0897 -0.2171 -0.1593
 1837W        W17646  14.332   6.991  14.165 -0.0514  0.0783  0.1394
 1838W        W17647   5.823  16.905  10.773 -0.0180 -0.1799 -0.1489
 1839W        W17648  15.452   6.783  13.266 -0.1392  0.1558 -0.2533
 1840W        W17649   5.306   3.525   4.721  0.1568 -0.0520  0.1089
 1841W        W17650   3.642  16.312  13.165 -0.0432 -0.4403  0.0231
 1842W        W17651   8.685  11.873  13.849  0.3228  0.0755 -0.1485
 1843W        W17652   6.596  14.562   3.238 -0.2521 -0.0689 -0.0251
 1844W        W17653   6.787  15.787  12.979 -0.1199 -0.0393  0.0524
 1845W        W17654   2.418   4.332   6.427  0.0452 -0.4457 -0.2646
 1846W        W17655  16.607  17.067   3.082  0.3203 -0.0531  0.1020
 1847W        W17656  16.486   0.704   2.817 -0.0749  0.3103  0.0237
 1848W        W17657  16.734   7.036  12.149  0.0758 -0.1349 -0.5014
 1849W        W17658   5.429  17.547   0.320 -0.0106  0.0073 -0.0185
 1850W        W17659   5.393  16.995  13.598 -0.3938  0.0878  0.2446
 1851W        W17660  17.706  16.004   4.555  0.1366  0.0159 -0.0616
 1852W        W17661   4.702   6.346   3.968 -0.3384 -0.2559  0.2200
 1853W        W17662   8.982  17.941  13.896  0.0174  0.1185  0.1267
 1854W        W17663  12.788  12.564   5.914  0.0376 -0.0348 -0.0262
 1855W        W17664   7.960   6.666  11.700 -0.0844 -0.2975 -0.1238
 1856W        W17665  14.347   4.474   2.490  0.2940  0.2990 -0.0619
 1857W        W17666  12.934   9.414   4.802 -0.0912 -0.1234 -0.1953
 1858W        W17667   2.687  17.374  11.504 -0.1344 -0.3108 -0.0317
 1859W        W17668   4.174   9.186  11.425 -0.1237 -0.0857  0.2578
 1860W        W17669  11.986  10.894   2.509 -0.0513  0.1029  0.1659
 1861W        W17670  16.599  13.464  12.604 -0.0137 -0.1776 -0.0857
 1862W        W17671  11.941  12.462   3.545  0.1454 -0.0295  0.1167
 1863W        W17672   3.808   0.316  15.101 -0.0681 -0.3016  0.4198
 1864W        W17673  15.888  13.006  14.453 -0.1164 -0.1747  0.2851
 1865W        W17674  15.624  13.431  10.668 -0.1560 -0.3847 -0.1484
 1866W        W17675   9.741   2.743  12.483 -0.1322  0.0374 -0.1317
 1867W        W17676  16.975   3.694  13.137  0.1439 -0.2509  0.1145
 1868W        W17677   9.894   9.442  11.552  0.3815  0.2651  0.0821
 1869W        W17678   1.837  13.903   0.064  0.1907 -0.1375 -0.0346
 1870W        W17679  15.211   8.808  12.515 -0.1045 -0.3089 -0.0943
 1871W        W17680   1.802   5.915  15.130 -0.3433 -0.1626  0.0784
 1872W        W17681   5.293  17.532   1.555  0.1390  0.1091 -0.0199
 1873W        W17682   8.495   0.433   4.251 -0.0221 -0.3274  0.3366
 1874W        W17683   7.801  16.316  14.133  0.1490 -0.2500  0.1824
 1875W        W17684   8.825   9.211   4.073  0.0157 -0.0126  0.1552
 1876W        W17685   0.067   6.681  14.031 -0.2693 -0.1777 -0.0922
 1877W        W17686   0.429  13.520   4.292 -0.0318  0.1794  0.0748
 1878W        W17687  11.680   1.187   5.735  0.0977  0.0413  0.1836
 1879W        W17688   3.449  16.600   3.491 -0.0072  0.2908  0.1807
 1880W        W17689  14.397  15.286  12.533 -0.2903 -0.0784 -0.0881
 1881W        W17690  16.721  17.484   0.003  0.1667  0.3115  0.0068
 1882W        W17691  13.396   6.341  13.399  0.3420  0.0930 -0.0425
 1883W        W17692  15.660  16.561   3.408 -0.0225 -0.0549 -0.3529
 1884W        W17693  11.200   3.027   2.105  0.2735  0.1599  0.2378
 1885W        W17694   9.212  13.851  14.172  0.2140 -0.1494 -0.0618
 1886W        W17695   6.253  10.361   2.292 -0.1132  0.1327 -0.3675
 1887W        W17696   9.728  13.057   3.684  0.0632  0.0628 -0.0240
 1888W        W17697   0.592  10.569   4.399 -0.1783  0.0181 -0.0270
 1889W        W17698   6.123  16.384   1.875 -0.1504  0.3165  0.2483
 1890W        W17699  14.384   1.467  14.267 -0.1689 -0.0608 -0.0005
 1891W        W17700   0.737  12.373   0.924  0.0974  0.2037  0.3390
 1892W        W17701   4.414   7.754   4.093 -0.0864 -0.0763 -0.0472
 1893W        W17702  16.069  13.109  13.982  0.0126 -0.1154 -0.0479
 1894W        W17703   5.745   1.275  12.702 -0.0808  0.1416  0.1611
 1895W        W17704  11.288   9.406   1.147 -0.0244  0.1238 -0.1355
 1896W        W17705  14.166   1.264   3.652 -0.1227  0.1947  0.2547
 1897W        W17706  14.885  16.282   2.291 -0.2593  0.1857  0.0469
 1898W        W17707  11.233   1.912   3.462 -0.2184 -0.1106 -0.1366
 1899W        W17708   3.585  17.708  10.886  0.1582 -0.1554 -0.2028
 1900W        W17709  12.277  16.881  13.601 -0.4137 -0.2287 -0.0648
 1901W        W17710  13.985  11.801   4.807  0.0065 -0.2844  0.0730
 1902W        W17711   7.604   2.491   2.578  0.1590 -0.1067 -0.2570
 1903W        W17712  11.252  13.738  10.846  0.2462 -0.0650  0.4254
 1904W        W17713   8.838   4.966   2.542 -0.0149  0.0919 -0.2125
 1905W        W17714   3.149  10.468   5.195 -0.1327 -0.2997 -0.0165
 1906W        W17715   0.544   9.688  14.608 -0.1391  0.2748  0.0282
 1907W        W17716  10.904   2.004   3.063 -0.0968  0.0294  0.0895
 1908W        W17717   5.192   2.149  15.214  0.0751  0.0352 -0.1032
 1909W        W17718  17.596   7.318   0.275  0.0228  0.2435  0.0972
 1910W        W17719   4.927   6.788  14.221 -0.1331  0.0848 -0.1410
 1911W        W17720   8.890   6.545  11.825  0.0921  0.1522  0.0909
 1912W        W17721   9.822   3.590   1.220 -0.1089  0.2963 -0.0203
 1913W        W17722  16.168  13.978   2.249  0.2252 -0.1819 -0.0309
 1914W        W17723  18.835  13.599  12.566  0.0468 -0.2083 -0.2033
 1915W        W17724  12.645  12.499   0.120 -0.1051 -0.1254  0.0208
 1916W        W17725  14.668   5.843   2.064  0.0837 -0.0697  0.1234
 1917W        W17726   4.273   9.649  10.559  0.2105  0.1096  0.2962
 1918W        W17727  13.707  10.872  13.677  0.1305  0.0713 -0.1562
 1919W        W17728  11.714  15.612   1.366  0.0891  0.2302  0.1200
 1920W        W17729  15.796   0.658  13.475  0.4206  0.0373  0.1989
 1921W        W17730   4.877   1.656   1.509  0.1734  0.0339  0.0880
 1922W        W17731  17.497   8.495   2.305  0.1672  0.1950  0.3046
 1923W        W17732   8.654   6.972   3.489  0.0516 -0.0472  0.1968
 1924W        W17733   2.773  17.104   3.542  0.0426 -0.2083 -0.0520
 1925W        W17734  12.361  10.757   5.048  0.0487 -0.0825  0.0492
 1926W        W17735  11.045   1.593   2.827 -0.1326  0.3348 -0.1441
 1927W        W17736   3.633   5.264   1.457  0.0510  0.2471 -0.0716
 1928W        W17737   2.699  15.676   4.626  0.1569  0.3035 -0.0884
 1929W        W17738   3.522  18.268  14.492  0.1824  0.0093 -0.4965
 1930W        W17739   9.150  17.944  12.701  0.0630  0.2020 -0.0189
 1931W        W17740  16.373   3.953   5.054  0.0692 -0.0294  0.3128
 1932W        W17741   5.232  12.498  13.308 -0.1145 -0.0730  0.0995
 1933W        W17742   5.683   2.734  11.459  0.0882  0.1756 -0.1166
 1934W        W17743  12.721   8.011   4.465 -0.1928  0.0503  0.0370
 1935W        W17744   1.667  18.759  15.420 -0.4155 -0.1165  0.0034
 1936W        W17745   2.941   4.095   1.062  0.2337 -0.0729 -0.3391
 1937W        W17746  10.145   7.894   1.173 -0.2212 -0.1459  0.0234
 1938W        W17747   4.607  14.881  14.510  0.1566  0.1869 -0.1057
 1939W        W17748  12.419   3.854   4.931  0.0451  0.1057  0.1307
 1940W        W17749  14.846   1.992   1.540  0.1131 -0.0662  0.2403
 1941W        W17750  17.890   4.897   4.141 -0.3037  0.1201  0.1232
 1942W        W17751  13.560   0.920  14.461  0.3707 -0.0977 -0.3334
 1943W        W17752   0.272  12.550  11.242  0.1252 -0.2235  0.3089
 1944W        W17753  13.706  16.770   2.662  0.3473 -0.0865 -0.1069
 1945W        W17754   9.352   1.393  12.105 -0.0481 -0.0590  0.2056
 1946W        W17755   5.340  12.605  14.267  0.0325 -0.1135 -0.1004
 1947W        W17756  11.341   8.088  13.085 -0.1212  0.1498  0.2750
 1948W        W17757   3.191  18.022  11.042 -0.0559 -0.1565  0.1671
 1949W        W17758  15.136   4.994  13.125 -0.0582 -0.1092  0.1236
 1950W        W17759  18.089   4.269   0.894 -0.1258 -0.0011  0.1119
 1951W        W17760   9.664   9.989  13.391  0.2402  0.3697  0.0653
 1952W        W17761  10.452   2.690  10.098 -0.2252 -0.1123  0.0879
 1953W        W17762   9.279   3.132  11.634 -0.5767  0.1964 -0.1589
 1954W        W17763  14.878  18.515   1.735  0.3013 -0.1685  0.1872
 1955W        W17764  13.103  11.838  14.052 -0.2426 -0.0240 -0.0547
 1956W        W17765  12.277  10.508  13.679 -0.1256 -0.0706 -0.0585
 1957W        W17766   5.866   0.187   0.279 -0.2629 -0.3192  0.1763
 1958W        W17767  13.237   0.919   4.496  0.1370  0.3298  0.0137
 1959W        W17768  17.609   3.164   4.259 -0.0477 -0.3701  0.1904
 1960W        W17769  11.710  18.288   4.593  0.4584  0.2002  0.2215
 1961W        W17770   0.710  13.466   2.326  0.0201 -0.4003 -0.3768
 1962W        W17771   7.374   1.716  13.630  0.2550  0.0692 -0.0517
 1963W        W17772  16.267   9.724  12.467 -0.1867 -0.1956  0.0328
 1964W        W17773  15.367   2.844  11.641 -0.1659  0.1715 -0.1025
 1965W        W17774  11.975   3.117   2.769  0.1365 -0.3294  0.0438
 1966W        W17775   2.344  17.607   4.194  0.0366  0.1363 -0.1034
 1967W        W17776   9.496   5.673  13.588  0.0619 -0.1325 -0.2819
 1968W        W17777   3.973  18.420  11.609  0.3017  0.0419  0.0995
 1969W        W17778   4.413   9.566  14.500 -0.1610 -0.1137  0.2403
 1970W        W17779  12.698   4.900   4.103 -0.2959 -0.2664  0.1295
 1971W        W17780   0.787  14.656  11.376  0.0813  0.0673 -0.2782
 1972W        W17781   0.458  10.545  12.695 -0.1367 -0.1045  0.3265
 1973W        W17782   3.071  10.101   1.839  0.1551 -0.3027  0.1855
 1974W        W17783   0.538  10.675   2.314  0.4678 -0.2332  0.2463
 1975W        W17784  11.791   5.912  10.751 -0.0236 -0.2795  0.0790
 1976W        W17785  14.898  15.822  10.865  0.0969  0.0334 -0.0795
 1977W        W17786  17.054   3.050  13.326 -0.1317 -0.1366  0.1529
 1978W        W17787  13.321   1.094  15.080 -0.0412  0.0904  0.0485
 1979W        W17788  18.527  14.397  11.027  0.2584  0.1691  0.0586
 1980W        W17789   5.885  13.033   4.110 -0.0457 -0.1543 -0.0967
 1981W        W17790   6.555  14.559  14.593  0.2054 -0.0371  0.0007
 1982W        W17791   9.499   1.206  12.541  0.0984 -0.0921  0.2394
 1983W        W17792  10.445  11.931  12.851 -0.0145  0.1203 -0.1186
 1984W        W17793  18.603  14.546  13.516  0.1481 -0.3663 -0.3772
 1985W        W17794  15.411  16.690   4.377  0.4007 -0.2545  0.3136
 1986W        W17795  17.265   3.337   3.119  0.2162 -0.3391 -0.2095
 1987W        W17796  14.849   2.973  13.286 -0.1568  0.0523 -0.1274
 1988W        W17797  15.964   9.726   5.329 -0.0738 -0.1098 -0.3225
 1989W        W17798   3.841  12.865  15.039  0.0606 -0.0043 -0.1193
 1990W        W17799  14.351  10.082   2.448  0.2669  0.1052  0.0990
 1991W        W17800  12.986  17.739  13.279 -0.0331  0.1309  0.1971
 1992W        W17801  16.733   3.353   2.552 -0.2158 -0.0297 -0.1338
 1993W        W17802   2.737  12.619   4.837  0.2672 -0.1974  0.2344
 1994W        W17803   1.683   0.633  11.091  0.0473  0.0540  0.0573
 1995W        W17804   4.533  12.807  11.846 -0.0869  0.0035  0.0815
 1996W        W17805   0.592   4.580  12.927  0.1127  0.0235 -0.0787
 1997W        W17806   3.130  15.447   0.603 -0.0817 -0.0131 -0.0256
 1998W        W17807   6.863   5.040  12.888 -0.0185 -0.0010 -0.1674
 1999W        W17808   2.031  17.462   0.475  0.3599 -0.2614  0.0069
 2000W        W17809   5.333   6.502  12.482  0.2068  0.2192 -0.0856
 2001W        W17810   7.820  11.597  10.340 -0.2987 -0.0866 -0.1815
 2002W        W17811  10.525  16.642   1.385 -0.2558 -0.1508 -0.1224
 2003W        W17812   8.054   4.815   2.905  0.1339  0.3440  0.0874
 2004W        W17813   4.410   1.377  10.590  0.0003 -0.0902 -0.1432
 2005W        W17814  11.508  17.384   3.341  0.0752  0.0308  0.1677
 2006W        W17815   2.664  13.207  14.476  0.0009  0.1970  0.1800
 2007W        W17816  14.019   3.767  12.462  0.2001 -0.1360  0.1727
 2008W        W17817  17.075  10.241  11.824  0.1752 -0.1143  0.0651
 2009W        W17818  10.383   3.582  13.090  0.1306 -0.1237  0.0008
 2010W        W17819  16.022  14.191   5.488 -0.2044 -0.0240  0.0661
 2011W        W17820  18.124  11.870   2.773 -0.0160 -0.1612 -0.4024
 2012W        W17821   3.944  13.739  14.097 -0.0177 -0.2746  0.0459
 2013W        W17822   1.392   0.687  13.190 -0.2369  0.2224 -0.1592
 2014W        W17823  10.072   0.664   1.945 -0.0535 -0.3072  0.1749
 2015W        W17824  13.330  13.282  10.878 -0.0396  0.1518 -0.0261
 2016W        W17825  10.056  11.104   3.749 -0.1837  0.0714  0.0665
 2017W        W17826  10.298  15.630   3.417 -0.1139  0.3402  0.3076
 2018W        W17827  15.824  18.229  10.903 -0.1964  0.1715 -0.1661
 2019W        W17828   2.407  18.616   0.469 -0.0090 -0.2336  0.0294
 2020W        W17829   0.972   6.408   1.328  0.4425 -0.0758 -0.0701
 2021W        W17830  17.879   0.678   3.080 -0.2031  0.1344 -0.1782
 2022W        W17831  17.293  15.238  13.384 -0.3635  0.2230  0.0209
 2023W        W17832   5.807   8.268  10.740 -0.1479  0.0711 -0.1084
 2024W        W17833   7.415  11.906  14.643  0.0794  0.1152  0.0624
 2025W        W17834   9.768  17.861   2.225 -0.3278  0.0277 -0.2027
 2026W        W17835   7.617  17.241   2.616 -0.2578  0.0833  0.0426
 2027W        W17836   4.434   5.834  12.744 -0.0416 -0.1097  0.3119
 2028W        W17837  12.140  12.552   0.240 -0.0627 -0.2956  0.2613
 2029W        W17838   2.584  14.027   2.320 -0.2208  0.0277  0.0614
 2030W        W17839   2.286   4.970   9.621  0.3207  0.1653  0.0461
 2031W        W17840   2.471  15.591   0.082 -0.1513 -0.2256  0.2161
 2032W        W17841   5.977  14.749   2.720 -0.1007  0.5898  0.1581
 2033W        W17842   0.906   7.229  10.958  0.1686  0.1908 -0.0436
 2034W        W17843   6.431  15.793  14.045  0.2887  0.0250  0.0966
 2035W        W17844  10.461   4.876   1.386 -0.0719 -0.3015  0.2553
 2036W        W17845   8.731  10.622  11.262 -0.0573  0.0333  0.0188
 2037W        W17846   9.386   2.898  15.381  0.1967  0.0035  0.0200
 2038W        W17847   3.840  12.666  10.175 -0.0038 -0.0230  0.2409
 2039W        W17848  11.492   0.495  13.636  0.0428  0.1801  0.3218
 2040W        W17849  16.418   4.897   2.153 -0.0641  0.2620 -0.1530
 2041W        W17850  13.896  13.754   1.767 -0.0597 -0.1241  0.1246
 2042W        W17851  17.181   7.568   2.033  0.1141  0.2035 -0.3080
 2043W        W17852   4.637  16.238  12.133  0.2344  0.2355 -0.0019
 2044W        W17853   3.376   7.068   3.559 -0.1819  0.1563 -0.1861
 2045W        W17854  14.253  17.215   4.607 -0.1098 -0.0722  0.0447
 2046W        W17855   8.252   7.686  11.885 -0.2278 -0.0413 -0.3427
 2047W        W17856  15.143   3.222  12.919 -0.2715  0.0106 -0.2091
 2048W        W17857  13.499  16.488   0.040  0.0770  0.3149 -0.3290
 2049W        W17858   0.226   1.188   2.289  0.0497 -0.3761 -0.2915
 2050W        W17859  14.073   7.245   3.638  0.2855  0.1798  0.4358
 2051W        W17860   4.533   8.617  12.095 -0.2758 -0.3323 -0.0463
 2052W        W17861   7.924   3.509   1.297 -0.0699  0.0537  0.2095
 2053W        W17862   0.079   9.805   4.899 -0.3724 -0.1418 -0.2194
 2054W        W17863   5.648   6.670   2.303  0.2312 -0.4200 -0.1383
 2055W        W17864  14.762   2.598  11.184  0.0794  0.0635  0.1109
 2056W        W17865  11.274   8.400  10.931 -0.1750 -0.0551  0.2763
 2057W        W17866  14.489  12.929  12.848 -0.0630  0.0429  0.0095
 2058W        W17867  18.439  16.096  13.493 -0.0111 -0.1616  0.0790
 2059W        W17868   2.616   1.582  10.819 -0.2967 -0.4950 -0.4594
 2060W        W17869   5.984   0.454   1.816  0.0370 -0.0820  0.2525
 2061W        W17870   6.611  15.353   2.688  0.2155  0.0045 -0.0028
 2062W        W17871  11.992  10.426  12.638  0.0513 -0.1648  0.2672
 2063W        W17872  13.776   2.765   2.940  0.3469  0.1961 -0.1139
 2064W        W17873   2.797  13.981  15.401 -0.0534  0.0424  0.2258
 2065W        W17874  12.940   5.592   2.159 -0.2090  0.3960 -0.0144
 2066W        W17875   2.438   4.465   4.836 -0.0459  0.0333  0.0779
 2067W        W17876   4.086   5.268   2.372 -0.0512 -0.1154 -0.3259
 2068W        W17877   5.230   2.137   5.651  0.3190 -0.2909  0.1106
 2069W        W17878  14.499   1.075   5.639  0.1434 -0.1153 -0.0113
 2070W        W17879  15.277  13.747  12.425 -0.0034  0.2876  0.3389
 2071W        W17880  16.541  16.362   2.361  0.4120  0.1394  0.2985
 2072W        W17881   4.239  11.086  13.582  0.3308 -0.4110 -0.0692
 2073W        W17882   9.960   1.942  11.903  0.0741 -0.0471 -0.0800
 2074W        W17883   9.039  10.111   3.319  0.1072  0.0312  0.0356
 2075W        W17884   3.716   2.558   3.373 -0.0100  0.2873  0.3759
 2076W        W17885  17.162  18.170   2.513 -0.2014  0.1234  0.0758
 2077W        W17886   5.368   9.200   0.011 -0.1012 -0.2019 -0.0128
 2078W        W17887   8.252  10.813  11.230 -0.3135 -0.3264 -0.0161
 2079W        W17888  14.553   6.617   4.628 -0.0794  0.0479  0.1010
 2080W        W17889  13.619  12.494  11.929 -0.1516 -0.0470 -0.2694
 2081W        W17890  12.994   1.926  15.162  0.0740 -0.1533 -0.2037
 2082W        W17891   4.399  17.995   9.992 -0.1039  0.2822 -0.1379
 2083W        W17892   6.891  15.382   3.223  0.2549 -0.2878 -0.0217
 2084W        W17893   8.030  10.482  13.014 -0.2788  0.0416 -0.1395
 2085W        W17894   4.209   4.560  14.475 -0.0901  0.0458 -0.1471
 2086W        W17895   6.205   3.143  14.090 -0.1412  0.1206  0.1394
 2087W        W17896   8.552  11.645   3.203  0.0447  0.0111  0.1952
 2088W        W17897   7.633   8.153  14.668  0.4336 -0.4737 -0.1340
 2089W        W17898   0.492   5.543   1.881  0.0935  0.1908 -0.2539
 2090W        W17899  16.154   7.758   2.280 -0.0464 -0.1644 -0.1388
 2091W        W17900  16.031  11.658  11.790  0.0080  0.0120  0.0248
 2092W        W17901   5.972   9.642  14.769 -0.1362 -0.3115  0.0546
 2093W        W17902   3.596   5.300   2.397  0.4290  0.1866  0.3073
 2094W        W17903   3.230  10.690  13.289 -0.3451 -0.2647  0.1119
 2095W        W17904   8.009   0.473  11.225  0.2079 -0.1808 -0.2125
 2096W        W17905   5.460  18.692  10.953 -0.1511 -0.2807  0.0120
 2097W        W17906   8.913  13.109   5.295 -0.1893  0.4877 -0.3130
 2098W        W17907  10.206   2.083   0.423 -0.2495 -0.0398 -0.0240
 2099W        W17908  11.302  11.467  13.220 -0.1005 -0.0452 -0.0231
 2100W        W17909  12.022   2.593   3.656  0.2286  0.1871 -0.0626
 2101W        W17910  18.485  17.408  12.326  0.1477  0.0071 -0.2392
 2102W        W17911   6.807   7.199   4.031 -0.0056  0.1066 -0.2955
 2103W        W17912  11.449   3.723   2.817 -0.0322  0.2158 -0.3405
 2104W        W17913  10.176   4.442  13.612  0.2411 -0.0290  0.0378
 2105W        W17914  12.316   0.706  11.307  0.0460  0.0059 -0.0281
 2106W        W17915   7.284   3.456  14.262 -0.0997 -0.0460 -0.1883
 2107W        W17916  17.703   0.920   1.614 -0.2269  0.2693 -0.3532
 2108W        W17917   3.848   8.862  14.032 -0.0618  0.0709 -0.2960
 2109W        W17918  15.564   2.711  14.019  0.1347  0.4251  0.1130
 2110W        W17919   3.588  10.387  11.739  0.2317  0.2030  0.2422
 2111W        W17920  13.504   7.870   3.208 -0.2900  0.0701  0.1080
 2112W        W17921   0.754  12.934   5.153 -0.2309 -0.2657 -0.2694
 2113W        W17922   6.768   7.491  12.270  0.0143 -0.1168  0.2248
 2114W        W17923   5.118  18.251  11.626  0.1071  0.1359  0.0612
 2115W        W17924  16.934  15.632  14.096 -0.2877  0.3078 -0.0351
 2116W        W17925  13.213  14.013  14.153 -0.0126 -0.1819 -0.0058
 2117W        W17926   0.650  11.049   1.375 -0.0437 -0.0565 -0.1481
 2118W        W17927   7.047  11.486  12.515  0.1036 -0.0541  0.0226
 2119W        W17928  10.875  10.674   3.988 -0.4674 -0.2131  0.0411
 2120W        W17929   6.569   4.043   0.905  0.0025  0.2245  0.2363
 2121W        W17930   4.405  13.651  11.857  0.0414 -0.2161  0.2809
 2122W        W17931   8.133  14.021  10.440  0.1081  0.0022 -0.1006
 2123W        W17932   9.989  17.721  11.842  0.2420  0.3760 -0.0074
 2124W        W17933  18.398  17.303   1.862 -0.2053 -0.0166 -0.1211
 2125W        W17934   0.483   0.890   5.900  0.1754 -0.0927 -0.2305
 2126W        W17935  14.628   9.210  11.865 -0.1542  0.1390  0.1625
 2127W        W17936   5.241   8.687   3.024  0.1332  0.3105  0.0238
 2128W        W17937  12.247  11.040  14.800  0.1273 -0.0152  0.1929
 2129W        W17938   8.447  13.601  13.310  0.2319 -0.3339 -0.1048
 2130W        W17939  13.672  10.965  12.252 -0.1144  0.3919  0.1409
 2131W        W17940   2.236   2.477   3.850  0.2294 -0.0330 -0.1388
 2132W        W17941  11.122   8.159  14.072 -0.0636 -0.0726 -0.2055
 2133W        W17942   8.182  13.277  10.393 -0.1592 -0.0656  0.1500
 2134W        W17943   3.485  15.912  13.402 -0.2740 -0.1664  0.1832
 2135W        W17944   9.215   7.911   1.183 -0.2151  0.2593  0.1933
 2136W        W17945  16.532  10.952   4.121  0.0075  0.0346 -0.0340
 2137W        W17946   4.271  18.672  10.317 -0.1634 -0.0430  0.0604
 2138W        W17947   7.018  15.150   4.877  0.2089  0.2826  0.0763
 2139W        W17948  16.912   1.028  11.027 -0.0500  0.0249 -0.0246
 2140W        W17949   3.216   9.743  12.494  0.3011 -0.3101  0.0428
 2141W        W17950   2.925   1.364  11.212  0.0257  0.0861  0.2122
 2142W        W17951  12.977  14.803   4.491  0.2285 -0.1192 -0.1729
 2143W        W17952  12.743  12.594  10.846  0.0075 -0.4837  0.0651
 2144W        W17953   4.301  11.451  12.108  0.0320  0.0044 -0.1072
 2145W        W17954  10.838  16.830  10.599  0.1953  0.2962  0.2356
 2146W        W17955   9.317   5.965  13.136  0.0209 -0.0594 -0.2021
 2147W        W17956   7.888   6.309   4.456 -0.2990 -0.2657  0.0110
 2148W        W17957  13.003   3.136   1.516 -0.3896  0.2097 -0.1437
 2149W        W17958  18.109  16.180  12.527 -0.1954 -0.0922  0.1156
 2150W        W17959  10.470  12.750   1.394  0.0964 -0.1989 -0.1118
 2151W        W17960   4.561  13.317   4.247  0.0851  0.2110 -0.3729
 2152W        W17961  17.023  16.151  14.941  0.1039 -0.1505  0.2200
 2153W        W17962   0.149  15.193   4.737  0.2899  0.0468 -0.2528
 2154W        W17963  12.407  14.211  14.123  0.5736  0.0299  0.0346
 2155W        W17964  18.372  14.126   1.776  0.0016 -0.0915 -0.1693
 2156W        W17965   4.151   3.710  10.724 -0.4434 -0.3766  0.1431
 2157W        W17966  18.091  15.645  12.645 -0.1674 -0.0014  0.3642
 2158W        W17967   8.586  18.117  14.145  0.1213  0.0480 -0.0705
 2159W        W17968   7.145   5.747  10.885  0.1208  0.0715  0.1034
 2160W        W17969   6.909   3.145   4.329 -0.2170  0.0420 -0.0488
 2161W        W17970  18.576  10.832   2.044 -0.0862 -0.1022 -0.1679
 2162W        W17971  16.373  12.768   0.471  0.0108  0.0372  0.0428
 2163W        W17972   3.862   9.909   1.679 -0.0187  0.0602 -0.0343
 2164W        W17973  16.817   9.016   0.026 -0.0617  0.1982  0.1073
 2165W        W17974   0.756   1.905   1.496  0.0352 -0.0422  0.1563
 2166W        W17975  16.465  15.005  12.747 -0.3711 -0.2384  0.3637
 2167W        W17976  12.536  15.616  13.315 -0.0167 -0.0256 -0.0493
 2168W        W17977   9.842   8.275  11.301 -0.2285 -0.1383 -0.2835
 2169W        W17978  14.231   8.259  14.757  0.0584 -0.3328  0.0607
 2170W        W17979   6.205   9.523   4.247 -0.2545 -0.1549 -0.1114
 2171W        W17980   3.948   6.145   2.571 -0.0032 -0.1091  0.0822
 2172W        W17981  13.754  12.288   0.783 -0.0140 -0.0884  0.0368
 2173W        W17982   2.171  16.006  12.982  0.1431  0.2647  0.0227
 2174W        W17983  17.193   5.017  12.673  0.3442 -0.1794 -0.1547
 2175W        W17984   9.801  12.234   2.891  0.0036  0.1167  0.1369
 2176W        W17985  12.599   6.957   2.950 -0.1977 -0.1105 -0.1827
 2177W        W17986   3.800   0.439  13.147 -0.0093 -0.0621 -0.1142
 2178W        W17987   9.097  11.917   4.296 -0.0381  0.2589  0.0085
 2179W        W17988   4.429  17.771   2.294 -0.2101  0.2844  0.4879
 2180W        W17989   2.913  11.697  13.168 -0.0052 -0.0241  0.1606
 2181W        W17990  15.475   9.170   2.934 -0.0822 -0.1556 -0.0138
 2182W        W17991   1.117   6.554  12.349  0.0679 -0.1399 -0.0965
 2183W        W17992  13.796  17.556  15.124 -0.0446 -0.0537 -0.0111
 2184W        W17993   1.011  12.733  12.846 -0.4334  0.0016  0.1096
 2185W        W17994  13.109   8.906   2.248  0.2108 -0.1382  0.1730
 2186W        W17995  10.610   6.022   3.748 -0.0190 -0.2574  0.1278
 2187W        W17996  17.653   6.955   4.509 -0.4009  0.0095 -0.0046
 2188W        W17997   3.722  11.405   4.253 -0.1787 -0.1725 -0.1673
 2189W        W17998  15.501   8.896   0.551  0.2009  0.1667 -0.0383
 2190W        W17999  17.368   5.132  11.415  0.2035 -0.2507  0.0321
 2191W        W18000  13.077   0.659  13.522  0.2137 -0.2341  0.1460
 2192W        W18001  13.732  16.850  12.958  0.1239 -0.1774 -0.1413
 2193W        W18002   6.757   8.433   2.840 -0.0380  0.1352  0.1523
 2194W        W18003   1.900  15.652   3.734  0.4644 -0.5803  0.1986
 2195W        W18004  11.709  16.013  14.061 -0.3002 -0.0571  0.2024
 2196W        W18005  12.215  18.360   4.728  0.0096  0.2063  0.1926
 2197W        W18006  12.173  13.850  14.538  0.0129  0.1540 -0.0792
 2198W        W18007   9.519  11.814   2.378  0.3588 -0.2606  0.0416
 2199W        W18008  11.399   3.242  12.631 -0.0008 -0.2466  0.1293
 2200W        W18009   1.478   0.213   3.686 -0.0429  0.0160 -0.0337
 2201W        W18010  14.927  13.346   5.697  0.1513 -0.1453 -0.0373
 2202W        W18011   4.266   2.269   3.546 -0.0136  0.1778  0.2111
 2203W        W18012  12.278   8.027  14.903 -0.0364 -0.3073 -0.0555
 2204W        W18013   1.497  16.518  13.421 -0.0255  0.0083  0.1081
 2205W        W18014   5.351   2.584  14.004 -0.1496 -0.0989  0.2069
 2206W        W18015  13.666  14.198   2.905  0.0780 -0.1040 -0.0507
 2207W        W18016  17.813   8.502   3.752  0.3103 -0.0270  0.2227
 2208W        W18017   7.105   8.968  14.433 -0.3351  0.2976  0.1145
 2209W        W18018   3.118   2.439  10.777 -0.1958  0.0959 -0.1036
 2210W        W18019   4.524  15.410   0.797  0.0953 -0.2257  0.0189
 2211W        W18020   4.762   1.823   2.524  0.1407  0.0874 -0.2292
 2212W        W18021  15.485   2.857   2.745  0.0169 -0.1197 -0.1031
 2213W        W18022   0.498   0.309   0.198 -0.0926 -0.0613  0.1225
 2214W        W18023   8.518  18.889   0.530 -0.0724 -0.1335  0.1221
 2215W        W18024   5.474   9.947   0.774  0.1624  0.0176 -0.2209
 2216W        W18025   3.854   0.486  11.552  0.2012 -0.4896  0.0207
 2217W        W18026  14.683   7.298  11.458 -0.2760 -0.0677  0.1970
 2218W        W18027   2.259   7.719   5.252 -0.1590  0.1833  0.0126
 2219W        W18028   3.470   9.562  10.995 -0.0080 -0.1708 -0.3520
 2220W        W18029   4.724  14.306  13.876 -0.1635 -0.1804 -0.0448
 2221W        W18030   9.103  13.562  12.444  0.1688  0.1246 -0.0987
 2222W        W18031   3.460  11.129   3.251  0.0727  0.0898  0.1428
 2223W        W18032  10.214   7.962  14.552  0.1793  0.0022 -0.3217
 2224W        W18033  10.979   5.654  13.503  0.0642  0.0639  0.1522
 2225W        W18034  10.436   3.192   2.956 -0.3086 -0.1563  0.0345
 2226W        W18035  13.834   9.598   5.729  0.2978  0.0199  0.0283
 2227W        W18036   8.435  14.608   1.571  0.1332  0.0711 -0.0176
 2228W        W18037   4.335  15.214  11.223  0.0399  0.1939 -0.5545
 2229W        W18038  10.428  10.319  12.941  0.2850 -0.0048 -0.2250
 2230W        W18039   5.476   0.253   3.793  0.0083 -0.1690  0.0990
 2231W        W18040  12.387  18.334  11.023 -0.0091  0.0339 -0.3727
 2232W        W18041  16.569  13.669  12.090 -0.0974  0.1870  0.1418
 2233W        W18042   8.383   5.893  10.075 -0.4482 -0.2208  0.1050
 2234W        W18043   8.193  15.155   0.877 -0.0045 -0.0743 -0.1812
 2235W        W18044   3.359   8.277  12.278  0.0467 -0.0633  0.2893
 2236W        W18045   7.930  10.603   4.137  0.0459  0.1114 -0.0827
 2237W        W18046  18.411   9.030  11.650 -0.0554 -0.0482  0.2552
 2238W        W18047  18.820   5.855   3.483 -0.1244  0.0028 -0.0951
 2239W        W18048   1.908  10.675   1.147 -0.0949  0.2724 -0.1643
 2240W        W18049  15.936   8.708   3.527  0.4033  0.0996  0.1660
 2241W        W18050  15.114   5.221  12.242 -0.2615  0.1797 -0.3505
 2242W        W18051  10.389   1.619  14.125 -0.1520  0.4157  0.0072
 2243W        W18052  10.730   4.578  14.992  0.0614  0.2086  0.3459
 2244W        W18053   1.044   9.099  10.944 -0.1801 -0.0827  0.0948
 2245W        W18054  11.135   8.841   4.713 -0.2177 -0.0397 -0.0494
 2246W        W18055   1.502  17.837  10.957 -0.0298  0.1086 -0.0218
 2247W        W18056   6.908  18.509  11.193 -0.2626 -0.0905  0.0345
 2248W        W18057  15.217  15.335   0.444  0.0141 -0.1842 -0.0772
 2249W        W18058   5.761   4.720   3.664  0.0072  0.1768 -0.1208
 2250W        W18059  11.909  10.917  13.702  0.4218  0.2030 -0.0339
 2251W        W18060   7.674   5.156  13.605 -0.0677  0.0759  0.1768
 2252W        W18061   2.628  10.164   1.520 -0.1015  0.1374  0.1076
 2253W        W18062  11.121  14.128  14.555 -0.0828 -0.1800  0.1616
 2254W        W18063   6.739  15.508  12.433 -0.3457  0.0209  0.1630
 2255W        W18064  10.083  17.725  11.292 -0.1364  0.0626  0.1880
 2256W        W18065  14.914   5.489  11.504  0.1685 -0.0060  0.0804
 2257W        W18066   8.510   4.218  13.137  0.2498  0.1425 -0.0585
 2258W        W18067   7.098   6.941   4.363 -0.0001  0.1702 -0.4031
 2259W        W18068   0.195  15.045   0.220 -0.0883 -0.0116 -0.1621
 2260W        W18069  17.844   4.846   1.976  0.0252 -0.0412 -0.0540
 2261W        W18070  11.810  10.338   2.030 -0.0064  0.0757 -0.0350
 2262W        W18071  14.083   2.221   4.232  0.0176  0.2679  0.2254
 2263W        W18072  15.299  16.503   2.515  0.1712 -0.2543  0.0711
 2264W        W18073  11.465   5.608  11.131  0.1351  0.2508  0.2889
 2265W        W18074  16.859  18.506  12.351 -0.2157 -0.1256 -0.2225
 2266W        W18075   4.797  12.739  14.296 -0.0480  0.1586 -0.1132
 2267W        W18076  12.017  15.331  11.107 -0.0179 -0.0629 -0.1479
 2268W        W18077   3.878  14.271  13.260  0.2302  0.0978 -0.0515
 2269W        W18078  15.673   5.584   4.973 -0.0259 -0.0305 -0.1787
 2270W        W18079   2.610  12.597  13.621 -0.1511 -0.4372 -0.1208
 2271W        W18080  12.003  16.351   1.148  0.2482 -0.0270 -0.2089
 2272W        W18081  16.849   5.852   0.992  0.1489  0.1024 -0.1611
 2273W        W18082   2.253   7.089  12.715 -0.1352 -0.2349  0.0607
 2274W        W18083  18.691  13.881   2.079 -0.2888 -0.1040 -0.1995
 2275W        W18084   1.288   1.472   5.791 -0.0635 -0.2538  0.0969
 2276W        W18085   4.049   0.050  12.914  0.0156  0.0458  0.2747
 2277W        W18086  18.269   3.546   2.144 -0.2832 -0.0061  0.1251
 2278W        W18087  14.205   6.130  13.954  0.1466  0.0362 -0.4839
 2279W        W18088  17.079  15.410  12.908 -0.2086  0.0313  0.0772
 2280W        W18089   9.163   5.653  14.708  0.3940  0.0579 -0.0233
 2281W        W18090   3.451  16.489   1.681  0.3164 -0.0856 -0.1570
 2282W        W18091   3.978  15.501  11.521 -0.0646 -0.1625  0.3686
 2283W        W18092   0.292  12.345   1.967  0.0203 -0.2491  0.3006
 2284W        W18093   8.009   0.364   2.259  0.1217 -0.3966  0.1670
 2285W        W18094   3.172   4.768  13.644  0.0942 -0.1083  0.1639
 2286W        W18095  15.098   6.233  12.574 -0.2029 -0.0633  0.1361
 2287W        W18096   2.741   9.875   0.314 -0.1747  0.4968 -0.3167
 2288W        W18097   5.459  10.970  13.071 -0.0193 -0.1832 -0.0805
 2289W        W18098   4.123   5.443   3.420 -0.0365 -0.0166 -0.2706
 2290W        W18099   0.418   2.464  13.910  0.1051  0.0705 -0.1266
 2291W        W18100   5.919   7.227  15.324 -0.1656  0.2406  0.1069
 2292W        W18101  16.821   5.172  14.142  0.0383  0.2521 -0.1397
 2293W        W18102  16.826  16.761  10.029 -0.1706  0.0370  0.0987
 2294W        W18103   1.436   3.006  15.414  0.0847 -0.2021 -0.0824
 2295W        W18104   8.916   7.002   4.735 -0.0587  0.1557  0.1796
 2296W        W18105  16.707   3.626   5.220 -0.4182 -0.0413 -0.1312
 2297W        W18106  16.697   9.425  14.535  0.1024 -0.1630 -0.0874
 2298W        W18107  12.291  11.264   1.816  0.1199 -0.0318  0.0873
 2299W        W18108  17.835   3.690   0.951  0.2633 -0.0965  0.0924
 2300W        W18109   4.626   7.058  13.241  0.0321 -0.1301 -0.0557
 2301W        W18110   5.482  11.898   1.901  0.2066  0.1030 -0.2352
 2302W        W18111  14.911  14.428   0.664  0.0325  0.0102 -0.1495
 2303W        W18112  17.637   1.628   4.672  0.0614  0.0022  0.1233
 2304W        W18113   2.093  11.701   3.607 -0.1719 -0.0904 -0.1575
 2305W        W18114   8.749   5.533   2.759 -0.2611  0.2141 -0.2096
 2306W        W18115   0.764   0.737  14.513 -0.0138 -0.1223 -0.1949
 2307W        W18116  18.293   5.968   4.191  0.1785  0.1382 -0.2018
 2308W        W18117  14.515  14.737   1.832 -0.0256  0.0055 -0.1083
 2309W        W18118  10.127   9.655   0.304  0.0924  0.0020 -0.2688
 2310W        W18119   2.961  15.179  11.699 -0.1592  0.2831 -0.1084
 2311W        W18120  15.946   8.065  14.544 -0.0405  0.0087 -0.1893
 2312W        W18121   7.878   3.385   3.043  0.1551 -0.0530  0.0793
 2313W        W18122  14.102  16.989   2.818  0.1706 -0.1850  0.0782
 2314W        W18123  11.973  10.920  12.842  0.0038  0.1738  0.0229
 2315W        W18124  12.554  13.647   4.867 -0.0870 -0.0843  0.2817
 2316W        W18125   2.919  11.134   9.732 -0.2289  0.1189  0.4664
 2317W        W18126  11.367  13.830  14.219 -0.0372 -0.2426  0.1540
 2318W        W18127  17.740   2.229  10.616 -0.3595 -0.0165 -0.0553
 2319W        W18128   5.118  13.514   5.025  0.2105 -0.2665 -0.0237
 2320W        W18129  18.483  15.354   3.488  0.0993 -0.2899 -0.1796
 2321W        W18130   6.385   6.362  12.034 -0.1505  0.0363  0.4372
 2322W        W18131   0.288   5.684  10.706  0.1596  0.0223 -0.0899
 2323W        W18132   5.711   7.819  15.003 -0.3036 -0.3525  0.1764
 2324W        W18133   6.491   7.588  11.867 -0.0157 -0.0824  0.0111
 2325W        W18134   4.430  15.478   1.833 -0.4424  0.1285 -0.1511
 2326W        W18135  12.433   5.431   0.324 -0.2183  0.1398 -0.0627
 2327W        W18136   6.270   3.575  14.492  0.2691 -0.2211  0.2023
 2328W        W18137  11.533  17.683   5.182 -0.0014 -0.1428  0.2822
 2329W        W18138   3.512  13.910   5.406 -0.0178  0.0368 -0.3545
 2330W        W18139   5.059  17.246  13.223  0.1628 -0.1986 -0.1581
 2331W        W18140   0.304   3.899  13.614  0.1069 -0.2358  0.0001
 2332W        W18141  17.270  15.416  11.836 -0.1134 -0.3427  0.2796
 2333W        W18142   6.292  12.615  14.045 -0.1349  0.2190  0.1050
 2334W        W18143  14.250  11.642   5.339  0.0973 -0.1147 -0.0759
 2335W        W18144  17.897   3.686  13.653  0.1806 -0.1141  0.2225
 2336W        W18145  16.181  17.256  12.805 -0.0196 -0.2726  0.1002
 2337W        W18146   2.124   4.607  13.923  0.0454  0.0801 -0.4230
 2338W        W18147  17.885   2.650  11.337  0.0302 -0.0439  0.2789
 2339W        W18148  16.619   1.488   3.893 -0.4300  0.2649  0.2000
 2340W        W18149  15.147   1.356   1.211 -0.0295 -0.1996 -0.0362
 2341W        W18150  13.911   3.515   4.220 -0.4305 -0.0590 -0.1677
 2342W        W18151  16.951  11.804   5.280  0.0754  0.3864  0.1016
 2343W        W18152  13.437   4.453   1.147  0.3636 -0.0723 -0.3915
 2344W        W18153  11.127   1.037   4.570  0.1223 -0.0457 -0.2021
 2345W        W18154  10.556   2.870  14.577 -0.0798  0.2070  0.2764
 2346W        W18155  12.984   4.286  12.682 -0.0780  0.2086 -0.1077
 2347W        W18156   4.351  16.830  13.587  0.1857 -0.2125 -0.1274
 2348W        W18157   4.844   7.132   1.063 -0.1001 -0.2310 -0.0779
 2349W        W18158  18.449   7.353  15.287 -0.2506  0.1076 -0.0882
 2350W        W18159   0.741  18.725   1.440  0.2150  0.0110 -0.0345
 2351W        W18160  12.117   5.044   2.988  0.0254  0.2301 -0.4413
 2352W        W18161  11.305   0.405  12.813  0.2913  0.0400  0.0314
 2353W        W18162  16.375   5.933  11.931  0.0179 -0.2405  0.3904
 2354W        W18163   6.105  18.267   5.076 -0.3487 -0.0820  0.1804
 2355W        W18164   1.489   8.623   4.468 -0.0770  0.2974 -0.0272
 2356W        W18165   9.795  15.768  10.837  0.3462 -0.5758 -0.2566
 2357W        W18166  15.593   4.599  11.815 -0.0133 -0.1078 -0.1549
 2358W        W18167  15.739  11.167  13.522 -0.2855 -0.1099  0.1299
 2359W        W18168   4.718   1.475  13.765  0.0357  0.1794  0.0715
 2360W        W18169  18.022  12.858   5.034  0.0113  0.2657 -0.0112
 2361W        W18170  15.325   0.315   5.997 -0.1249  0.1005  0.0361
 2362W        W18171   4.710  11.538   4.791 -0.3639 -0.0335  0.2982
 2363W        W18172  17.950   0.030   0.556 -0.3841  0.1611 -0.3910
 2364W        W18173   1.858   1.129  14.255 -0.2949  0.2859 -0.0096
 2365W        W18174   2.452  12.567   2.746  0.0965 -0.2021 -0.0682
 2366W        W18175  15.722  15.596   1.182  0.0779 -0.0912 -0.1112
 2367W        W18176  16.483   3.538   2.141 -0.0347 -0.0904 -0.3452
 2368W        W18177   9.012   6.015   1.359 -0.1722 -0.0033 -0.0219
 2369W        W18178   9.651  15.027  10.423  0.0617  0.2361  0.2361
 2370W        W18179   6.625   5.462   2.862 -0.2537  0.3868 -0.0561
 2371W        W18180   8.464   4.787  13.959  0.1090  0.2367 -0.2507
 2372W        W18181   4.440  15.149   1.248 -0.1118 -0.4612 -0.1159
 2373W        W18182  16.494   7.980   0.840 -0.0159  0.0325  0.2989
 2374W        W18183  13.394   2.192  13.500 -0.0129  0.2084 -0.1202
 2375W        W18184  17.904  17.871   3.084  0.0319  0.0529 -0.1141
 2376W        W18185   4.898  14.006   0.834 -0.1676  0.0494  0.5098
 2377W        W18186   6.947   4.411   0.746  0.2534  0.3860 -0.2669
 2378W        W18187  14.341   4.298  12.576  0.1460  0.1507 -0.1256
 2379W        W18188  12.413   3.083   0.419 -0.1867 -0.1135 -0.0708
 2380W        W18189  11.615   0.774   2.045 -0.0806  0.1704  0.0592
 2381W        W18190  10.172   1.154   4.010  0.0172 -0.0541 -0.1484
 2382W        W18191   9.762  14.938  11.294 -0.0630 -0.1219 -0.0263
 2383W        W18192   2.609  11.924  14.355 -0.2097  0.1794 -0.1878
 2384W        W18193  11.251   3.244   4.432  0.0423  0.0093 -0.0849
 2385W        W18194   5.087   5.318  11.320  0.2761  0.1356  0.1469
 2386W        W18195   9.438   0.826   4.357  0.1014  0.0692  0.1241
 2387W        W18196  16.607   0.598  12.841 -0.0472  0.0272 -0.1716
 2388W        W18197   1.602   3.595   0.962  0.2356  0.1190  0.0209
 2389W        W18198   3.989  17.376  15.305  0.2716  0.0597 -0.1702
 2390W        W18199  12.191   4.186  15.095 -0.0331  0.0650 -0.3191
 2391W        W18200   8.759   9.084   4.582 -0.3905  0.1167 -0.0402
 2392W        W18201  15.638  14.621  11.444 -0.0072 -0.0668 -0.2009
 2393W        W18202  12.913  10.345   4.874 -0.2190  0.0261 -0.0334
 2394W        W18203   5.171  17.970  14.531  0.2057  0.1735 -0.1000
 2395W        W18204  10.624  18.148  13.622 -0.1472 -0.3398 -0.1882
 2396W        W18205  14.226  16.422  12.666 -0.0259 -0.2348 -0.0159
 2397W        W18206  17.166  11.462  15.403  0.3742  0.1365  0.3188
 2398W        W18207   6.355  10.028  13.549 -0.1077  0.0183 -0.3234
 2399W        W18208  15.676  14.548   5.741 -0.0384  0.1679 -0.3738
 2400W        W18209  14.255   6.535   2.487 -0.0994 -0.1830 -0.1870
 2401W        W18210   5.291  12.406  11.383  0.0059 -0.1274 -0.1378
 2402W        W18211  10.349  16.517  13.618 -0.0484  0.0613  0.3418
 2403W        W18212  10.937  14.952   5.033  0.1390  0.0581  0.0874
 2404W        W18213  18.588   1.024  11.461  0.1761 -0.2136  0.1036
 2405W        W18214  10.603  16.842  13.004  0.1042 -0.1351  0.0340
 2406W        W18215   6.499  11.878   3.808  0.3111  0.4921 -0.1212
 2407W        W18216   2.216  18.515  12.606  0.0968 -0.3968  0.2060
 2408W        W18217   8.243  15.006  10.470  0.0052 -0.3368  0.1309
 2409W        W18218   0.757   3.555  12.546 -0.2202  0.1133 -0.2686
 2410W        W18219  10.779  18.834   1.844 -0.1347  0.3652 -0.0626
 2411W        W18220   7.019  12.163  13.722 -0.1111  0.2835  0.1379
 2412W        W18221   4.725   5.915  14.583 -0.0826  0.1948 -0.2985
 2413W        W18222   6.981   5.540  10.466  0.5352  0.1613 -0.1420
 2414W        W18223   7.834  11.066  10.819 -0.4895 -0.2479  0.1660
 2415W        W18224  11.119  18.058   1.330  0.0495 -0.0547  0.0940
 2416W        W18225  13.696   4.095  14.095  0.0631 -0.2169  0.1703
 2417W        W18226   9.678   0.789  13.315  0.3203 -0.3281 -0.0674
 2418W        W18227   3.158   3.446  14.618 -0.0838 -0.0557 -0.2067
 2419W        W18228  17.167   9.698  11.318  0.0680 -0.0674 -0.0324
 2420W        W18229  14.647   3.570   3.614  0.5659  0.1146  0.1373
 2421W        W18230  12.543  12.557   1.296  0.1606  0.0901 -0.0752
 2422W        W18231   4.632  10.513  14.459  0.0495 -0.0928  0.2307
 2423W        W18232  11.404  16.533  14.009  0.3489  0.1242 -0.2379
 2424W        W18233  18.751  13.093  14.758 -0.2115  0.2912 -0.0899
 2425W        W18234  11.839  17.422   1.632  0.1716 -0.1121  0.1977
 2426W        W18235  14.674   0.635   4.175  0.0921  0.5362 -0.1174
 2427W        W18236   5.155  15.498  12.062 -0.0913 -0.1800  0.1442
 2428W        W18237  14.570  17.500   1.913 -0.3774  0.0202  0.0065
 2429W        W18238   1.475  11.740   3.534  0.0251 -0.2765  0.1013
 2430W        W18239   9.015  15.657   4.447  0.0557  0.0921  0.1461
 2431W        W18240   3.586   7.039  11.111 -0.2372 -0.1949 -0.2210
 2432W        W18241  12.779   5.646   3.480  0.0724 -0.1072 -0.1671
 2433W        W18242   5.503   4.970   1.370  0.1311  0.0575 -0.0572
 2434W        W18243   7.480  15.016  14.797 -0.1183  0.1495  0.1584
 2435W        W18244  15.312  11.560  13.415 -0.0802 -0.1505 -0.0330
 2436W        W18245  13.837   1.947  14.736  0.1604 -0.1905  0.1528
 2437W        W18246  11.425  16.281  15.301  0.3897 -0.1342 -0.2738
 2438W        W18247  11.146   0.440  12.120 -0.0483 -0.0697  0.1929
 2439W        W18248  14.667   1.857   3.047  0.1617 -0.1928 -0.0176
 2440W        W18249  15.813  16.116   1.223 -0.0755  0.2140 -0.1594
 2441W        W18250   1.094   8.519   4.055 -0.3509 -0.0373 -0.1039
 2442W        W18251   9.842   8.182  13.120  0.1111  0.0739  0.0392
 2443W        W18252   0.280   2.633   9.884 -0.2212  0.1974  0.1065
 2444W        W18253  11.227  11.942  14.213  0.0387  0.3826  0.1575
 2445W        W18254  11.705  12.488  14.035 -0.1903  0.0762 -0.0660
 2446W        W18255   8.817  10.308  11.639  0.1058  0.1914  0.1249
 2447W        W18256   5.089   1.328  12.496  0.0893  0.2302 -0.0224
 2448W        W18257   4.173  14.249   3.122 -0.3325  0.1933  0.1437
 2449W        W18258  15.773  14.883   0.430  0.0207 -0.2293  0.1855
 2450W        W18259  16.338   4.194   4.101 -0.0212 -0.0495  0.0774
 2451W        W18260   6.768   4.013  11.336 -0.0621 -0.1753  0.0901
 2452W        W18261   7.395   5.836  12.884 -0.2592  0.5296  0.4496
 2453W        W18262  12.458  14.794   4.604 -0.1449  0.1704 -0.0941
 2454W        W18263   4.598   6.880   1.361  0.4599  0.1628  0.1296
 2455W        W18264   2.880  11.267   4.827 -0.0439  0.1891  0.3365
 2456W        W18265   8.708   6.107   3.915  0.0237  0.1433 -0.1478
 2457W        W18266  13.888   6.552   3.761 -0.1015  0.0522  0.1381
 2458W        W18267   3.087  16.095   1.267  0.2343 -0.1638  0.0535
 2459W        W18268   5.813   3.352   5.611 -0.2103  0.1302 -0.0983
 2460W        W18269   9.016  11.999   2.331 -0.3356 -0.2552  0.0569
 2461W        W18270  18.409  18.797   4.791  0.0563 -0.1611  0.0257
 2462W        W18271   6.472   8.441   3.819 -0.2214  0.2807 -0.1521
 2463W        W18272   8.918  18.894   0.821  0.0266  0.0702 -0.0328
 2464W        W18273   6.846  15.861   1.916 -0.4213  0.0872 -0.3044
 2465W        W18274   5.638   1.099   4.256 -0.2384  0.0013  0.0538
 2466W        W18275  14.597  17.114  10.859 -0.2458  0.1682  0.2201
 2467W        W18276   7.537  15.403   4.888 -0.0455  0.1203  0.2341
 2468W        W18277  18.057   8.445  14.854 -0.1960 -0.0520  0.2071
 2469W        W18278   7.941   7.978  11.641  0.0031  0.1123 -0.0656
 2470W        W18279   7.388   8.355  11.417 -0.1745 -0.0623 -0.0079
 2471W        W18280   8.984   9.222  13.819  0.1068 -0.0590  0.1789
 2472W        W18281   4.110  13.709   0.928  0.3343  0.0117 -0.2977
 2473W        W18282  12.771  10.503  12.028  0.0660 -0.0176 -0.0207
 2474W        W18283   5.444  15.140   0.292 -0.3906  0.2731  0.0960
 2475W        W18284   7.617  15.435  15.007 -0.1248 -0.1053  0.2109
 2476W        W18285  16.005  16.334   0.501 -0.0634 -0.2553 -0.1711
 2477W        W18286   9.702   7.289  11.377  0.1203  0.3029  0.1801
 2478W        W18287   5.876  18.537   3.156  0.0838 -0.0621 -0.1773
 2479W        W18288   3.540  17.257  11.791 -0.2903 -0.3460  0.4232
 2480W        W18289   0.568   9.285  10.627  0.1672  0.1419  0.4254
 2481W        W18290   7.155  15.665  15.152  0.2223 -0.0485 -0.0945
 2482W        W18291  10.054   8.906   2.236 -0.4992 -0.1658 -0.3570
 2483W        W18292  14.460  15.780   0.190  0.0054  0.1644 -0.3063
 2484W        W18293  18.443   1.222   2.784  0.0311  0.0006  0.0525
 2485W        W18294  16.905   8.423  10.977 -0.2299 -0.0424  0.3283
 2486W        W18295   5.058   1.661   3.956 -0.2134 -0.1220  0.0936
 2487W        W18296   9.833   7.020   4.466  0.3567 -0.2145 -0.0791
 2488W        W18297  12.805   8.653   0.999  0.2306  0.1141 -0.2249
 2489W        W18298   2.188  17.145   1.838  0.0583 -0.0941  0.1350
 2490W        W18299  13.558   9.974  13.648  0.0664  0.1284 -0.0403
 2491W        W18300   5.017  12.166  10.696  0.1647  0.0735 -0.2309
 2492W        W18301  12.798  10.237  14.491  0.1982  0.5243  0.0190
 2493W        W18302   5.915   6.234  12.182  0.1801 -0.0614  0.2117
 2494W        W18303   5.473  12.169   3.287  0.0731 -0.1193  0.2894
 2495W        W18304  15.772   3.630  10.811 -0.1359  0.1479  0.1317
 2496W        W18305   9.235   6.369  11.002  0.2493 -0.2618 -0.2376
 2497W        W18306  18.660  13.527  14.452  0.0056  0.2359 -0.0530
 2498W        W18307   0.799  16.940   2.187 -0.0032 -0.0068 -0.1080
 2499W        W18308  14.410   9.673   3.208  0.0964  0.2511 -0.0894
 2500W        W18309   2.188  11.492   4.144 -0.2748 -0.0681  0.2870
 2501W        W18310  12.829  13.568  11.583 -0.1390  0.0877 -0.0430
 2502W        W18311   3.097  14.430  14.709  0.0805 -0.2658  0.2365
 2503W        W18312  10.898   9.290  13.720  0.1735 -0.3759  0.4516
 2504W        W18313   0.081  18.143  11.432  0.0923  0.3489 -0.4249
 2505W        W18314   4.019  12.415  12.794  0.1659 -0.2546  0.1331
 2506W        W18315  12.446   1.944   4.001 -0.1355 -0.2423  0.2514
 2507W        W18316  15.954   8.237   2.463  0.0591  0.0225  0.1295
 2508W        W18317   6.122  17.320  14.419  0.0891  0.2511  0.0385
 2509W        W18318   4.964   7.617  14.337  0.1370  0.0248  0.3205
 2510W        W18319  17.655   2.751   1.999 -0.0607  0.0028  0.3340
 2511W        W18320   4.780   4.343   1.255 -0.4364 -0.3083  0.0007
 2512W        W18321   3.765  16.841  10.556  0.4001  0.1686 -0.0255
 2513W        W18322  18.001   5.989  14.071  0.0590 -0.1643 -0.2567
 2514W        W18323   3.735   5.061   5.135 -0.0304  0.1668 -0.0833
 2515W        W18324  15.404  15.056  11.339 -0.4918 -0.0525  0.2874
 2516W        W18325  11.345   4.464  12.534  0.1057  0.0543 -0.1698
 2517W        W18326  14.918  13.271  13.046 -0.1004 -0.0779 -0.0735
 2518W        W18327   7.845  13.170   3.449  0.0237  0.2658  0.1569
 2519W        W18328   9.647  12.514  11.916  0.0386 -0.3357  0.0893
 2520W        W18329  16.670   2.816   1.822 -0.0330 -0.0979  0.0283
 2521W        W18330   2.203   3.441   2.648  0.0245 -0.3069  0.1613
 2522W        W18331   0.092  18.130   0.541 -0.3021  0.0719  0.0823
 2523W        W18332  12.965  17.127  15.200 -0.0224  0.2252  0.0951
 2524W        W18333  12.788   3.419   2.855  0.0634  0.1273 -0.4084
 2525W        W18334  17.519  12.715  12.348 -0.0798  0.0402  0.2007
 2526W        W18335  17.295  17.713  11.292 -0.3087  0.1007 -0.1702
 2527W        W18336  11.403   8.152   9.581 -0.1500  0.1390  0.0403
 2528W        W18337  11.649  12.542  11.221  0.0504  0.0112  0.2461
 2529W        W18338   3.941   3.669  11.677 -0.1060 -0.2314 -0.0244
 2530W        W18339   5.317   0.945   0.133  0.1183 -0.1545 -0.3370
 2531W        W18340   5.131   6.168   4.216  0.4626  0.0849  0.1531
 2532W        W18341  11.266  13.946   2.123 -0.2345  0.0124  0.1667
 2533W        W18342   8.814  15.425   2.805  0.0830  0.0526 -0.0069
 2534W        W18343  17.928  10.605   2.970 -0.2077  0.1025 -0.1242
 2535W        W18344   9.024   0.046   0.366  0.0418 -0.0111 -0.2012
 2536W        W18345  10.430  15.843  12.427 -0.0018 -0.1528 -0.0730
 2537W        W18346  13.592   0.883   0.570 -0.1620 -0.1415 -0.2515
 2538W        W18347   9.285  11.660  12.482 -0.2390 -0.1721  0.0858
 2539W        W18348  11.316   5.779  12.539  0.4079  0.1525 -0.1122
 2540W        W18349   6.221  17.307  11.359 -0.0354  0.0774  0.0660
 2541W        W18350  18.774   7.538  13.823 -0.0389  0.0618  0.1022
 2542W        W18351   0.476  15.664  12.153  0.1769 -0.4405  0.0310
 2543W        W18352   6.473   9.552   0.737 -0.2615 -0.1731  0.1434
 2544W        W18353  15.402  14.213  12.977 -0.0472  0.2160 -0.0670
 2545W        W18354  14.135   6.067   2.035  0.1808  0.1995 -0.0164
 2546W        W18355   8.799  17.153   4.528 -0.0344  0.0674 -0.1543
 2547W        W18356   3.128   2.420   4.377 -0.0380 -0.1217  0.1252
 2548W        W18357   4.131  10.270   1.417  0.2370  0.0580 -0.1935
 2549W        W18358   9.622   4.081  12.036  0.2720  0.2687  0.0092
 2550W        W18359  13.349   2.214   3.670  0.0003 -0.0563 -0.0284
 2551W        W18360  12.997   2.289  11.283  0.1464 -0.2470 -0.0374
 2552W        W18361  12.092  16.929   4.980  0.1106 -0.3049 -0.0536
 2553W        W18362  16.432   8.182   5.902  0.1214  0.0918 -0.0979
 2554W        W18363   4.771  18.744   3.437  0.0748  0.2235  0.0072
 2555W        W18364   7.807   2.443  10.587  0.2490 -0.1331 -0.0699
 2556W        W18365  13.993   1.298  10.424 -0.0199 -0.1697 -0.1916
 2557W        W18366  14.502   0.212   0.566 -0.3444  0.2426 -0.1097
 2558W        W18367   5.241   4.054   5.854  0.0076 -0.2728  0.0106
 2559W        W18368   7.052   6.837   3.372  0.1542 -0.0829 -0.0706
 2560W        W18369   9.429  14.549   1.202 -0.0601 -0.0087 -0.0432
 2561W        W18370  18.523   9.112   3.957  0.1443  0.0975 -0.0828
 2562W        W18371  12.933   0.681   5.375 -0.0004  0.0190  0.1822
 2563W        W18372   8.959  14.536   2.409 -0.1130 -0.0344  0.4366
 2564W        W18373  11.162   2.378  12.979 -0.1092  0.1027  0.3469
 2565W        W18374   8.812   2.730   3.191  0.1581 -0.1812 -0.0013
 2566W        W18375  10.746   5.272  14.258 -0.1045  0.3576 -0.2950
 2567W        W18376  11.787  18.172   2.807  0.1351  0.1318 -0.0709
 2568W        W18377  10.567   8.005   1.471 -0.2125  0.0187 -0.1683
 2569W        W18378   7.065  14.470  11.922 -0.0898 -0.0026  0.2772
 2570W        W18379  18.480  18.905   3.398  0.0764  0.0887 -0.0480
 2571W        W18380   1.877  16.472  13.089 -0.0793 -0.0173  0.1213
 2572W        W18381   5.333   6.533   2.829  0.3139 -0.4293 -0.3707
 2573W        W18382  14.091  14.189  14.133  0.3587  0.2047  0.0591
 2574W        W18383   6.016   3.108   5.183 -0.0914 -0.1498 -0.0716
 2575W        W18384   5.856  13.236   2.856 -0.0052  0.0567 -0.1468
 2576W        W18385   8.776   2.176   1.347 -0.2486 -0.1205 -0.0808
 2577W        W18386   3.087   3.680   1.347 -0.1830 -0.1037  0.2011
 2578W        W18387  10.040   5.326  11.119  0.2904 -0.1125 -0.1593
 2579W        W18388   5.320   9.982  14.058  0.0619  0.0818  0.2397
 2580W        W18389   7.004  11.687  13.473  0.0230  0.0440 -0.0469
 2581W        W18390   8.606  12.355  11.647 -0.0791 -0.0359  0.2288
 2582W        W18391  11.705  14.377   4.988  0.1188 -0.0947  0.0234
 2583W        W18392   9.157   4.247  10.953  0.0934  0.2607  0.3400
 2584W        W18393   2.099  17.628   1.996  0.2582  0.0806 -0.1046
 2585W        W18394   2.328  13.136  14.073 -0.1229 -0.2934 -0.1529
 2586W        W18395   2.755  15.023  10.819  0.1208  0.2674 -0.2396
 2587W        W18396   0.443  12.575   3.037 -0.2815  0.0592  0.2191
 2588W        W18397   7.781  10.575  15.102 -0.1541  0.0717  0.4887
 2589W        W18398  16.558   9.825  14.749  0.1930 -0.0633 -0.1714
 2590W        W18399  13.611  16.674   1.100 -0.0625  0.2216  0.1406
 2591W        W18400   0.319   5.797  13.042  0.2572  0.0836 -0.2614
 2592W        W18401   6.407   3.793  11.122 -0.1252 -0.3744  0.2492
 2593W        W18402  12.129   6.749   3.009 -0.1736 -0.3775  0.2231
 2594W        W18403  10.609  10.733   1.675  0.2981 -0.3375 -0.3761
 2595W        W18404  14.022  18.712   3.114  0.3280 -0.1514  0.1388
 2596W        W18405  17.926   0.370  14.708  0.0710  0.0197 -0.4149
 2597W        W18406  11.038  16.582   2.090 -0.0224 -0.2491  0.0249
 2598W        W18407  18.266  11.898  12.680  0.2089  0.1229 -0.1765
 2599W        W18408   3.423   8.639   2.804 -0.2903  0.0261 -0.1459
 2600W        W18409  12.284  14.592  10.602  0.0468 -0.0965 -0.0122
 2601W        W18410   0.063   8.182   4.309  0.0760  0.0653 -0.2632
 2602W        W18411  15.754   0.585  14.036  0.1628 -0.1199  0.0941
 2603W        W18412   6.002   5.484  10.304 -0.1789 -0.1716 -0.3445
 2604W        W18413   4.341   9.970  11.630 -0.1330 -0.0407  0.0553
 2605W        W18414   9.263  12.161   5.208  0.2110  0.0112  0.1213
 2606W        W18415  18.860   5.816  12.263  0.0165  0.0438 -0.0767
 2607W        W18416  11.177  17.095  14.676  0.0942  0.0963 -0.0779
 2608W        W18417   6.499   2.225  14.294 -0.2074 -0.0956 -0.0694
 2609W        W18418  15.280   7.792   5.507  0.1094 -0.0314 -0.1157
 2610W        W18419  14.729  17.109  13.328 -0.4380  0.0444 -0.1385
 2611W        W18420   8.190   4.367   3.395 -0.3308  0.1205  0.1412
 2612W        W18421   6.826   0.029   3.586 -0.3708  0.0083 -0.0178
 2613W        W18422   1.825  17.425  14.432  0.1748  0.2021  0.0464
 2614W        W18423  13.293   6.666  12.986 -0.0684 -0.0993  0.2255
 2615W        W18424   0.827   1.750   2.824  0.1955  0.0062  0.1463
 2616W        W18425   1.019   6.960  13.336 -0.0999 -0.2075 -0.1385
 2617W        W18426   9.392   3.867   4.402  0.0036  0.1573 -0.1037
 2618W        W18427  10.620  10.834  13.504  0.2521  0.0557  0.0129
 2619W        W18428   3.695  14.164   0.049 -0.0570 -0.2648  0.2882
 2620W        W18429  15.094  13.418  12.082  0.1071 -0.0523  0.0223
 2621W        W18430  14.296   0.052   1.280 -0.1064 -0.0448 -0.0069
 2622W        W18431   2.751   7.754  14.882  0.1148 -0.2298  0.3166
 2623W        W18432   0.263   2.002  14.609 -0.3184  0.1494  0.0687
 2624W        W18433  16.830  12.564  13.431 -0.3778 -0.2844 -0.1325
 2625W        W18434   5.761   1.466  14.576 -0.1039 -0.1458 -0.1736
 2626W        W18435   2.284  15.125  15.238 -0.1983  0.0033 -0.2171
 2627W        W18436  13.545  15.517  11.520 -0.6816  0.2608 -0.0108
 2628W        W18437   6.327  12.905  15.209 -0.1910  0.1049 -0.2310
 2629W        W18438   6.842  16.397  10.002 -0.3567 -0.0349 -0.0073
 2630W        W18439  14.373  12.340  12.255 -0.3989  0.0235 -0.1851
 2631W        W18440   4.004   2.650  10.736 -0.0094 -0.0960  0.2373
 2632W        W18441  14.475   6.797   0.116 -0.1512 -0.0022  0.1103
 2633W        W18442   4.357   7.367   4.499  0.1120 -0.0431 -0.0730
 2634W        W18443   5.644   4.978  15.274  0.2785  0.1037 -0.0165
 2635W        W18444   2.667   9.644   2.008 -0.3485  0.0554 -0.2632
 2636W        W18445  11.076  15.325  15.116 -0.0915 -0.0270  0.1277
 2637W        W18446  10.119  14.111  15.252 -0.2798  0.0533  0.3902
 2638W        W18447   4.091  13.240  11.953 -0.0285 -0.3623 -0.2014
 2639W        W18448   5.949  12.727  10.508 -0.0347 -0.0509 -0.1438
 2640W        W18449   8.483  10.486   0.471 -0.0597 -0.1187 -0.1100
 2641W        W18450  10.031   2.973  11.970  0.0876  0.1694  0.1407
 2642W        W18451  16.605  10.720   0.166 -0.0807 -0.0391 -0.2515
 2643W        W18452  14.517   7.967   3.087  0.2783 -0.1704  0.1628
 2644W        W18453   8.696  13.943  13.611 -0.0281  0.1726 -0.1040
 2645W        W18454   3.468   3.383   4.822  0.0946  0.1048  0.0732
 2646W        W18455   5.933  11.934   5.251 -0.3809 -0.1529 -0.4153
 2647W        W18456   5.779  10.893  14.836  0.0021 -0.0512  0.1665
 2648W        W18457   5.371   4.051   9.641 -0.0581 -0.0687  0.2409
 2649W        W18458   0.005   6.183   0.301 -0.1159 -0.1066 -0.1552
 2650W        W18459   2.469  15.434  13.574  0.1991 -0.1207  0.3240
 2651W        W18460  18.716  18.150  12.842 -0.0749 -0.0126 -0.3070
 2652W        W18461   1.494  18.562  14.131  0.2357 -0.2679  0.1160
 2653W        W18462   0.222  18.381  12.712  0.0850 -0.1870 -0.0928
 2654W        W18463   4.694   2.355  13.386  0.1351  0.2809  0.1557
 2655W        W18464   2.972  12.528   9.869  0.0894  0.1884  0.0265
 2656W        W18465  14.943  12.322   3.156  0.2062  0.0634  0.0290
 2657W        W18466  15.897  12.484  15.425 -0.1662  0.0983  0.3041
 2658W        W18467   3.196  16.108  11.506  0.0832 -0.0606  0.0128
 2659W        W18468  13.151   3.633  12.528  0.0424 -0.0955  0.2295
 2660W        W18469  17.552  17.207   1.942 -0.0284 -0.1580  0.0742
 2661W        W18470  10.378   0.900  11.302 -0.0821 -0.3518 -0.1098
 2662W        W18471  16.384   9.098   0.903  0.3592 -0.1335  0.1454
 2663W        W18472   0.847  12.071   3.678 -0.1775  0.0731  0.1284
 2664W        W18473  14.629   2.440  13.530  0.0836 -0.0823 -0.1995
 2665W        W18474  18.350  17.840  15.418  0.2537  0.0031 -0.0973
 2666W        W18475  12.159   6.272   4.375 -0.3236 -0.1154  0.1920
 2667W        W18476   8.945  15.376   3.397  0.4059  0.2805 -0.1518
 2668W        W18477  10.573  16.047   3.429 -0.0990  0.1802 -0.1363
 2669W        W18478  18.152   5.818  11.575 -0.1500  0.2184 -0.1417
 2670W        W18479  14.044  12.914   1.468  0.0538  0.0177 -0.1256
 2671W        W18480   9.518  17.374   0.713  0.1055 -0.0209 -0.1045
 2672W        W18481   9.612  14.816  10.858 -0.0074 -0.3152  0.1074
 2673W        W18482   4.058  16.385   4.706 -0.2285  0.0664  0.2180
 2674W        W18483   7.787  14.477  14.196 -0.0950 -0.6324  0.0493
 2675W        W18484  17.279   2.797   0.026 -0.0201  0.1434  0.2327
 2676W        W18485  13.191  14.086   2.950  0.2225  0.3910 -0.0593
 2677W        W18486  10.823   7.998   2.251 -0.0902 -0.1300 -0.1788
 2678W        W18487   8.750  13.690   1.738  0.1241  0.0969 -0.3178
 2679W        W18488   3.246   8.827  11.402  0.1121  0.2225 -0.0794
 2680W        W18489   2.435   3.111  12.075 -0.2177  0.0006 -0.0530
 2681W        W18490  18.117   4.450   2.026  0.1363  0.0485 -0.0991
 2682W        W18491   9.420  13.699  15.122 -0.0348 -0.1426 -0.1196
 2683W        W18492  11.541   5.916   0.244  0.0171 -0.2028 -0.1636
 2684W        W18493   4.220   3.115  13.543 -0.2722 -0.2103  0.0323
 2685W        W18494  16.238  14.570  12.746  0.0250  0.1270  0.1997
 2686W        W18495   5.610  16.307  12.472  0.0029  0.1662 -0.1624
 2687W        W18496  16.210  12.244   3.476  0.4007 -0.3970  0.2080
 2688W        W18497   0.383   7.449   3.894 -0.1560  0.1896 -0.2084
 2689W        W18498  14.538   7.215   0.532  0.1507 -0.2512 -0.0442
 2690W        W18499   1.283   9.402  14.945 -0.0892  0.0057  0.3818
 2691W        W18500  10.851  12.375   1.553 -0.0277  0.0921  0.1220
 2692W        W18501  10.285  12.726   4.397 -0.1606 -0.1623  0.1195
 2693W        W18502   0.420   1.076  12.406 -0.0203 -0.0848  0.1003
 2694W        W18503   8.065   4.408   5.558 -0.0839 -0.0432  0.1060
 2695W        W18504   0.021   4.399  14.705 -0.0533  0.0190  0.1024
 2696W        W18505   9.458  12.710   9.805  0.2742 -0.0289  0.0936
 2697W        W18506  11.680   2.395  11.623  0.2808  0.4459  0.0200
 2698W        W18507  13.659  14.559  15.364  0.1875 -0.1117  0.2536
 2699W        W18508   3.580   3.199  12.355 -0.0691  0.0933  0.1699
 2700W        W18509   8.067   6.986  10.840  0.3845  0.0058 -0.1763
 2701W        W18510  10.478  12.569  15.030 -0.3791  0.0064  0.2344
 2702W        W18511  18.232  11.623  13.092 -0.1300 -0.3542  0.0636
 2703W        W18512   6.844   9.897  12.614  0.1244  0.3163  0.0496
 2704W        W18513   0.644   1.712   5.103  0.2538 -0.1487 -0.0272
 2705W        W18514  15.090   0.810  14.770  0.0153  0.1370 -0.5294
 2706W        W18515  14.927   4.903  14.175  0.2198  0.0870  0.3141
 2707W        W18516   2.875  12.109  13.731 -0.1633  0.0559 -0.0667
 2708W        W18517  16.092   5.319   0.631 -0.0654  0.0905  0.0113
 2709W        W18518  16.489   2.115  14.691 -0.1372 -0.3403 -0.0493
 2710W        W18519   2.185   8.077   4.502  0.2210  0.0701 -0.0347
 2711W        W18520   1.332   8.792   2.752  0.0147 -0.2225  0.0026
 2712W        W18521   7.252  11.843  11.088 -0.0654  0.3242  0.1235
 2713W        W18522  11.665   7.776  11.081  0.1381 -0.3278 -0.0536
 2714W        W18523  11.961   2.527  11.139  0.3946 -0.2781  0.2038
 2715W        W18524  11.682   5.314  10.716  0.2176 -0.1706 -0.1347
 2716W        W18525   3.061   7.083   1.869 -0.0307  0.1766 -0.0758
 2717W        W18526  12.382   4.697  13.200  0.1317 -0.1199  0.1654
 2718W        W18527   1.144  11.315  12.323 -0.0239 -0.4034  0.0293
 2719W        W18528  10.988  12.615  14.708  0.1712 -0.0988  0.0177
 2720W        W18529  17.503   4.020   5.780 -0.2176  0.0334  0.1625
 2721W        W18530  11.364   0.139   4.906 -0.0411  0.1823  0.1716
 2722W        W18531   2.250   3.860   3.717 -0.3042 -0.3171  0.2114
 2723W        W18532   2.106  12.796  14.413  0.0439  0.0643  0.0159
 2724W        W18533   5.845  18.146  10.821  0.1091 -0.0989 -0.0609
 2725W        W18534  15.166   0.899  10.654  0.3784 -0.2249  0.2710
 2726W        W18535  14.431  18.066  11.198 -0.0154 -0.2083  0.1202
 2727W        W18536   6.216   9.122  14.886  0.0730  0.2599  0.1027
 2728W        W18537   9.938   8.688   0.267  0.0842 -0.5194  0.3119
 2729W        W18538  17.896  18.487  11.849  0.3449 -0.0374 -0.3166
 2730W        W18539  10.519  10.490   4.375  0.0585 -0.0111  0.1155
 2731W        W18540  13.254   5.068   0.456 -0.2807 -0.1116  0.1487
 2732W        W18541   7.422  13.207   1.028  0.1918 -0.5494  0.3762
 2733W        W18542   2.489  11.373   3.692  0.0014  0.0496  0.0641
 2734W        W18543  13.891   8.169  13.078  0.5354 -0.1841  0.3779
 2735W        W18544   5.169  15.622   1.536  0.1202 -0.0919 -0.2969
 2736W        W18545  18.697   4.626   3.216  0.3029  0.2108 -0.0548
 2737W        W18546   5.294  10.800  12.607 -0.4288  0.0351  0.0757
 2738W        W18547  13.065   1.088   4.089  0.2394 -0.0733  0.3652
 2739W        W18548  15.546   5.469   2.378 -0.0021  0.2152  0.0487
 2740W        W18549   8.218   2.922  11.778  0.2876  0.0544  0.3112
 2741W        W18550  17.009  10.706  15.347  0.0898 -0.0488  0.1906
 2742W        W18551   8.410  10.451   4.976 -0.2177  0.2045  0.2228
 2743W        W18552  18.262   1.097  14.082  0.1373  0.4211 -0.1168
 2744W        W18553   8.327  16.794   4.210  0.0443  0.2912  0.3714
 2745W        W18554  13.783  18.741  13.449 -0.0910 -0.0487 -0.2639
 2746W        W18555  11.200   5.449   2.460  0.1460 -0.1690  0.0561
 2747W        W18556   0.441   7.002  13.289  0.1195 -0.0680 -0.0942
 2748W        W18557   0.100   2.676  10.902  0.1416  0.1686 -0.1159
 2749W        W18558   5.070   1.431  11.116  0.0007 -0.0095 -0.0422
 2750W        W18559   7.536   6.575   0.329 -0.1200  0.0454 -0.1142
 2751W        W18560   8.528  11.844  14.563  0.0823  0.2030 -0.1972
 2752W        W18561  16.639   5.665   1.535 -0.3589  0.0669  0.1277
 2753W        W18562   3.285  15.100  12.084 -0.2538 -0.0122 -0.2756
 2754W        W18563  11.769  15.475   0.274 -0.2582  0.3688  0.1994
 2755W        W18564   8.192  16.045  12.345 -0.0152 -0.1314 -0.0499
 2756W        W18565   3.897   4.763   1.700 -0.0058  0.0022  0.1487
 2757W        W18566   6.399   3.758  11.945 -0.1195 -0.1061 -0.0929
 2758W        W18567  18.831  16.997   6.024  0.1246 -0.1366  0.2213
 2759W        W18568  12.989  13.125  12.455 -0.2979 -0.0589  0.0475
 2760W        W18569   6.940  17.528   0.310  0.0162 -0.0504  0.1218
 2761W        W18570   0.544   5.488  11.638  0.0014 -0.0317 -0.0946
 2762W        W18571   7.477   4.358  14.216 -0.1840  0.0006 -0.0139
 2763W        W18572  16.940  13.079  13.672  0.0489  0.1348  0.0008
 2764W        W18573  10.734   5.125  12.280  0.1464  0.0726  0.1921
 2765W        W18574   5.545  18.747   0.537 -0.0008  0.3131 -0.1408
 2766W        W18575  12.472   6.353  13.076 -0.2379 -0.3253 -0.3425
 2767W        W18576  11.585   9.935  11.358 -0.0818  0.2991 -0.2867
 2768W        W18577   8.331  17.800   1.430 -0.2000 -0.1128  0.0482
 2769W        W18578   7.351   2.439  10.819 -0.1775  0.0684 -0.3473
 2770W        W18579   4.078   6.584   4.728 -0.1405  0.3793 -0.1815
 2771W        W18580   9.348   7.756   9.707  0.1602 -0.1091 -0.0891
 2772W        W18581  16.280  15.149  13.758 -0.0150 -0.1520 -0.1916
 2773W        W18582  11.943  18.521  12.038 -0.1198 -0.0721  0.2006
 2774W        W18583   5.106  15.981  13.909 -0.0952  0.2985 -0.0094
 2775W        W18584   6.883   4.366  11.808 -0.2075  0.4638 -0.0879
 2776W        W18585   5.184  16.177   0.922 -0.0089  0.0756 -0.4422
 2777W        W18586   2.877  11.494   3.354  0.0529  0.1272  0.3226
 2778W        W18587   2.958  18.893  12.037 -0.1289  0.2095 -0.1997
 2779W        W18588   1.262  15.584  11.127 -0.1975 -0.0561 -0.1701
 2780W        W18589  11.994   1.578   0.507  0.0017  0.1564 -0.1951
 2781W        W18590   6.712  18.706  11.645 -0.1933  0.2676 -0.0802
 2782W        W18591  14.517   3.573   0.961 -0.0331  0.1978 -0.0822
 2783W        W18592   2.184  15.563  10.982 -0.0192  0.1306  0.1317
 2784W        W18593  13.572  13.669  15.354 -0.0270 -0.1147 -0.1024
 2785W        W18594  11.411   8.520   1.180 -0.0493  0.0378 -0.2073
 2786W        W18595  13.272   1.571  11.615  0.1083  0.2576  0.2335
 2787W        W18596  17.865  13.034   3.690  0.0247  0.1483 -0.0228
 2788W        W18597   3.315   2.858   2.603 -0.1282  0.0550 -0.2105
 2789W        W18598  13.169  14.371   0.437 -0.1402 -0.0678  0.1607
 2790W        W18599  13.208  15.788   0.054  0.3058 -0.3163 -0.2706
 2791W        W18600  17.127   3.755  14.376  0.3706 -0.2903  0.1056
 2792W        W18601   9.114   2.898   1.835  0.1170  0.1811 -0.1964
 2793W        W18602  10.825   4.040  14.240  0.1392 -0.1420 -0.1272
 2794W        W18603  11.450  18.281  11.368 -0.0533 -0.0420  0.1151
 2795W        W18604  13.078   3.634   4.585  0.0886 -0.0281 -0.3532
 2796W        W18605   3.953  16.129   4.175  0.2620  0.3782 -0.1244
 2797W        W18606   1.491   7.886  15.389  0.2598 -0.3869 -0.0541
 2798W        W18607   5.083  17.211   0.045 -0.1040  0.0108 -0.1692
 2799W        W18608  15.744  16.016   3.342  0.1159 -0.0634 -0.2634
 2800W        W18609  11.500  16.956  13.729 -0.1125  0.0125 -0.1871
 2801W        W18610  16.375   0.640   4.797 -0.1711 -0.2674 -0.0859
 2802W        W18611  13.926   8.184   3.036 -0.0091 -0.4093  0.0818
 2803W        W18612  10.078  18.875   1.745  0.0710 -0.1669 -0.0827
 2804W        W18613   6.652  10.302  12.307  0.0276 -0.1036  0.1115
 2805W        W18614  15.008  11.881  13.010 -0.0679  0.3980 -0.0389
 2806W        W18615   1.724   1.628  13.875  0.1239  0.2688 -0.4834
 2807W        W18616  18.478  17.909  13.573  0.1036  0.0750 -0.1412
 2808W        W18617   8.822   5.123   0.474 -0.0078 -0.0178 -0.0078
 2809W        W18618   0.799  18.844  11.578  0.2546 -0.0815  0.2635
 2810W        W18619   0.662  17.843   1.906 -0.3560  0.1505 -0.0046
 2811W        W18620   9.351   3.739  14.348 -0.1787 -0.2882 -0.1387
 2812W        W18621  11.148   8.830  10.455 -0.0576  0.0077  0.1535
 2813W        W18622   9.057   6.538  12.303  0.1944  0.2221 -0.0058
 2814W        W18623   5.316   2.277   0.865 -0.2858 -0.0229 -0.5114
 2815W        W18624  11.675  13.777  13.784 -0.1421  0.0244 -0.0039
 2816W        W18625   5.961  16.118  14.118  0.1398  0.1521 -0.1126
 2817W        W18626   7.946  16.517  10.890 -0.1244 -0.0782  0.0508
 2818W        W18627   6.490   0.584  13.921 -0.0260  0.2206 -0.3243
 2819W        W18628  10.821  17.083   0.215 -0.0016  0.1198 -0.2403
 2820W        W18629  17.954  14.244  10.994 -0.0092 -0.0512 -0.2989
 2821W        W18630   1.337  10.351   4.688 -0.2194  0.0641 -0.0882
 2822W        W18631   6.062  10.701  11.110 -0.1945  0.1542  0.1082
 2823W        W18632  12.368  12.203   3.379 -0.3546 -0.1838  0.1360
 2824W        W18633   1.997  14.343  12.660 -0.0142  0.2652  0.0984
 2825W        W18634  11.341  11.710   3.306 -0.4542  0.1255  0.1660
 2826W        W18635  12.232  16.643  11.020 -0.0825  0.1903 -0.2395
 2827W        W18636  18.447  13.209  13.805  0.2944  0.1051 -0.0216
 2828W        W18637   4.600   4.013  11.183 -0.0388  0.1647  0.0889
 2829W        W18638   1.082  16.544   2.860  0.1245  0.0683  0.0256
 2830W        W18639  17.791  11.142   4.908  0.1989  0.0729  0.2980
 2831W        W18640   9.166  11.742   0.864 -0.2106 -0.2313  0.0078
 2832W        W18641  10.558  16.616  11.907 -0.0271  0.0867 -0.1903
 2833W        W18642   7.152  18.804   2.154  0.2218 -0.0875  0.1424
 2834W        W18643  14.479   8.134  11.871 -0.0580  0.0355 -0.2636
 2835W        W18644   8.603   7.358   2.159 -0.1433  0.1369 -0.1850
 2836W        W18645   8.296   9.600  12.053 -0.1357  0.0061 -0.3411
 2837W        W18646  17.891   5.226   1.452  0.0633 -0.2798 -0.0788
 2838W        W18647   2.793   2.637  13.303  0.2087 -0.1423 -0.0656
 2839W        W18648  12.929  15.655   4.839  0.1024 -0.0058  0.0824
 2840W        W18649   0.701   2.994   5.358  0.1498 -0.1410 -0.1167
 2841W        W18650  16.883  13.138  11.245  0.3032  0.2055 -0.2874
 2842W        W18651  15.367  13.007  13.119  0.1130 -0.3240 -0.0527
 2843W        W18652   8.951  13.523  13.976  0.0136 -0.2021 -0.0927
 2844W        W18653   1.413   3.048  14.905 -0.1168 -0.1801 -0.1551
 2845W        W18654  10.450   1.171  12.134 -0.2695  0.2243 -0.0077
 2846W        W18655   7.379   1.133  14.347 -0.0911 -0.0918 -0.3158
 2847W        W18656  13.776  17.627  10.786 -0.0794 -0.1385  0.2834
 2848W        W18657   9.788   8.201   2.993 -0.2674 -0.0049 -0.0385
 2849W        W18658  14.264   1.388  13.619  0.0877  0.3688 -0.0402
 2850W        W18659  13.897  12.253   3.937  0.1400 -0.0997  0.3777
 2851W        W18660  12.971   2.283  14.032 -0.1486 -0.0513 -0.2980
 2852W        W18661  13.070   4.034   0.160 -0.3490  0.2309  0.0012
 2853W        W18662   8.325  12.653   2.701  0.3004  0.1074 -0.2936
 2854W        W18663  15.786   7.985   6.507 -0.1070  0.2235  0.1392
 2855W        W18664  15.304  14.496   3.765 -0.0044  0.1035  0.0827
 2856W        W18665   2.785   7.735   5.159 -0.0829  0.0286  0.2260
 2857W        W18666  14.571   5.665  11.873 -0.1625 -0.1169 -0.0326
 2858W        W18667  13.500   2.548   2.359  0.0840  0.2824  0.0889
 2859W        W18668   1.213   5.318  14.652 -0.2361  0.0646  0.0641
 2860W        W18669   8.777   2.242   3.124 -0.0031  0.1321  0.0486
 2861W        W18670  17.063  10.925  13.031 -0.0158 -0.0606 -0.1567
 2862W        W18671  11.545   0.595   5.012  0.3903  0.0523 -0.2839
 2863W        W18672   1.172   0.677  10.317 -0.3249 -0.0455  0.0517
 2864W        W18673   8.435   5.381   4.648 -0.0864 -0.0801  0.1187
 2865W        W18674  14.534  14.071  11.223  0.3167  0.1290  0.1670
 2866W        W18675   0.342  15.713   2.153  0.2902 -0.1212  0.0390
 2867W        W18676   4.166   2.799   2.189  0.0307  0.0745  0.0806
 2868W        W18677   5.126   4.949   2.788  0.1539 -0.1051  0.0915
 2869W        W18678  13.679  15.370  12.509 -0.3045 -0.3419 -0.0575
 2870W        W18679   8.496  12.969  13.379  0.0723  0.0309 -0.0888
 2871W        W18680   2.167   4.322  12.115 -0.1826 -0.2960  0.0343
 2872W        W18681   1.023   2.860   4.462  0.3352 -0.0964  0.2576
 2873W        W18682   6.518   2.903   4.080  0.0257  0.2271 -0.0915
 2874W        W18683  16.494   8.370  12.970  0.0728  0.0890  0.0284
 2875W        W18684  13.241  17.177   0.631  0.3560  0.0762 -0.2886
 2876W        W18685   2.014  14.239   4.006 -0.1644 -0.1100 -0.1317
 2877W        W18686   8.162  14.882  12.552 -0.0350  0.1116  0.2396
 2878W        W18687   9.161   8.068   2.624 -0.3174  0.0756  0.3775
 2879W        W18688  18.042  17.678  14.397  0.2094  0.0305  0.0516
 2880W        W18689   6.257   1.700   3.706  0.3369 -0.0984  0.0337
 2881W        W18690   7.271   3.941   2.747  0.0859 -0.3427 -0.0971
 2882W        W18691   4.176   3.457   0.976 -0.4545 -0.3193 -0.2828
 2883W        W18692   4.111   5.323  11.073  0.2984 -0.0156  0.1748
 2884W        W18693   9.124   4.301   3.923  0.1299 -0.0550  0.1147
 2885W        W18694   9.276  16.957  14.967  0.0550  0.2095  0.1879
 2886W        W18695  16.236  11.218  11.932  0.0291  0.0039  0.3791
 2887W        W18696  12.092  17.648   5.952  0.0062 -0.4119 -0.1276
 2888W        W18697   1.833   8.222  14.282  0.0038  0.0352 -0.1826
 2889W        W18698   7.978   3.659  12.251 -0.0010  0.0988 -0.3946
 2890W        W18699  15.766  11.336  14.719 -0.1437 -0.1571 -0.1881
 2891W        W18700   0.898  10.283   0.316  0.1750  0.0042 -0.1863
 2892W        W18701   6.774  10.694  12.588  0.0930 -0.0349 -0.0171
 2893W        W18702  11.848  16.323  11.852 -0.0310  0.1475  0.3612
 2894W        W18703  18.485   4.192   9.986 -0.0300 -0.2235 -0.2927
 2895W        W18704  16.002   4.343   0.675  0.0630 -0.0456 -0.1966
 2896W        W18705   1.808  14.822  14.107 -0.0885 -0.0093  0.1593
 2897W        W18706  16.718  15.407  12.562 -0.0996  0.3570  0.1276
 2898W        W18707   2.643   5.307   2.413  0.0194 -0.0174  0.0737
 2899W        W18708  13.725   2.309  10.721  0.1815  0.0638 -0.1063
 2900W        W18709  12.982  11.975   3.986  0.1701 -0.0876 -0.0697
 2901W        W18710   1.066   8.195  13.805 -0.0133  0.1806 -0.1268
 2902W        W18711   6.794  12.786  10.864 -0.0802  0.3374  0.0671
 2903W        W18712   9.818  11.244  13.288  0.0517  0.3749 -0.1124
 2904W        W18713  16.612   9.307  11.811 -0.3286 -0.0600 -0.1060
 2905W        W18714   2.021   5.013   2.096  0.2066  0.2844  0.6105
 2906W        W18715  15.471   4.315   0.062  0.0548  0.1921  0.1739
 2907W        W18716  18.044  11.912  14.416 -0.2396  0.0550  0.1286
 2908W        W18717  15.184   9.736   2.333 -0.0074  0.0891  0.2052
 2909W        W18718  14.718   4.299   2.824  0.0551  0.0934 -0.1111
 2910W        W18719  11.323  18.213   4.208 -0.1033  0.0634  0.0164
 2911W        W18720  17.707  13.943   3.038  0.4770 -0.0277 -0.0791
 2912W        W18721   8.507  14.618  10.766 -0.1790  0.2815  0.1779
 2913W        W18722  17.921  16.514   2.741  0.0390 -0.1763 -0.1753
 2914W        W18723  18.783  18.729  12.210 -0.0276 -0.1122 -0.0296
 2915W        W18724  11.771  18.093   0.634  0.0070  0.2789 -0.4135
 2916W        W18725   1.189  14.857   1.147 -0.5149  0.0543  0.1830
 2917W        W18726  17.311   5.174  14.050 -0.0878 -0.0943 -0.0919
 2918W        W18727   4.548   7.585   0.972  0.2515  0.3633 -0.1439
 2919W        W18728   7.774   7.005  12.061  0.2816 -0.0732 -0.1865
 2920W        W18729  12.194   1.297  13.365  0.4280 -0.1317 -0.0141
 2921W        W18730  10.575   4.828  13.855 -0.3789  0.1880  0.2912
 2922W        W18731   8.989   4.160   0.350  0.3031 -0.2022  0.1916
 2923W        W18732   0.152   7.518   3.430  0.1331 -0.2206  0.1660
 2924W        W18733   8.815   9.690  11.947 -0.1417  0.0282  0.0115
 2925W        W18734  10.957   0.009   5.650 -0.1074 -0.2542 -0.4990
 2926W        W18735   5.289  10.769   9.548  0.1095 -0.0146  0.3418
 2927W        W18736  14.660  15.841  14.234 -0.0647  0.0007  0.0136
 2928W        W18737  12.635  12.361  11.906  0.0819 -0.1993  0.2708
 2929W        W18738   8.171  10.761   0.795 -0.2193  0.0130  0.2062
 2930W        W18739   0.695  18.445   0.342 -0.0599  0.2037  0.0030
 2931W        W18740   4.520   9.150   4.711 -0.2406 -0.0688  0.0722
 2932W        W18741  15.813   0.955  14.396 -0.2733  0.1209 -0.0041
 2933W        W18742  15.211   3.209   2.340 -0.3099 -0.0276  0.0502
 2934W        W18743  10.214   9.672  10.182 -0.1082 -0.0443 -0.2350
 2935W        W18744  14.174  17.928  10.693 -0.2759  0.0702 -0.0241
 2936W        W18745   3.251   3.191  12.803 -0.1800 -0.1998  0.0206
 2937W        W18746   5.571   7.835  12.937  0.0894  0.1937 -0.2261
 2938W        W18747  10.623   7.048   4.644  0.1062 -0.1372 -0.0532
 2939W        W18748   6.732   1.814   4.818 -0.3026  0.0708  0.1789
 2940W        W18749   1.853  12.652   2.617  0.1246 -0.0743  0.3767
 2941W        W18750  18.178  17.401   2.750  0.1242  0.0494 -0.0945
 2942W        W18751   2.812   7.485  12.857  0.3595  0.0502 -0.1319
 2943W        W18752   5.752   5.369  11.025 -0.1531 -0.1557 -0.1320
 2944W        W18753  13.220   6.833  13.467  0.0701  0.0653  0.0626
 2945W        W18754  16.780  10.940   2.451 -0.0252 -0.1496  0.1795
 2946W        W18755   4.752   7.898  10.889  0.0943  0.1097  0.0427
 2947W        W18756   9.796  17.117  15.156  0.0100  0.1677 -0.2277
 2948W        W18757   0.527   0.765  15.010  0.1100  0.1661 -0.1475
 2949W        W18758   0.139   1.081   1.072  0.2640  0.1215  0.1004
 2950W        W18759  11.790  15.305  14.382 -0.1058  0.2302 -0.1732
 2951W        W18760   6.728  11.454  13.087 -0.1121  0.1419 -0.0352
 2952W        W18761  18.658   4.316   2.197  0.1241  0.3434 -0.3841
 2953W        W18762  10.192   4.620   0.313 -0.3330  0.2060 -0.3090
 2954W        W18763  11.810  17.398   2.962 -0.0290 -0.0084  0.1389
 2955W        W18764   8.197  10.018   4.647  0.1235  0.3359 -0.0389
 2956W        W18765   2.616   6.482   1.183  0.0628 -0.2288  0.0765
 2957W        W18766   2.398   8.404  12.707  0.0379  0.4499 -0.2690
 2958W        W18767   0.983   6.861  11.258  0.0551 -0.1443 -0.4041
 2959W        W18768   3.618   3.631  12.843  0.0528 -0.1835 -0.1377
 2960W        W18769  15.326   6.149  12.002 -0.1777 -0.1961  0.0445
 2961W        W18770  14.562   1.375   0.476  0.0757 -0.0339 -0.1130
 2962W        W18771  14.924   3.836  14.372  0.3075  0.0387  0.4021
 2963W        W18772   9.421  15.812   3.399  0.0916  0.1140  0.2492
 2964W        W18773   0.795   5.898  10.797  0.0992 -0.0720  0.1582
 2965W        W18774   6.201   3.368   2.153  0.0680  0.0532  0.0231
 2966W        W18775   7.676  13.102  14.149  0.1301 -0.0096 -0.1532
 2967W        W18776   0.237   1.111  15.212  0.0976  0.2384  0.1296
 2968W        W18777   0.916   2.896   0.077  0.0159 -0.0419 -0.0433
 2969W        W18778  13.142  14.151   5.751  0.1049 -0.0935  0.0995
 2970W        W18779  12.180   9.927  15.424  0.0154  0.0335  0.0214
 2971W        W18780  17.945   8.660  12.914 -0.2635  0.0072  0.0954
 2972W        W18781  14.440  11.210   5.471 -0.0536  0.0137 -0.1295
 2973W        W18782  13.762   9.197   3.309  0.0415  0.1739  0.0604
 2974W        W18783  17.168   2.613   1.854  0.0119  0.0906  0.2270
 2975W        W18784  16.573   1.878   3.533 -0.4361  0.0205  0.0829
 2976W        W18785  11.136   4.889   3.334 -0.1524 -0.2000  0.1766
 2977W        W18786   0.492  18.844   5.095 -0.0561  0.0411 -0.0595
 2978W        W18787   0.763  18.195   2.918  0.0744  0.0439  0.0763
 2979W        W18788  12.916  16.526  12.975  0.0392 -0.2012  0.2362
 2980W        W18789   3.008  16.314   0.715  0.4493 -0.0788  0.0606
 2981W        W18790   1.470  17.150   0.459 -0.1314  0.2732 -0.0323
 2982W        W18791  11.788  17.410  15.400  0.3790 -0.1048 -0.1685
 2983W        W18792  15.442  14.348   0.890 -0.1804  0.2732 -0.0253
 2984W        W18793  14.914  12.132   3.928 -0.0277  0.1992 -0.1578
 2985W        W18794   6.279   7.335   2.786 -0.2088  0.0145  0.0436
 2986W        W18795   5.538  17.414  15.310  0.2199 -0.0201 -0.0496
 2987W        W18796  16.528   4.234   0.962 -0.1155  0.1484 -0.3334
 2988W        W18797  14.349  15.629   0.654  0.1936  0.0173 -0.4684
 2989W        W18798   1.197  17.592   4.647 -0.1231 -0.0487 -0.0332
 2990W        W18799   8.426   6.823   1.978 -0.0879 -0.0134  0.0207
 2991W        W18800  16.298  16.381  13.436 -0.1364  0.2434 -0.2021
 2992W        W18801  15.882  14.243   1.095  0.3369  0.0316 -0.3187
 2993W        W18802  10.690  12.712   5.017  0.0549  0.1975 -0.0803
 2994W        W18803  14.462   3.410  12.116  0.3151 -0.2450  0.1516
 2995W        W18804   7.527   3.957   9.653  0.3377 -0.1647 -0.1388
 2996W        W18805   0.829  18.233   4.496  0.1422 -0.0419  0.1734
 2997W        W18806  13.269   3.216  12.094 -0.2370 -0.2327 -0.0322
 2998W        W18807   7.920   8.561   2.300 -0.3448  0.1139  0.1013
 2999W        W18808  12.809  14.967  11.668  0.1813  0.0171  0.2769
 3000W        W18809   6.711   2.045   2.632  0.1041  0.3139 -0.0635
 3001W        W18810   4.413   2.659  12.370  0.2308 -0.0479  0.0017
 3002W        W18811   8.782  12.904  12.352  0.0896  0.0930 -0.0239
 3003W        W18812  17.914   4.471  12.863  0.5150  0.0793  0.3380
 3004W        W18813   0.396   7.802   0.869  0.2576  0.2760 -0.1058
 3005W        W18814  12.255   0.407  15.246  0.0233  0.0208  0.1016
 3006W        W18815   6.084   8.003  11.722  0.1226 -0.2500  0.0162
 3007W        W18816  17.840   9.296  14.724 -0.1682 -0.0389  0.1454
 3008W        W18817   7.615   6.273  15.284  0.0463  0.0734  0.1267
 3009W        W18818  12.591   5.537   9.822 -0.0198  0.2679 -0.1294
 3010W        W18819   2.968   3.239  10.558 -0.1136 -0.2853 -0.1369
 3011W        W18820   8.968   7.588   5.265  0.2646 -0.3486 -0.0482
 3012W        W18821   1.864   1.397   0.630  0.1927 -0.0004 -0.2717
 3013W        W18822  12.161   2.451   4.946 -0.0571  0.2012  0.2290
 3014W        W18823   2.856  10.538  14.755 -0.0295 -0.2141 -0.1450
 3015W        W18824  11.588   4.320   2.014  0.0054  0.0789  0.1789
 3016W        W18825   6.047  14.290   4.431 -0.2015  0.1101 -0.3922
 3017W        W18826  15.851  16.620  13.184 -0.2109 -0.3540  0.2660
 3018W        W18827   6.709   2.269  13.511  0.0328  0.2040  0.2210
 3019W        W18828   7.815  13.469   4.512  0.2069 -0.0970  0.0682
 3020W        W18829   0.893   2.065   3.249 -0.1283  0.5188 -0.1206
 3021W        W18830   9.454  10.801  12.830  0.0502  0.0670  0.4057
 3022W        W18831   4.547  18.222  13.787 -0.2041  0.0197 -0.0805
 3023W        W18832  18.301   0.954   3.275  0.1242 -0.3129  0.4165
 3024W        W18833   2.815  16.784  11.657 -0.0795 -0.1640 -0.1914
 3025W        W18834   0.334  15.766  14.725  0.1691 -0.3219  0.0185
 3026W        W18835   7.602  18.699  14.593 -0.0272  0.1587  0.1510
 3027W        W18836  17.049   4.671   4.598 -0.2493  0.2127  0.0636
 3028W        W18837  12.873   1.496   1.626 -0.1591 -0.0123  0.0174
 3029W        W18838   0.566   0.571  13.998 -0.1208  0.0988 -0.1460
 3030W        W18839  10.393  13.257   4.652  0.2129  0.2886 -0.2435
 3031W        W18840  10.677  17.766   4.417 -0.1888  0.3774 -0.0285
 3032W        W18841   5.259   5.703  11.030 -0.0887  0.0905 -0.1189
 3033W        W18842  10.839   1.335  14.814  0.4949  0.0873  0.2196
 3034W        W18843  13.670   2.702   3.552  0.0432  0.2073  0.0560
 3035W        W18844   8.569  15.354  15.095 -0.2631 -0.0956  0.3507
 3036W        W18845   9.826   0.489   0.051 -0.2205 -0.0817 -0.1421
 3037W        W18846   3.207   3.894   3.890 -0.0824  0.0425  0.2194
 3038W        W18847  18.232  10.919   1.578  0.1139  0.2746  0.1636
 3039W        W18848   3.406  16.869  14.761  0.0960 -0.1540 -0.0125
 3040W        W18849  11.237   9.294   2.577 -0.1168 -0.0222  0.0438
 3041W        W18850   8.287  17.987   2.311 -0.0058 -0.2101 -0.2314
 3042W        W18851   5.862  15.665   3.417  0.1756  0.1123 -0.1092
 3043W        W18852   3.243   4.839   3.653 -0.2365  0.1312 -0.3407
 3044W        W18853  11.042   1.826   1.547  0.1542 -0.0310  0.3235
 3045W        W18854   2.115   8.775  12.809 -0.1472 -0.0569 -0.1075
 3046W        W18855   4.006  14.666  15.281 -0.1193  0.0274 -0.2669
 3047W        W18856  16.854  15.382  15.288  0.0089 -0.1820 -0.1646
 3048W        W18857  18.757  17.631  11.173 -0.0371 -0.2207 -0.1615
 3049W        W18858  14.901  14.667   4.439 -0.1013 -0.1606  0.2860
 3050W        W18859  14.105  16.429   1.962 -0.0783  0.1769  0.1395
 3051W        W18860   9.530  16.533   2.855 -0.2895 -0.2832  0.2253
 3052W        W18861   2.018  15.263  14.538  0.1999  0.0723  0.0239
 3053W        W18862  15.916   2.476  10.410 -0.0623  0.0925  0.1747
 3054W        W18863  10.543  10.686  10.958  0.0300 -0.0185  0.0061
 3055W        W18864  15.768  12.063  13.205  0.2108 -0.1138  0.1720
 3056W        W18865   8.534   2.456   0.944 -0.0039  0.1582 -0.1556
 3057W        W18866   2.849  14.983  14.856  0.0561 -0.1791  0.2321
 3058W        W18867  12.526  13.152   3.694 -0.0671  0.0428 -0.2510
 3059W        W18868   5.038  17.879   2.987  0.1382 -0.1136 -0.0502
 3060W        W18869   8.056   0.735  13.206  0.1041  0.0929  0.0953
 3061W        W18870   4.115  15.310   3.112  0.1767 -0.0110  0.0409
 3062W        W18871   0.558   8.709  10.609 -0.5039 -0.0967  0.3858
 3063W        W18872   5.748  10.032   9.339  0.1020  0.1681  0.2501
 3064W        W18873   9.990   4.983  13.823  0.2634  0.2603 -0.0818
 3065W        W18874  16.608  14.468   0.590  0.0937 -0.0921  0.0009
 3066W        W18875  18.624   9.440   4.835  0.2040 -0.0232 -0.0792
 3067W        W18876   6.193  18.631  10.020 -0.2894  0.2533  0.1352
 3068W        W18877   2.403  11.768   2.037 -0.0073 -0.0131  0.2683
 3069W        W18878   1.549   8.296  13.258  0.3233 -0.0356 -0.1258
 3070W        W18879  17.988  13.945   2.159 -0.2201 -0.0473  0.1998
 3071W        W18880  17.224  14.831  11.038  0.0155 -0.1708  0.0140
 3072W        W18881   9.656  10.456  13.612  0.0502  0.1197  0.2882
 3073W        W18882   6.864   4.517   2.083  0.2747 -0.2318  0.0579
 3074W        W18883   8.049  18.047  10.327  0.2743  0.1100 -0.3764
 3075W        W18884   8.684  14.308  12.624 -0.2440 -0.1018  0.3879
 3076W        W18885   0.154   4.788   1.563  0.2159  0.2016 -0.0972
 3077W        W18886  18.886   4.518   1.126  0.2618  0.0429 -0.0214
 3078W        W18887  14.166   1.804  15.220 -0.2990 -0.1940 -0.3609
 3079W        W18888  16.955  11.798   2.877 -0.1314  0.1036  0.0302
 3080W        W18889   1.715  14.936   3.750 -0.1738 -0.2247  0.2131
 3081W        W18890  12.264   3.701  12.247  0.0306 -0.1762  0.1689
 3082W        W18891   7.890  12.453  13.898 -0.3255  0.0219  0.2669
 3083W        W18892   8.697   4.096  11.709  0.0225 -0.2846  0.1123
 3084W        W18893   2.518   7.231   4.994 -0.3985  0.1694  0.0394
 3085W        W18894   8.690  12.141  10.219  0.0946 -0.0097 -0.0824
 3086W        W18895   6.269  18.636  13.462 -0.1951 -0.1071  0.3821
 3087W        W18896  13.526  15.873   0.455 -0.2996  0.0992 -0.0984
 3088W        W18897  12.168   6.200  14.217  0.0424 -0.0462 -0.1069
 3089W        W18898  10.324   9.243   1.595  0.0213  0.0217  0.1623
 3090W        W18899  16.722  13.670  11.344 -0.0620 -0.1491  0.1669
 3091W        W18900  16.451  11.362   3.678  0.0144  0.0082  0.2672
 3092W        W18901   5.840   1.017  10.690 -0.1217  0.0460 -0.0345
 3093W        W18902   7.101   0.201   4.732  0.0208  0.0655 -0.0251
 3094W        W18903  13.463   9.631  14.233 -0.2823  0.0062  0.2157
 3095W        W18904  10.329  13.731  11.560  0.1140  0.2252 -0.1611
 3096W        W18905   6.491   8.251  10.195 -0.1508  0.1051  0.3081
 3097W        W18906  11.937   8.028  10.206  0.0493 -0.0492 -0.0416
 3098W        W18907   9.877   7.196  14.186  0.0652  0.1002  0.1483
 3099W        W18908   2.799   6.800   0.610 -0.1405 -0.0072 -0.1323
 3100W        W18909  17.124  14.681  10.114 -0.3520  0.0686 -0.1248
 3101W        W18910   0.512   8.349  10.196  0.3425  0.2015 -0.0470
 3102W        W18911   0.544   9.026   1.231  0.0410  0.1823  0.0206
 3103W        W18912   3.930  17.518  12.066  0.2950  0.0395  0.0153
 3104W        W18913  13.399  12.751  12.577  0.2231 -0.1529 -0.1007
 3105W        W18914   2.765  16.842   4.765  0.1439 -0.1253 -0.1621
 3106W        W18915  15.489   6.564   4.688  0.3896 -0.0329  0.1040
 3107W        W18916  13.029  11.885   1.928  0.2686 -0.0574  0.0247
 3108W        W18917   9.177  12.598  14.438  0.1631  0.0374 -0.0069
 3109W        W18918  11.876   7.929  12.113  0.2915  0.1731  0.1567
 3110W        W18919  15.995  16.703   3.823 -0.2152 -0.3842  0.0553
 3111W        W18920   7.392  13.460  14.466  0.0896 -0.0991 -0.1951
 3112W        W18921  16.528   9.385  12.786 -0.1571 -0.0151  0.2662
 3113W        W18922   7.491  14.338  10.885 -0.2467  0.1695 -0.1124
 3114W        W18923  10.251   9.956   3.045 -0.2436 -0.3489 -0.6116
 3115W        W18924  14.538   5.305  11.102 -0.0717 -0.0616 -0.0591
 3116W        W18925   7.960  17.661  10.638 -0.0662  0.0928  0.1977
 3117W        W18926   0.094   1.575   3.178  0.1818 -0.1444 -0.1408
 3118W        W18927   7.312   2.492   0.702 -0.1978  0.0276  0.1587
 3119W        W18928  15.417   1.819   2.116 -0.0651 -0.3957  0.1092
 3120W        W18929   3.373   6.179  12.168  0.0124 -0.1562 -0.1832
 3121W        W18930   2.856  17.249  15.200 -0.1791 -0.3836 -0.2549
 3122W        W18931  14.780   2.533   1.843 -0.2305 -0.1666  0.3129
 3123W        W18932   9.741  11.253   0.158  0.4824  0.0391  0.0932
 3124W        W18933  13.269  16.016   3.602  0.1686  0.0695 -0.1458
 3125W        W18934  17.415   5.107   5.442 -0.0353 -0.1791 -0.1130
 3126W        W18935  14.816   6.097  13.449  0.0379 -0.1097 -0.0184
 3127W        W18936   3.864  12.858  12.624 -0.2076 -0.1313 -0.2191
 3128W        W18937  16.087  11.757  14.808 -0.0374 -0.0907 -0.0659
 3129W        W18938   6.869   4.731   5.144  0.1588  0.1386 -0.2712
 3130W        W18939   7.059   1.973  15.358 -0.2328 -0.4507  0.1431
 3131W        W18940  16.058  15.788  10.592  0.0953  0.1665  0.0666
 3132W        W18941  15.528   3.283  11.592 -0.1204 -0.0325  0.0200
 3133W        W18942   5.317  10.986   1.933 -0.0872 -0.0247 -0.0622
 3134W        W18943  13.215   0.499  15.175  0.5415 -0.0731 -0.2966
 3135W        W18944   4.339  14.035   3.502 -0.2337 -0.2042 -0.1358
 3136W        W18945   0.567  10.359   6.130  0.2952 -0.0001  0.3358
 3137W        W18946   6.852  10.776   4.655  0.1791  0.1201  0.2883
 3138W        W18947   6.706   8.622  14.427 -0.4619  0.0113 -0.2178
 3139W        W18948   3.852  15.600  14.154  0.3239 -0.2229 -0.0103
 3140W        W18949  11.251  11.477   4.318  0.0431  0.1345  0.4755
 3141W        W18950  11.655  10.145   4.137 -0.2579 -0.0847 -0.0343
 3142W        W18951   1.369   8.275   2.902  0.1126 -0.0609 -0.0532
 3143W        W18952   0.911  15.797   1.254  0.3065  0.0737  0.2402
 3144W        W18953   3.216  18.320  10.590 -0.1255 -0.0114 -0.3652
 3145W        W18954  18.008   7.482   4.104  0.2192  0.1504 -0.2177
 3146W        W18955  17.564   5.901  15.366 -0.1543  0.1294  0.1746
 3147W        W18956  17.994   3.415  14.384 -0.0601  0.1184  0.1270
 3148W        W18957   9.729   8.820  13.987  0.1291  0.2433  0.3932
 3149W        W18958   4.769   1.480   3.090 -0.1048  0.3228  0.0472
 3150W        W18959   4.438  12.452   2.136  0.1974  0.0401  0.0428
 3151W        W18960  15.454   3.191   0.938  0.1923 -0.2296 -0.0086
 3152W        W18961  18.117   6.889   4.401 -0.0599 -0.2798 -0.0871
 3153W        W18962  12.369  10.896   2.158 -0.0998 -0.2225 -0.2371
 3154W        W18963  16.395  15.677   2.968 -0.2240  0.0298 -0.2232
 3155W        W18964   2.974   2.680  12.841 -0.2238 -0.0803  0.1809
 3156W        W18965   2.706  16.035   3.824 -0.0141  0.1821  0.2805
 3157W        W18966   9.289  11.770  13.393  0.0224  0.0151  0.1488
 3158W        W18967  14.325   4.826  12.135  0.0508 -0.1100 -0.2149
 3159W        W18968  13.223   4.380   2.719 -0.4968  0.1439 -0.1024
 3160W        W18969   3.391  12.768   0.247 -0.4559 -0.1594  0.0445
 3161W        W18970  16.103   7.878  14.107  0.1656  0.0846  0.0124
 3162W        W18971   0.719  16.554  14.976 -0.1809  0.3339  0.1751
 3163W        W18972  10.263  13.053  12.357  0.2817  0.0686  0.0554
 3164W        W18973   2.316   0.866   0.154 -0.4806 -0.1250  0.0406
 3165W        W18974  12.469   0.753   1.135  0.0306 -0.1027 -0.1188
 3166W        W18975  12.573   0.561   0.622  0.2336  0.3837  0.2542
 3167W        W18976   2.371   7.765   2.730  0.2554  0.0030  0.2993
 3168W        W18977   4.755   3.366   0.175 -0.0427 -0.3760 -0.3888
 3169W        W18978  10.929  11.778  13.243 -0.1394 -0.1075 -0.3063
 3170W        W18979   0.194  17.478  12.220  0.0676 -0.1867  0.2634
 3171W        W18980   9.152  16.687   3.196 -0.0367 -0.0929 -0.0158
 3172W        W18981   7.397   3.457   9.693 -0.2602  0.2829  0.0079
 3173W        W18982   3.742   9.106  11.041 -0.3489  0.1874  0.3402
 3174W        W18983  10.569  18.409  12.327  0.1679 -0.2238 -0.4225
 3175W        W18984  14.934   8.972  14.855 -0.1364  0.2269  0.0756
 3176W        W18985   0.662   1.207  14.652  0.1269  0.0526  0.0170
 3177W        W18986   2.570   7.292  13.609  0.2571  0.1837 -0.1809
 3178W        W18987  15.304   9.780  15.195 -0.3796 -0.0603  0.2392
 3179W        W18988  13.149  14.611   5.388 -0.0147 -0.0766  0.2983
 3180W        W18989   7.841   0.604   3.307 -0.1019  0.1544  0.0289
 3181W        W18990  17.338  16.550  14.733  0.1358  0.2228 -0.0128
 3182W        W18991  15.939  10.131   4.973 -0.2126  0.1050  0.3250
 3183W        W18992  11.010  14.740   3.595 -0.1612  0.0012  0.2198
 3184W        W18993   4.709  11.403   3.405 -0.3934 -0.0046 -0.0696
 3185W        W18994   7.404  18.816   1.137 -0.0929 -0.0999  0.2435
 3186W        W18995  17.820   2.141  11.614  0.1329  0.0164 -0.2144
 3187W        W18996   3.010   3.180   4.969 -0.1004 -0.0304  0.0237
 3188W        W18997   9.595   4.139   3.624 -0.0675  0.0447  0.3708
 3189W        W18998   8.611   8.227  10.601  0.0564  0.1451  0.1841
 3190W        W18999   9.832   9.906  10.394  0.2537  0.1164 -0.1183
 3191W        W19000  15.562   8.456  12.816 -0.0686 -0.2795 -0.2661
 3192W        W19001   2.695  13.223   2.757  0.0659  0.2572 -0.0191
 3193W        W19002  15.148  14.996  11.780  0.2671  0.1075 -0.3116
 3194W        W19003  11.089  17.683  12.750 -0.1663 -0.0789  0.1564
 3195W        W19004   8.088  17.093   4.991  0.3707  0.0869 -0.1410
 3196W        W19005  14.346   7.895  12.335 -0.2344  0.2517 -0.1537
 3197W        W19006  15.819   5.476  11.395  0.0315 -0.0235  0.2640
 3198W        W19007   9.290  18.362   1.994 -0.3862  0.1441 -0.0177
 3199W        W19008   6.820   7.337  13.109  0.2374  0.0848  0.4298
 3200W        W19009   5.240   9.252  12.780 -0.3232  0.0713  0.0038
 3201W        W19010  17.791   4.657   5.372 -0.1135 -0.1501  0.3102
 3202W        W19011  15.710  10.461   5.399  0.4378 -0.1107 -0.0243
 3203W        W19012  10.470   8.263   0.981  0.0603 -0.0233 -0.0216
 3204W        W19013   3.099  17.066  11.977  0.1834  0.1741  0.0150
 3205W        W19014   1.817   2.869  13.617  0.2356  0.1120 -0.0702
 3206W        W19015  17.219  16.318  11.086 -0.0337  0.0911  0.2876
 3207W        W19016  18.559  17.762  14.129  0.0566 -0.2416  0.2976
 3208W        W19017   1.373  18.689   2.208  0.1191  0.0566  0.3076
 3209W        W19018   6.937   5.044  10.543  0.0528 -0.0451  0.1563
 3210W        W19019  17.883  14.938   0.408  0.0157  0.0110  0.0497
 3211W        W19020  11.760   6.764  12.538 -0.0037 -0.1986  0.2603
 3212W        W19021  15.003   9.503  11.758  0.0288  0.1353 -0.1343
 3213W        W19022   0.438  10.951   0.780 -0.0166  0.1467  0.1165
 3214W        W19023  17.347  17.514   0.656 -0.1612  0.1771 -0.2065
 3215W        W19024  15.825   3.640   2.882  0.0671 -0.2115 -0.3689
 3216W        W19025   8.333   5.970  11.084  0.0576 -0.1124  0.1207
 3217W        W19026  10.906  17.576  11.784  0.3052 -0.0935 -0.0067
 3218W        W19027   7.893  17.165  10.138 -0.0009 -0.0934 -0.2562
 3219W        W19028   7.089  16.832   1.494  0.3307 -0.2524  0.3593
 3220W        W19029   2.213   5.307  11.137  0.0285  0.1889  0.1665
 3221W        W19030   5.001  18.052   1.053 -0.0796 -0.2276  0.1043
 3222W        W19031  17.138  10.171  11.034 -0.0802 -0.1529  0.1428
 3223W        W19032   2.910  17.093   2.363  0.2361  0.0686  0.0676
 3224W        W19033   1.829  14.793   4.867  0.0832 -0.1336  0.0785
 3225W        W19034   7.931  11.200   4.812 -0.0513 -0.0710 -0.3625
 3226W        W19035   5.048  18.145   0.471  0.0789 -0.0434 -0.1387
 3227W        W19036   8.429  12.421  10.614  0.1996 -0.1618 -0.1899
 3228W        W19037  14.012   7.521   0.589 -0.2825 -0.1980 -0.1147
 3229W        W19038   6.516   7.414   0.527 -0.2824  0.0926 -0.3499
 3230W        W19039   4.167   8.332   1.489  0.3367  0.0075  0.0179
 3231W        W19040   3.554   7.268  10.400  0.0145 -0.0286  0.0847
 3232W        W19041   2.372  16.377  13.857 -0.2819 -0.0193 -0.1042
 3233W        W19042  14.043   9.159   2.712 -0.2019  0.1756 -0.3546
 3234W        W19043   2.281  18.207   1.742  0.1793 -0.2518  0.1563
 3235W        W19044   2.757  18.632   4.478 -0.0344  0.1216  0.2205
 3236W        W19045   5.877  14.230  14.283 -0.1330 -0.0859 -0.2945
 3237W        W19046  16.868  10.506  14.287 -0.0967 -0.0515  0.1267
 3238W        W19047   8.421   5.493  12.115  0.3619 -0.2278 -0.0203
 3239W        W19048  12.838   2.995   3.714  0.2041  0.0030 -0.4101
 3240W        W19049  15.284   2.764   3.825 -0.0309  0.1918  0.0166
 3241W        W19050   4.498   0.520  12.739 -0.1040  0.0181 -0.3773
 3242W        W19051   0.874  10.765  14.540  0.3682  0.0370  0.1122
 3243W        W19052  16.816   6.582  13.154  0.0455 -0.1784  0.1060
 3244W        W19053   0.401  16.294  14.678  0.1658  0.1305 -0.0924
 3245W        W19054   5.464   0.788  12.707 -0.0522 -0.0719 -0.0271
 3246W        W19055   6.924   7.750   3.896 -0.0535  0.2021 -0.1015
 3247W        W19056   5.956  17.038   1.014 -0.0891  0.0294  0.1547
 3248W        W19057   5.458  12.893  11.227  0.0817  0.0742  0.0070
 3249W        W19058  17.743  11.080  14.922  0.3459 -0.1791 -0.1346
 3250W        W19059   1.364  18.769   2.728 -0.0959 -0.0489  0.1052
 3251W        W19060  18.869  18.842   2.554  0.0878 -0.0844  0.1193
 3252W        W19061  11.895  10.918   3.431  0.0210 -0.1838 -0.0215
 3253W        W19062   6.085  17.994   4.596 -0.0151 -0.1062  0.0460
 3254W        W19063  18.240   0.203   4.431  0.1150  0.4159  0.1627
 3255W        W19064   4.240  14.163  13.999 -0.6760 -0.0318  0.0833
 3256W        W19065  15.495   9.343  15.426 -0.1586 -0.2310  0.0454
 3257W        W19066  18.262   4.048  15.081  0.1976 -0.0792 -0.4212
 3258W        W19067   7.460   4.702  11.017  0.1569 -0.0941  0.0656
 3259W        W19068  11.377   2.178  10.915 -0.1694 -0.0541  0.0254
 3260W        W19069   8.965  10.016   5.052  0.3544  0.1844 -0.5521
 3261W        W19070   8.469  17.811  10.618  0.0890  0.0889  0.1979
 3262W        W19071   5.205   1.508   1.187  0.0896  0.0221  0.1269
 3263W        W19072  13.162  18.183  10.608 -0.2850 -0.1017 -0.1977
 3264W        W19073   4.137  12.383  14.958  0.0099  0.0945 -0.0145
 3265W        W19074   2.358  13.149  15.200  0.0594 -0.0208  0.2248
 3266W        W19075  14.122   6.141  11.168  0.1202  0.4576  0.0219
 3267W        W19076  17.962  10.117   0.163  0.0899  0.2234 -0.3099
 3268W        W19077  10.989   8.065   3.387  0.2876 -0.1294  0.2421
 3269W        W19078  15.619  12.348   4.430 -0.1953 -0.1074  0.2420
 3270W        W19079   6.088   7.865   3.041  0.3192  0.1544  0.0775
 3271W        W19080   6.567  15.056   3.048  0.0233  0.0356 -0.2208
 3272W        W19081  12.167   1.072   0.402  0.0156 -0.0448 -0.1682
 3273W        W19082  17.985   4.410   2.602 -0.0654  0.0901  0.0833
 3274W        W19083   1.841  16.834   2.581  0.1594 -0.1296  0.1082
 3275W        W19084   0.077   1.483   4.564  0.1485  0.0725 -0.0353
 3276W        W19085   4.501   0.372   1.212  0.0626 -0.3791 -0.0338
 3277W        W19086   7.225   2.022  12.464 -0.0047 -0.1116 -0.0156
 3278W        W19087   4.012   7.910  12.163 -0.2233  0.0022  0.1821
 3279W        W19088  13.995  13.199   5.221 -0.4336  0.1615  0.0100
 3280W        W19089  17.097  13.427   1.879  0.0286 -0.0359  0.6073
 3281W        W19090   1.707  10.511  13.738  0.0300  0.1948  0.0605
 3282W        W19091  18.871  13.810  12.060  0.0864  0.2423  0.1411
 3283W        W19092  16.677   0.279  11.709 -0.1219 -0.2491  0.1399
 3284W        W19093  14.444  10.432   1.559  0.0985 -0.2357  0.3663
 3285W        W19094   0.459  11.667  12.062 -0.1197  0.3047  0.1163
 3286W        W19095   5.853  15.673  14.871 -0.2448  0.0770 -0.1260
 3287W        W19096  12.137   5.847   0.559 -0.1803  0.0131 -0.0582
 3288W        W19097   6.280   2.687   3.682 -0.3415  0.5497 -0.3423
 3289W        W19098  12.034   9.042   1.825  0.2223 -0.2136 -0.1995
 3290W        W19099  16.340  17.374  11.318 -0.0519  0.1541  0.2313
 3291W        W19100  14.141  12.007   2.802 -0.0601  0.2466  0.0815
 3292W        W19101   9.281   8.719  13.546 -0.1103 -0.0590 -0.0688
 3293W        W19102   8.005  14.813   0.096  0.1127  0.0468 -0.1151
 3294W        W19103   4.278   1.509   3.242  0.1784  0.1904  0.0529
 3295W        W19104  12.646  11.718   3.676  0.1767  0.1750 -0.1237
 3296W        W19105   0.872  11.540   9.785  0.0678  0.1593 -0.2362
 3297W        W19106  16.598   5.757  12.384 -0.0524 -0.0507 -0.1164
 3298W        W19107   2.851   4.896   4.583 -0.0403  0.4119  0.0758
 3299W        W19108  13.639  10.044   3.156 -0.0472  0.0884  0.4015
 3300W        W19109  18.339  12.474   4.815 -0.1253  0.1749  0.3388
 3301W        W19110   4.008  13.911   0.456 -0.1008 -0.1783 -0.2113
 3302W        W19111  12.966  18.849   4.078 -0.1854 -0.1566 -0.2184
 3303W        W19112   6.066   2.029   0.826  0.3004  0.1418 -0.2283
 3304W        W19113  16.245   3.838   3.146 -0.0852  0.1585 -0.0799
 3305W        W19114  14.033   9.548   0.895 -0.1680  0.1573 -0.1241
 3306W        W19115  14.144  11.249  11.037  0.0213  0.0300  0.3928
 3307W        W19116  10.745   4.439   1.455  0.3056  0.1116  0.1540
 3308W        W19117  18.793  17.900   1.470 -0.3529  0.1714 -0.4328
 3309W        W19118  10.156   7.078   2.452  0.1378  0.1264 -0.1523
 3310W        W19119   5.458   7.875  13.841  0.0487  0.2308  0.1251
 3311W        W19120   8.802   1.658   1.315 -0.4441 -0.2238  0.2472
 3312W        W19121   4.509  13.562  14.471 -0.0233 -0.0807 -0.2786
 3313W        W19122  12.259   9.619  12.041  0.4946 -0.0290  0.6319
 3314W        W19123  17.210  17.685  14.230  0.1805  0.1582  0.4189
 3315W        W19124   2.537   6.469   5.674 -0.2649  0.0108 -0.1912
 3316W        W19125   0.567   4.734  15.377 -0.2180  0.0019  0.1432
 3317W        W19126  17.810  16.411   0.054  0.0877  0.1903  0.1112
 3318W        W19127   1.804   5.423  15.239 -0.0128  0.3823  0.0785
 3319W        W19128   4.503   0.498  10.878 -0.0926 -0.0809  0.0600
 3320W        W19129   7.507  17.011  12.913  0.0846  0.0958  0.0778
 3321W        W19130   0.602   8.171  10.682  0.1716 -0.0967  0.1499
 3322W        W19131  18.665  11.749  12.307  0.1186 -0.2238 -0.0844
 3323W        W19132   9.958   2.342   1.791  0.2041  0.2993 -0.2749
 3324W        W19133   1.930   2.087  13.843 -0.0662 -0.1564  0.1872
 3325W        W19134   1.729  16.710  12.337  0.3111 -0.0148  0.1543
 3326W        W19135  12.396   3.371   2.528 -0.1427 -0.1253 -0.0981
 3327W        W19136   4.661   8.964   1.831  0.1024  0.1221 -0.0988
 3328W        W19137  18.534  10.173  14.016 -0.1677 -0.0528  0.3242
 3329W        W19138   8.635  11.615   4.487  0.0042  0.0255  0.0851
 3330W        W19139   2.451  14.503   0.807  0.0235 -0.1677  0.2520
 3331W        W19140   9.209  14.105  13.182  0.2227  0.0286 -0.2026
 3332W        W19141   1.885   5.436  14.737  0.3094  0.1722 -0.1504
 3333W        W19142  16.488  12.976  13.656  0.1112 -0.1404  0.3651
 3334W        W19143   0.908  18.353  13.153  0.3024  0.1604 -0.2228
 3335W        W19144  15.809  14.710   3.090 -0.0165  0.1926 -0.3596
 3336W        W19145  13.475  12.123  13.281 -0.1731 -0.1990 -0.0343
 3337W        W19146  12.038  10.967   1.416 -0.1723  0.0464 -0.3499
 3338W        W19147   8.946  18.288  14.671 -0.1713  0.1703  0.2389
 3339W        W19148   9.966   4.579   2.647  0.0147  0.0552  0.0846
 3340W        W19149  18.198   1.010   2.358  0.0160  0.0442  0.1448
 3341W        W19150   6.599  14.287   4.659  0.0004  0.4538 -0.2853
 3342W        W19151   2.537   6.441  14.523  0.3761 -0.1021  0.2212
 3343W        W19152  11.644  13.446   3.512 -0.1888 -0.3043  0.0706
 3344W        W19153   2.728  17.071   1.766  0.1969 -0.0061 -0.0657
 3345W        W19154  10.995  11.825   2.935  0.0076 -0.1888  0.0154
 3346W        W19155  18.547   9.912   3.677  0.1375  0.2300 -0.0417
 3347W        W19156  17.515  11.435  12.195 -0.1791  0.1833 -0.1741
 3348W        W19157   4.558   6.117  15.094  0.0228  0.0965  0.0599
 3349W        W19158  13.396   7.435  14.176 -0.1780 -0.1357  0.0146
 3350W        W19159  14.078   6.998   4.088  0.0243 -0.1768  0.0082
 3351W        W19160  13.127  16.177  15.094  0.0179 -0.0229  0.0456
 3352W        W19161   1.346  11.082  14.443  0.1567 -0.2044  0.1198
 3353W        W19162   9.152   7.078   4.020 -0.0390 -0.0743 -0.1144
 3354W        W19163   7.722  13.610   9.845 -0.1290 -0.2613  0.0397
 3355W        W19164  15.413  16.667  15.294 -0.0465 -0.2386 -0.4903
 3356W        W19165  17.181  15.853  12.096  0.2530 -0.1313 -0.3383
 3357W        W19166   5.243   4.673   3.787  0.0144 -0.1587  0.0354
 3358W        W19167  10.126   6.470  11.074 -0.0356  0.1214  0.0014
 3359W        W19168   2.515  10.713  15.110  0.1746 -0.2483 -0.3335
 3360W        W19169   5.978  13.994  12.825  0.3969 -0.2204 -0.0237
 3361W        W19170   9.940   2.835  11.404 -0.1359 -0.0207  0.0561
 3362W        W19171   4.303   8.178   0.969 -0.0051  0.1303  0.0461
 3363W        W19172  12.653   6.448  12.294  0.0439 -0.1624 -0.0256
 3364W        W19173  13.272   7.175  11.714  0.1652  0.0056  0.0785
 3365W        W19174   5.591   1.706   4.170 -0.4545  0.1950 -0.4571
 3366W        W19175  12.876  12.987  13.157  0.2775 -0.2187  0.5599
 3367W        W19176   3.336  13.292  10.469 -0.2099 -0.0066 -0.1324
 3368W        W19177  13.272  12.983   3.818 -0.2009 -0.0879 -0.0587
 3369W        W19178   4.754  10.279   3.444  0.3156  0.1210  0.1751
 3370W        W19179   8.435  16.828   4.687  0.0692 -0.0588  0.2924
 3371W        W19180  14.218  17.674  12.640 -0.2708 -0.1748  0.2213
 3372W        W19181  11.680   9.247   3.662 -0.2284  0.1085  0.0874
 3373W        W19182   1.910   5.274   1.635  0.0913  0.3255 -0.1253
 3374W        W19183  17.621  18.147  13.687 -0.1254 -0.2715  0.2069
 3375W        W19184   6.645   0.524  13.346  0.0027 -0.1552  0.0500
 3376W        W19185  16.890   0.349   6.062  0.0602 -0.2051 -0.2359
 3377W        W19186  12.387  11.474  12.488 -0.0301 -0.1265  0.1568
 3378W        W19187   2.632   0.026   0.079  0.1818  0.1164 -0.3177
 3379W        W19188   5.958  10.665   3.105  0.2697 -0.0705 -0.1039
 3380W        W19189  12.252  17.303   4.705  0.0004  0.2233 -0.0375
 3381W        W19190   6.112  18.289  14.630 -0.1063 -0.3050  0.0127
 3382W        W19191  16.592   3.566  12.876  0.0132 -0.1624  0.1134
 3383W        W19192   4.146   6.311  13.402 -0.0837 -0.3296 -0.0579
 3384W        W19193   9.826   3.839   5.402  0.0686  0.4605 -0.0353
 3385W        W19194   0.438  16.085  12.526  0.2574  0.0427  0.0320
 3386W        W19195  12.646  16.549   4.205 -0.3494  0.3941  0.0509
 3387W        W19196  11.025   2.425   2.693 -0.1253 -0.0802  0.2066
 3388W        W19197  10.647  17.058   2.903  0.3204 -0.0977  0.3934
 3389W        W19198   2.453   0.640  10.684 -0.1151  0.2701  0.2560
 3390W        W19199   6.734   8.720  12.102 -0.2316  0.0582  0.0217
 3391W        W19200  11.054  18.052  14.922  0.0918  0.2749 -0.0704
 3392W        W19201   9.555   4.076  10.582  0.1076 -0.3389  0.1849
 3393W        W19202   9.092  15.188   4.783  0.0429  0.0383  0.1988
 3394W        W19203  10.357  17.820   4.008 -0.1686  0.1318  0.2605
 3395W        W19204  13.917   1.444   3.188 -0.3218 -0.1774 -0.1370
 3396W        W19205   1.976  15.335   0.425 -0.1178  0.0526  0.1133
 3397W        W19206  16.940  11.634   4.715  0.4064 -0.0946  0.3258
 3398W        W19207  14.677   4.021   3.896  0.1405 -0.2540  0.2980
 3399W        W19208   5.119   7.009   2.999 -0.3481  0.0369 -0.0365
 3400W        W19209  18.063   1.734   1.999 -0.3228 -0.2782  0.1215
 3401W        W19210  10.661   4.009  10.715  0.1499  0.1787  0.0786
 3402W        W19211   5.818  14.002  13.371  0.1760  0.1999  0.0954
 3403W        W19212  12.077   8.862  12.203 -0.1470 -0.2973  0.1718
 3404W        W19213   9.285  13.925  13.676  0.3053 -0.0330  0.3582
 3405W        W19214  10.908   8.330   4.881  0.3381  0.1040 -0.0267
 3406W        W19215   4.229  15.970  14.116 -0.0252  0.0940 -0.1824
 3407W        W19216  12.553  18.271  12.823  0.0601 -0.2742 -0.2775
 3408W        W19217   5.725  15.024  13.120  0.0635  0.0475 -0.0289
 3409W        W19218   3.462  17.182  10.991  0.2308  0.1952 -0.1486
 3410W        W19219   9.134   6.355   1.029 -0.1158 -0.1478  0.0791
 3411W        W19220  15.777   1.952   1.741  0.0139  0.0515  0.0640
 3412W        W19221   1.775   7.032   2.886 -0.0509 -0.0143  0.0031
 3413W        W19222   2.686  12.058   4.671  0.0924  0.1906  0.1378
 3414W        W19223  17.456   9.185  12.917 -0.2174 -0.0844 -0.1826
 3415W        W19224   2.205   9.104   4.039 -0.2080 -0.1574 -0.3955
 3416W        W19225   5.697   5.403  11.938 -0.0769 -0.0241  0.2601
 3417W        W19226  18.603   9.908   0.927  0.2064 -0.0201  0.4330
 3418W        W19227  12.602  12.751   4.502  0.0177  0.0701 -0.1170
 3419W        W19228   6.001   1.160  11.940  0.0441 -0.0413 -0.0840
 3420W        W19229   6.036   0.225  10.244  0.0595  0.0968 -0.0165
 3421W        W19230   3.618  11.507  12.535 -0.2381  0.0747 -0.4269
 3422W        W19231  10.083   5.971  12.610 -0.3404 -0.3689 -0.0639
 3423W        W19232   2.702  15.006  13.593 -0.1305 -0.1338  0.0522
 3424W        W19233   9.883   9.402  14.878  0.1168  0.1057 -0.1105
 3425W        W19234   4.686   0.896  11.831 -0.1280 -0.0843  0.3341
 3426W        W19235  11.762  14.420  11.297 -0.0124  0.1308 -0.1333
 3427W        W19236  14.126  12.705  13.092 -0.0016  0.2205 -0.3267
 3428W        W19237  16.750  16.897   1.602  0.2203 -0.1532  0.2220
 3429W        W19238   9.409   3.864   0.989  0.2412  0.0279  0.1700
 3430W        W19239  11.545  10.746   4.414  0.2551 -0.1929  0.0835
 3431W        W19240   5.187  10.954  12.038 -0.0765  0.1425  0.2001
 3432W        W19241   7.738   4.657   3.346 -0.0115 -0.2217 -0.3012
 3433W        W19242  15.580   1.532   2.555  0.3029 -0.3641 -0.2872
 3434W        W19243  18.826   3.880   0.049  0.4506 -0.0308 -0.0731
 3435W        W19244   7.643   3.316   3.797  0.0886  0.2469 -0.0675
 3436W        W19245   9.646  17.752   2.745 -0.1471 -0.3048 -0.1050
 3437W        W19246   3.848  12.954   2.331 -0.0700 -0.0768  0.0982
 3438W        W19247   4.744   6.374   1.569 -0.1067 -0.1272  0.2523
 3439W        W19248   1.082  12.634  11.324  0.1162 -0.1332 -0.0004
 3440W        W19249   6.838  15.663  11.779  0.0267 -0.0294 -0.2040
 3441W        W19250   6.336   8.918  14.149 -0.1338  0.1403 -0.2079
 3442W        W19251   3.394  11.219   4.931 -0.0494 -0.1482 -0.3165
 3443W        W19252  16.729   0.215  15.325 -0.1595 -0.0116  0.0356
 3444W        W19253  15.779  15.527  13.010  0.0932  0.1002  0.0471
 3445W        W19254   6.974  16.755  12.283  0.0357 -0.0745 -0.2140
 3446W        W19255  18.027  12.789  11.229  0.0018  0.0253 -0.1062
 3447W        W19256   9.214   7.793  11.963 -0.2130  0.0736 -0.0309
 3448W        W19257   4.127   5.170   1.462 -0.1842  0.0970  0.1728
 3449W        W19258  10.631   0.965  11.692  0.0089 -0.0864 -0.0671
 3450W        W19259  14.023   9.635  11.542  0.0029  0.0381  0.1545
 3451W        W19260   2.736  10.709   9.539 -0.1651  0.0062  0.3128
 3452W        W19261  15.744   2.835  14.906  0.4070  0.1793 -0.2045
 3453W        W19262  17.155   9.983   4.285  0.3172 -0.4293 -0.0399
 3454W        W19263   1.264  15.639   2.696  0.1961  0.3583  0.0051
 3455W        W19264   0.968   0.423   0.307  0.2082  0.0133 -0.0689
 3456W        W19265  17.636  12.390   4.214  0.2617  0.5625 -0.1371
 3457W        W19266  15.332   3.620  13.391 -0.0625 -0.1537  0.2625
 3458W        W19267   0.100   7.549  11.047  0.2573  0.1287 -0.0940
 3459W        W19268   1.943   6.391   1.829  0.1604 -0.0237  0.5910
 3460W        W19269  10.052   0.738  12.914  0.4772  0.3524  0.3591
 3461W        W19270   9.583   7.956   3.417 -0.1756  0.2402  0.1637
 3462W        W19271  11.934   2.896   3.208 -0.0556  0.1445 -0.0891
 3463W        W19272   3.774   3.917   2.304 -0.1027  0.0883 -0.2834
 3464W        W19273   1.702  16.826  10.525  0.0634 -0.0782  0.1122
 3465W        W19274   5.448  16.490   2.698 -0.0526 -0.0181 -0.2192
 3466W        W19275  11.336   7.829  12.059 -0.1581 -0.0481  0.1497
 3467W        W19276   2.874   0.716   4.895 -0.3422 -0.1524 -0.2063
 3468W        W19277   4.003   8.690   3.558  0.1821 -0.1179  0.3034
 3469W        W19278  16.285  16.411  11.337  0.1919 -0.0852  0.0530
 3470W        W19279  10.258  14.203  11.226 -0.1524 -0.3586 -0.3355
 3471W        W19280  13.427   2.484  11.524 -0.1234 -0.2086 -0.1733
 3472W        W19281   7.878  13.250   0.141  0.1510  0.0155  0.2989
 3473W        W19282  12.733  18.781  11.616  0.0468 -0.1190  0.0330
 3474W        W19283   2.648   3.513  10.888  0.3947  0.0933 -0.1344
 3475W        W19284   5.297  10.467  14.221 -0.2170 -0.1943 -0.0329
 3476W        W19285   4.637  15.214  10.785 -0.1086  0.1705  0.0951
 3477W        W19286   4.783  16.131  10.891 -0.0108  0.1514 -0.2642
 3478W        W19287   8.008   2.486   4.158  0.2649  0.1686  0.0146
 3479W        W19288   6.464  16.834  13.674 -0.1063  0.0328  0.0116
 3480W        W19289  10.578  18.224  15.003  0.2939 -0.0573 -0.1772
 3481W        W19290  17.770  15.806   2.581 -0.2008  0.3015 -0.2292
 3482W        W19291   1.626  13.926  14.823  0.1878  0.1654 -0.0904
 3483W        W19292   2.137   3.826  10.898 -0.4304 -0.1123  0.2698
 3484W        W19293   1.587  10.104  13.426 -0.0154  0.0014  0.0657
 3485W        W19294  11.450   8.471   4.805  0.1496 -0.0295  0.3525
 3486W        W19295   0.168   0.237   3.038  0.1024 -0.3426  0.0959
 3487W        W19296   3.070   9.615  13.871 -0.0492 -0.3042  0.0571
 3488W        W19297   0.464  12.627   1.273  0.0241 -0.3094 -0.2168
 3489W        W19298  14.184   0.447   0.954 -0.1260  0.0351 -0.2931
 3490W        W19299   3.231  14.227  13.354 -0.0872 -0.1525 -0.1588
 3491W        W19300  17.204  17.914  13.340 -0.0876  0.0417  0.0755
 3492W        W19301  13.823   5.581  13.664 -0.2414  0.0352 -0.1603
 3493W        W19302   6.082   7.989   1.667 -0.5982  0.0169 -0.2628
 3494W        W19303  16.411   5.656   1.094 -0.4291  0.2527  0.3698
 3495W        W19304  16.463  18.819  11.131  0.0287  0.2212  0.2613
 3496W        W19305   7.777  10.866  13.138  0.5191  0.0481  0.3442
 3497W        W19306   7.659   0.191   1.931 -0.0451  0.2878  0.2155
 3498W        W19307   0.073  17.175  14.756 -0.0701 -0.2098 -0.1021
 3499W        W19308   2.042  11.128   3.862  0.0941  0.5453 -0.0526
 3500W        W19309   6.901   2.785  10.825  0.3024  0.0547  0.0217
 3501W        W19310  18.127   0.898   1.888  0.1747  0.1755  0.1475
 3502W        W19311   4.074   9.908  12.823  0.1184 -0.4330 -0.2136
 3503W        W19312  14.976   9.052  13.934  0.1896 -0.0752 -0.1952
 3504W        W19313  10.015  10.523  12.795 -0.1591 -0.0497  0.0037
 3505W        W19314  15.702   6.168  12.390  0.2767  0.2859 -0.0824
 3506W        W19315   7.669  12.678   3.420  0.2332  0.3267 -0.0930
 3507W        W19316   9.836  10.205   2.714 -0.0491 -0.2941 -0.1094
 3508W        W19317   8.927  12.898   4.116 -0.0748 -0.0312 -0.0134
 3509W        W19318   4.664  15.530   0.337 -0.0231  0.1938 -0.2502
 3510W        W19319  18.734   8.993   4.559  0.0798 -0.0531 -0.1792
 3511W        W19320  12.436   0.367  14.802  0.2431  0.2355 -0.1952
 3512W        W19321   7.194   8.435  12.317  0.1429 -0.0311 -0.1779
 3513W        W19322  15.311   4.320  10.788  0.0283 -0.0682  0.2391
 3514W        W19323  15.023  11.136   1.365 -0.0567 -0.3630 -0.2483
 3515W        W19324  11.474   3.816   1.930 -0.1490  0.0623  0.0345
 3516W        W19325  15.531   6.222   2.312 -0.0130  0.0505  0.2308
 3517W        W19326  10.236  12.989   1.752 -0.0371  0.0707  0.0988
 3518W        W19327   6.048  18.075   3.346 -0.0388  0.1284  0.0314
 3519W        W19328   7.690   5.540   1.226  0.1324  0.2371 -0.1567
 3520W        W19329  13.111   9.064   4.514  0.0747 -0.1138 -0.2953
 3521W        W19330  10.404   5.923   0.528  0.0366 -0.2042  0.0410
 3522W        W19331  17.077   0.456  14.944  0.1899 -0.0216 -0.0276
 3523W        W19332  11.112   8.744   5.731 -0.0401 -0.3699  0.0634
 3524W        W19333  12.155  12.849   1.445 -0.0615  0.1248  0.1522
 3525W        W19334  16.199  17.151   3.843 -0.1256  0.7921 -0.0540
 3526W        W19335   4.707  17.210  14.747  0.2204 -0.0250  0.0260
 3527W        W19336   9.157  14.009  12.129  0.1350 -0.0133 -0.1259
 3528W        W19337   7.715  13.451  13.692 -0.0946  0.0980  0.0071
 3529W        W19338  12.761  18.439  15.188 -0.1646  0.0881  0.2137
 3530W        W19339   3.749   3.945   1.759  0.1000  0.2934 -0.2009
 3531W        W19340   8.324   3.191  13.094 -0.1805 -0.0340  0.1174
 3532W        W19341   5.392  13.072   4.144 -0.1041  0.2894  0.3544
 3533W        W19342   7.853   7.455   3.763  0.1397 -0.0955 -0.1822
 3534W        W19343  17.679   9.028  10.725  0.1868 -0.0392  0.2688
 3535W        W19344   0.947   5.490   0.203  0.0157 -0.0365  0.2961
 3536W        W19345  12.181  14.529  12.789  0.0078  0.0232  0.2456
 3537W        W19346   0.848  15.715   0.683 -0.1167 -0.0559 -0.0120
 3538W        W19347  12.056   6.725  11.684 -0.0134  0.1028 -0.1207
 3539W        W19348   2.900   6.332  14.102  0.2382 -0.1693 -0.0542
 3540W        W19349  15.604  16.999   0.180  0.0539 -0.0204 -0.0260
 3541W        W19350   7.846  11.416   4.396  0.2232  0.1810  0.0892
 3542W        W19351  17.925   5.176  12.338  0.1900  0.0819  0.0513
 3543W        W19352   8.085  11.662  14.488 -0.0720 -0.0355 -0.0178
 3544W        W19353  10.026  10.521   2.409 -0.2435 -0.2287  0.2775
 3545W        W19354   8.118   8.906  14.173  0.4831 -0.0198 -0.1099
 3546W        W19355  11.180   3.247   3.463 -0.0884 -0.0813 -0.2352
 3547W        W19356  15.664  10.834   5.046 -0.1092  0.0750 -0.2570
 3548W        W19357  11.836   6.756   3.929 -0.0708  0.1526  0.0136
 3549W        W19358   3.915  13.408   2.109 -0.0097  0.3143 -0.0499
 3550W        W19359  15.387  17.283  10.952 -0.1157  0.2209 -0.1480
 3551W        W19360   3.137  11.876   5.354 -0.0396 -0.1182 -0.1142
 3552W        W19361  17.375   7.827  11.995 -0.1143  0.1681 -0.0964
 3553W        W19362   1.582  18.894   0.697 -0.2593  0.4506 -0.0576
 3554W        W19363  11.722  11.654   4.054 -0.0127  0.2448  0.3207
 3555W        W19364   7.735  15.849   0.675  0.0735  0.3777 -0.0513
 3556W        W19365  16.541   0.198   3.032  0.2024 -0.0250 -0.1669
 3557W        W19366   9.979  18.049   0.689 -0.4508  0.0471  0.3201
 3558W        W19367  13.965   4.143  11.598 -0.0942 -0.3258 -0.1541
 3559W        W19368   7.484  16.419   1.389  0.0980  0.0968  0.0262
 3560W        W19369   7.516   6.602  10.343  0.0266 -0.1688 -0.3772
 3561W        W19370   0.378   4.275   1.598 -0.0458 -0.1155 -0.1020
 3562W        W19371   0.103   4.752  12.842  0.0260  0.4090  0.0941
 3563W        W19372  11.156   6.872   1.632 -0.0162  0.0944  0.1483
 3564W        W19373   6.945   5.952   1.556  0.0699 -0.2225 -0.2118
 3565W        W19374   3.682   2.189   4.240 -0.0666 -0.2151 -0.0300
 3566W        W19375  14.587  10.831  14.618 -0.0746  0.2042 -0.1489
 3567W        W19376   2.428   9.356   4.437  0.0567 -0.3808 -0.0469
 3568W        W19377   5.633   3.138   2.078 -0.0449 -0.1138  0.0779
 3569W        W19378   9.187   2.336   3.683  0.0734  0.0846 -0.3583
 3570W        W19379   0.712   1.870   2.062 -0.1925 -0.0769 -0.0216
 3571W        W19380   3.754   4.554  14.700  0.1120 -0.0812 -0.1215
 3572W        W19381   6.246   4.955  13.873  0.1192 -0.1528 -0.1094
 3573W        W19382   8.315   0.317   4.903 -0.2577  0.1985  0.2107
 3574W        W19383   8.026  17.197  11.361 -0.0815  0.2856  0.0700
 3575W        W19384  18.295   1.792  10.868 -0.2066  0.0949  0.1495
 3576W        W19385   0.812   2.657  14.624 -0.1937 -0.4747 -0.3006
 3577W        W19386  11.178  18.509   3.481 -0.0466 -0.4320 -0.1053
 3578W        W19387  12.727   2.305  12.797  0.2600  0.3817 -0.2033
 3579W        W19388  13.553   1.676  12.545  0.0674 -0.3560 -0.5091
 3580W        W19389   0.314  11.927  15.224  0.5029  0.1002 -0.2448
 3581W        W19390   0.715  17.532  11.979 -0.0247  0.2574 -0.3088
 3582W        W19391   3.722   5.874   4.058  0.1172 -0.1129  0.0621
 3583W        W19392  16.224   4.717   0.171 -0.0543  0.2236  0.1541
 3584W        W19393   8.359  11.576   0.617 -0.0925 -0.1736 -0.0231
 3585W        W19394   3.855   5.753  11.512  0.2724 -0.1712 -0.1355
 3586W        W19395   8.424   2.116  14.562  0.0677 -0.1836  0.4991
 3587W        W19396   3.683   1.060  15.047  0.1617  0.1468  0.0013
 3588W        W19397   0.668  16.902   2.674 -0.0984  0.0492 -0.3102
 3589W        W19398   9.309   6.925  10.062  0.1839  0.0332 -0.1123
 3590W        W19399  17.237  16.076   0.795 -0.1656  0.0534 -0.2864
 3591W        W19400  17.364   3.014  13.749  0.0065 -0.1306  0.1793
 3592W        W19401  15.134  13.040   2.810 -0.3645 -0.1511  0.2528
 3593W        W19402  11.652   4.950   4.816  0.0243  0.2184 -0.2049
 3594W        W19403  14.506   8.227   0.215  0.1307 -0.1931  0.0747
 3595W        W19404  12.138  14.016   4.115  0.3189 -0.1218  0.1593
 3596W        W19405  15.276  16.833   4.838 -0.0697 -0.1620 -0.2181
 3597W        W19406  12.070  13.536   2.085  0.1476  0.0680  0.2536
 3598W        W19407  12.724   5.257  15.272  0.2751 -0.0166  0.2462
 3599W        W19408  13.612  14.821   1.252  0.0816 -0.3867 -0.2274
 3600W        W19409   0.171   5.948   2.421  0.1427  0.1693 -0.3581
 3601W        W19410   7.798   5.064  14.841 -0.1532 -0.0168 -0.0111
 3602W        W19411   5.371   6.690  11.647  0.0950 -0.0920  0.1445
 3603W        W19412   0.911   7.031   4.797 -0.0320 -0.1931 -0.1758
 3604W        W19413   3.233  12.482  11.873  0.3043 -0.0621  0.2678
 3605W        W19414   1.407  17.628  14.755 -0.0342  0.0965 -0.1081
 3606W        W19415   1.121   1.665   3.439  0.2521  0.0460 -0.1878
 3607W        W19416   9.090   2.456   2.233  0.1967  0.1765  0.0215
 3608W        W19417  14.257   9.495  13.772  0.3463 -0.1591  0.1091
 3609W        W19418   5.649   9.419   2.761  0.1198  0.0441  0.1598
 3610W        W19419  16.764  13.947   1.646 -0.1943  0.0641 -0.1348
 3611W        W19420  17.105   9.506  13.719  0.2535  0.3662  0.0973
 3612W        W19421  17.411   7.588  15.037 -0.2360  0.1776 -0.2939
 3613W        W19422   9.537  16.449   0.617  0.0282 -0.3177 -0.3455
 3614W        W19423   7.272   4.267   2.328 -0.2488  0.2922 -0.1682
 3615W        W19424  13.852   6.764  11.956  0.2899  0.2746  0.0571
 3616W        W19425   7.204   7.609  11.319 -0.2182  0.3410  0.0325
 3617W        W19426   0.220   1.622   0.436  0.2028  0.1040 -0.0321
 3618W        W19427  15.931  17.378   1.382 -0.1268  0.1554 -0.1648
 3619W        W19428   9.595   9.076   5.289 -0.4264  0.0939 -0.0127
 3620W        W19429   8.143  11.246  13.772 -0.1170  0.0316 -0.1243
 3621W        W19430   5.442   1.302  10.779  0.0729 -0.0096  0.1688
 3622W        W19431  17.768  11.676  11.785  0.1863 -0.0453  0.0558
 3623W        W19432  16.120   7.493  14.631  0.1829  0.0128  0.0474
 3624W        W19433  11.859  17.205   3.914  0.1790  0.3744 -0.0328
 3625W        W19434   3.216  12.877   1.692  0.2810 -0.1469 -0.2344
 3626W        W19435   0.775   7.029   4.272  0.2179  0.4599  0.1170
 3627W        W19436   5.169   6.300  13.328  0.0317 -0.1665 -0.0537
 3628W        W19437   1.791  10.647   3.134 -0.0817 -0.1241  0.1211
 3629W        W19438  13.192   9.904  14.621  0.2638 -0.0077  0.2481
 3630W        W19439   8.440   3.410   4.649 -0.1276  0.0202  0.1761
 3631W        W19440  14.871   5.789  14.350  0.1318 -0.1135  0.2934
 3632W        W19441   4.002   4.739   5.503 -0.2625 -0.1067  0.1363
 3633W        W19442  10.221  10.112   0.914 -0.1834  0.0509  0.0418
 3634W        W19443  11.345   7.820   4.700  0.0532  0.4203  0.1277
 3635W        W19444   5.055  12.444   3.548  0.1619 -0.0493 -0.1824
 3636W        W19445  18.906   2.646   4.815  0.2693 -0.0466 -0.3361
 3637W        W19446  17.700   3.311  13.990  0.2848  0.0472  0.2451
 3638W        W19447  17.297  11.159  12.703 -0.1482  0.0195  0.2313
 3639W        W19448   1.483  17.468  12.927 -0.1786  0.4076  0.2469
 3640W        W19449  15.343   0.975   1.730  0.2433 -0.2226 -0.4534
 3641W        W19450   2.156   1.923   0.775  0.0504 -0.2037 -0.0864
 3642W        W19451   4.147   7.968  13.178 -0.4230  0.3511  0.1198
 3643W        W19452  14.101  14.847  10.903  0.0203 -0.4342 -0.2813
 3644W        W19453   1.116   3.470   1.055 -0.0422 -0.0756 -0.0181
 3645W        W19454   4.317  13.741  12.630  0.1210 -0.0185 -0.3798
 3646W        W19455  17.880  15.065  14.008  0.2635  0.1131 -0.4666
 3647W        W19456   2.934   2.521   3.289 -0.0538  0.1445  0.2675
 3648W        W19457   4.329  10.044   3.140 -0.3997  0.0031  0.1515
 3649W        W19458   1.203  16.452   0.744  0.0228  0.0096 -0.0762
 3650W        W19459   3.259  17.429   2.628  0.0946 -0.2233 -0.2763
 3651W        W19460   8.159   7.165  15.269 -0.0608 -0.0466 -0.1409
 3652W        W19461   4.543  10.467   4.820 -0.1194  0.0835 -0.0313
 3653W        W19462  14.126  17.129  10.909 -0.0934  0.2340  0.4487
 3654W        W19463   7.795  10.044  10.710  0.0349 -0.0159 -0.0949
 3655W        W19464  16.268  10.472   4.184  0.0359  0.0220 -0.1604
 3656W        W19465   8.155  18.710  14.812  0.2460  0.2643 -0.2207
 3657W        W19466   8.680  15.959  11.536 -0.0467 -0.1505  0.0050
 3658W        W19467   7.739   3.814   4.332 -0.0269  0.0033  0.1597
 3659W        W19468   8.010  18.404  13.320 -0.1048  0.1732 -0.0630
 3660W        W19469  18.345   9.498   0.728  0.1472  0.0125 -0.4171
 3661W        W19470   3.233   9.774   3.352  0.2926  0.1048  0.1527
 3662W        W19471  10.264   9.691  11.821 -0.2427 -0.0423 -0.0012
 3663W        W19472  14.368   9.624   0.518  0.1472 -0.1355  0.2682
 3664W        W19473   3.853  18.863   0.884 -0.0270 -0.0978 -0.1604
 3665W        W19474   3.739  15.364  11.928 -0.0642  0.0768  0.1086
 3666W        W19475   4.598  11.204   5.629  0.1441 -0.1523 -0.2841
 3667W        W19476  16.076   0.243   9.777 -0.1864  0.1460  0.1404
 3668W        W19477  15.187   6.123  13.866 -0.1167  0.0687 -0.0795
 3669W        W19478   1.180   8.008   5.294  0.4251  0.2490  0.2332
 3670W        W19479   6.929  13.728  10.244  0.1508 -0.1282  0.3441
 3671W        W19480   0.249  14.142   0.152  0.0896 -0.3370  0.1239
 3672W        W19481  15.811   4.685   5.064  0.1195  0.0289  0.3308
 3673W        W19482   4.221  18.561   4.996 -0.0965  0.5259  0.1476
 3674W        W19483  11.485   9.814  14.631 -0.0808 -0.1230 -0.3062
 3675W        W19484  13.782  11.510  12.078  0.1966 -0.5326 -0.0902
 3676W        W19485  16.859  15.985   2.448  0.1233  0.1750  0.1536
 3677W        W19486   5.513   5.365  14.651  0.4465  0.1683 -0.1699
 3678W        W19487  10.117   6.164   4.617  0.1736 -0.2410 -0.1427
 3679W        W19488  13.892  10.851  10.910 -0.1929  0.0502  0.1767
 3680W        W19489  10.628  17.935   3.461 -0.0295 -0.2248 -0.0949
 3681W        W19490  15.293   7.487   0.976 -0.0705  0.2499  0.0587
 3682W        W19491   8.890  18.604   2.115  0.0316 -0.0646  0.0212
 3683W        W19492   0.749  11.331  13.719 -0.1885 -0.4635  0.4097
 3684W        W19493   7.413   4.299  12.602  0.1254  0.2497 -0.0910
 3685W        W19494  10.327   1.314   0.874 -0.0672  0.3450  0.1882
 3686W        W19495  16.118  13.517   3.914  0.1375 -0.0529  0.0240
 3687W        W19496  17.550  17.521  14.565 -0.0661 -0.0464  0.2177
 3688W        W19497  11.794  16.099   4.495 -0.3858  0.1462 -0.1338
 3689W        W19498  16.607   5.404   5.131  0.2083 -0.0006  0.1178
 3690W        W19499   0.985  17.283  14.751 -0.2856  0.0669  0.0032
 3691W        W19500  11.189   7.744  14.498 -0.1177 -0.4406  0.2916
 3692W        W19501   8.570  12.577  15.089 -0.0494  0.4781 -0.3304
 3693W        W19502   7.121   0.708  14.492  0.1814  0.0179 -0.1881
 3694W        W19503  16.297  10.891   2.371 -0.0059 -0.2644  0.3166
 3695W        W19504  15.487  15.154  10.575  0.1258 -0.0017  0.0177
 3696W        W19505  14.772   8.184  12.282 -0.2774  0.1551  0.1103
 3697W        W19506   3.069   9.298   0.811  0.0233  0.0329  0.4562
 3698W        W19507   7.793   0.148  14.880  0.0832  0.0388  0.0438
 3699W        W19508  17.693   8.359  13.966  0.3068  0.0566  0.1718
 3700W        W19509  18.602  15.345  11.356 -0.3924  0.0700  0.0979
 3701W        W19510   5.424  10.351   4.663 -0.2320  0.3454  0.0952
 3702W        W19511  10.058   2.549   2.273  0.4813 -0.1754 -0.0034
 3703W        W19512  12.297  12.927  15.359 -0.0670  0.3093 -0.1431
 3704W        W19513   3.033  14.995  14.324 -0.0520  0.3897  0.2153
 3705W        W19514   8.822   5.989  10.345 -0.0378 -0.1537 -0.0259
 3706W        W19515   6.849  16.357   0.463  0.2102  0.1297  0.0766
 3707W        W19516   2.772   9.699   3.580 -0.3919  0.3156  0.1926
 3708W        W19517   5.297   3.932   4.383  0.0782 -0.2615  0.2569
 3709W        W19518  17.673   6.283  13.047 -0.0035  0.5868 -0.0625
 3710W        W19519   6.560  13.081   3.535 -0.2904  0.1177 -0.0241
 3711W        W19520   1.722  14.809  11.056  0.1400  0.0365  0.1377
 3712W        W19521  11.500  17.115   5.799 -0.1995 -0.1233 -0.3191
 3713W        W19522   5.357  14.439  10.681  0.0174  0.2223 -0.0272
 3714W        W19523  17.384  14.175   0.892  0.3605  0.2158  0.0968
 3715W        W19524  16.440  16.815  14.322  0.3056  0.2094  0.1678
 3716W        W19525  17.619   1.671   2.205  0.1049 -0.1471  0.1087
 3717W        W19526  15.227  15.422  13.703 -0.0532 -0.2505  0.0444
 3718W        W19527   0.713   8.789   3.487  0.1868 -0.1899  0.1349
 3719W        W19528   3.468  14.622   0.999 -0.0391  0.2555  0.0132
 3720W        W19529  10.750   5.509  12.812  0.2424  0.1083  0.1901
 3721W        W19530  15.100   5.687  13.512 -0.1503 -0.0490 -0.1562
 3722W        W19531  11.790  10.687   0.609 -0.0491  0.3238  0.0130
 3723W        W19532   2.274  11.880   4.418  0.0372  0.3185 -0.1535
 3724W        W19533  14.758  18.120   2.471 -0.1248  0.0431  0.2331
 3725W        W19534  17.138  14.342  14.922 -0.1284 -0.0712 -0.1105
 3726W        W19535   6.963   6.013   4.950  0.1036 -0.2859  0.2134
 3727W        W19536   4.361   8.517  15.055 -0.1566 -0.1539  0.2193
 3728W        W19537   3.050   8.104   1.373  0.2797  0.1251 -0.2343
 3729W        W19538   8.432  12.944  13.885  0.0981  0.4999  0.1385
 3730W        W19539  11.293   1.950  13.160 -0.0544  0.2154 -0.1557
 3731W        W19540  11.985   0.368   9.916 -0.1848  0.0646  0.1100
 3732W        W19541   5.473   4.159  14.859  0.0947  0.0855  0.0663
 3733W        W19542   4.579  10.270   2.707  0.1848  0.1639  0.1641
 3734W        W19543  12.194   0.129   2.361  0.3960  0.2368  0.0247
 3735W        W19544  18.558   2.361   3.375  0.3237 -0.3359 -0.0974
 3736W        W19545   7.603  14.601   1.279  0.1291 -0.1272  0.0103
 3737W        W19546  13.010   1.031   0.011  0.3785 -0.1445 -0.2150
 3738W        W19547  15.129   7.945   0.893 -0.0834  0.3115  0.2656
 3739W        W19548   4.008  16.430   3.375 -0.0053 -0.0174 -0.1947
 3740W        W19549   5.148  14.297   0.337  0.3280  0.1188 -0.2883
 3741W        W19550   7.893   8.174  13.003  0.2861  0.1753 -0.2220
 3742W        W19551   5.833  18.353  14.051 -0.0652 -0.0997 -0.2637
 3743W        W19552   0.333  17.800   5.188  0.0542  0.0239 -0.0372
 3744W        W19553   7.842  11.383  14.162 -0.0736 -0.5093 -0.0493
 3745W        W19554  13.299  13.558   4.062 -0.1721  0.2023  0.0235
 3746W        W19555  15.527  11.650  11.695  0.2468 -0.0358  0.1678
 3747W        W19556  11.031   3.984   0.191 -0.3264 -0.6592 -0.3125
 3748W        W19557  11.444  11.387  13.979  0.1993 -0.0424 -0.0646
 3749W        W19558  14.588   9.526  11.450  0.1677 -0.0416  0.1601
 3750W        W19559   2.302  14.033  15.240  0.1698 -0.0116 -0.1144
 3751W        W19560   1.247   6.928   2.763  0.2057  0.0190  0.1184
 3752W        W19561   9.145  10.982   4.643 -0.2760  0.0509 -0.0786
 3753W        W19562   3.607  17.948  10.482 -0.1107 -0.2232  0.3903
 3754W        W19563   4.006   5.256   0.353  0.2906  0.1899 -0.0374
 3755W        W19564  16.519  18.094   0.121 -0.2210  0.3846  0.1398
 3756W        W19565  11.179   5.455  13.947  0.1000 -0.2040  0.2017
 3757W        W19566   6.446  11.645  10.878  0.0278  0.2014  0.3050
 3758W        W19567  12.938  16.708  12.497  0.0201  0.2941 -0.0856
 3759W        W19568  12.958  12.633  12.806 -0.1128 -0.2674  0.1379
 3760W        W19569  14.210   2.335   5.291 -0.1492  0.4219  0.3574
 3761W        W19570  13.021   5.001  12.163  0.0668  0.3670  0.3235
 3762W        W19571   9.042  14.692   4.764  0.0021 -0.0744 -0.0039
 3763W        W19572  10.541  17.628   1.600  0.1618  0.0197  0.3187
 3764W        W19573  18.027  12.580   3.908 -0.1267 -0.0586  0.2225
 3765W        W19574   8.163  16.518   2.149  0.1009  0.1519  0.3112
 3766W        W19575  15.452  11.103   1.004  0.1757  0.0039  0.1461
 3767W        W19576   9.973   6.139   1.539 -0.3025 -0.2951 -0.2376
 3768W        W19577  12.564   2.512  13.784 -0.3383 -0.0011 -0.0807
 3769W        W19578   3.868   6.210   4.444  0.4599 -0.2656  0.2822
 3770W        W19579  13.745  11.629  15.026  0.0214 -0.1030 -0.0890
 3771W        W19580   9.118   1.682  11.733  0.0475  0.0566  0.0121
 3772W        W19581  15.460  16.460   1.340 -0.1559 -0.1361  0.0118
 3773W        W19582   7.739   4.869   4.278 -0.1982 -0.3036  0.0470
 3774W        W19583  14.922  15.590   4.729 -0.3160  0.1230 -0.1629
 3775W        W19584  12.098  10.458  15.240 -0.0861 -0.3226 -0.1172
 3776W        W19585  17.581   3.736  14.700  0.2817 -0.1289  0.4496
 3777W        W19586  16.647   5.457  12.018 -0.0451  0.0759  0.0107
 3778W        W19587   3.274   8.181   2.686 -0.3336 -0.0517  0.3317
 3779W        W19588   8.755   1.158  14.865  0.1092 -0.2319 -0.0286
 3780W        W19589  16.392   9.345  13.636  0.2271 -0.0886 -0.3198
 3781W        W19590  14.914  10.167   2.419 -0.2414 -0.1532 -0.2908
 3782W        W19591  17.329  11.660   1.430  0.2206  0.0663  0.0831
 3783W        W19592  13.863   6.375  14.902 -0.1199  0.1639 -0.1508
 3784W        W19593   8.443   7.378  12.252 -0.1645 -0.3598  0.1480
 3785W        W19594   8.304   8.034  14.698  0.0845 -0.0152  0.3458
 3786W        W19595  10.875  16.623   0.967  0.1068  0.2827 -0.1608
 3787W        W19596  14.921  18.546  14.726  0.0203  0.1579  0.0767
 3788W        W19597   4.933   3.425  10.475  0.0796  0.0342 -0.3558
 3789W        W19598   5.304  10.164   2.078 -0.0108 -0.0354 -0.0515
 3790W        W19599   7.493   3.838   1.843  0.3615 -0.1304 -0.0577
 3791W        W19600   7.553   5.185  15.373 -0.3475 -0.0390 -0.0898
 3792W        W19601  12.499  17.700  14.768 -0.3861 -0.2085  0.3542
 3793W        W19602  13.297  10.269  14.325 -0.1221 -0.2196 -0.0651
 3794W        W19603   6.528   9.446  12.756 -0.0300 -0.2205  0.0620
 3795W        W19604  15.654  15.872   4.051  0.0774 -0.0548 -0.4548
 3796W        W19605  11.823  15.142   5.128  0.1281 -0.1502  0.4012
 3797W        W19606   6.542  11.450  13.601  0.0943 -0.1280 -0.2260
 3798W        W19607   6.394   6.508   0.363 -0.1484  0.1783 -0.3480
 3799W        W19608   4.885  10.942  14.409  0.1393 -0.2270  0.1348
 3800W        W19609  10.586   7.137   1.551 -0.1511 -0.1032  0.0646
 3801W        W19610   2.295   7.023  10.834 -0.3269  0.0691  0.0774
 3802W        W19611   9.650   8.519   1.546  0.1885 -0.0059  0.1395
 3803W        W19612   0.579  13.752  10.925 -0.1060  0.0329  0.0969
 3804W        W19613   3.289   0.090   1.753  0.0442 -0.5373  0.2219
 3805W        W19614  10.389   1.992   5.302  0.1599  0.0428 -0.0987
 3806W        W19615   5.148  15.493   0.121 -0.3795 -0.3222  0.0298
 3807W        W19616   0.685  17.271  14.297 -0.1721  0.0952 -0.0930
 3808W        W19617   2.045   1.799  11.653 -0.0940 -0.0542 -0.1123
 3809W        W19618  13.113  18.384   9.448 -0.0143 -0.2540 -0.2049
 3810W        W19619  10.155   7.240   4.805 -0.4001  0.2148  0.0273
 3811W        W19620  13.750  16.998   4.057 -0.0340 -0.0972  0.2863
 3812W        W19621   5.436   9.472   0.441  0.1468  0.0916  0.2167
 3813W        W19622  13.926   3.145  11.072 -0.0860 -0.0100  0.2046
 3814W        W19623   8.590   1.554   1.800  0.2074  0.1115  0.1803
 3815W        W19624   3.273   0.007   4.471 -0.1811  0.0835 -0.0031
 3816W        W19625  10.375  16.393  12.304  0.2209 -0.1284 -0.1459
 3817W        W19626  10.304  15.100  12.005 -0.0465  0.0300  0.1846
 3818W        W19627   1.110  10.760  12.645  0.1833  0.2277  0.2122
 3819W        W19628   1.737   1.133  11.049  0.0434 -0.1727  0.0052
 3820W        W19629  18.560  13.294   1.095  0.1696  0.1238  0.3305
 3821W        W19630   3.298  11.241  13.386  0.0784  0.4535  0.3551
 3822W        W19631   4.585  18.293  10.339 -0.2237 -0.2305  0.2067
 3823W        W19632   8.325  13.743  14.179  0.0559  0.2698  0.3597
 3824W        W19633  10.141   1.082   2.268 -0.0192  0.1392  0.2543
 3825W        W19634   8.750   6.561   3.242 -0.2384  0.1519  0.1651
 3826W        W19635   9.894   1.511  10.651 -0.0632 -0.0221  0.1291
 3827W        W19636  15.828   1.352   5.381  0.2903 -0.5181  0.0761
 3828W        W19637  15.052   3.696   4.015  0.0397 -0.0480  0.3910
 3829W        W19638   2.493  16.057   4.852 -0.1433 -0.1931 -0.0442
 3830W        W19639  10.460   6.347  12.863 -0.0619  0.4293 -0.4768
 3831W        W19640  16.248   0.885  14.991 -0.1484 -0.0034 -0.1636
 3832W        W19641   2.974  11.198  11.619  0.0127  0.2270  0.1223
 3833W        W19642  15.168   7.741  12.609  0.0440 -0.2122 -0.0890
 3834W        W19643  14.779   3.027  13.789  0.0243  0.2359 -0.0944
 3835W        W19644  15.939   5.697  15.132 -0.2049  0.0557 -0.0444
 3836W        W19645   2.176  14.511   4.411  0.1157  0.4724 -0.0888
 3837W        W19646   0.715  10.776  11.639  0.0427 -0.3246  0.3253
 3838W        W19647  12.565  11.028   2.600 -0.0380  0.0949  0.2339
 3839W        W19648   5.554  10.410   3.147 -0.3617 -0.0383  0.2528
 3840W        W19649  10.579   2.585   2.977  0.1478 -0.0093 -0.0027
 3841W        W19650  12.425   9.937  14.416 -0.0797 -0.2042 -0.1330
 3842W        W19651   6.628   3.184   0.210  0.2513 -0.0625 -0.3006
 3843W        W19652   5.510  17.868   4.213 -0.1375 -0.2927  0.0937
 3844W        W19653   0.351  15.703  13.485 -0.1453  0.3724 -0.2946
 3845W        W19654   0.593   2.185   5.755  0.3671  0.1421 -0.0372
 3846W        W19655  11.912   1.346  13.816 -0.0160  0.0113 -0.1479
 3847W        W19656  13.996   6.950   0.932 -0.0374 -0.1419  0.1054
 3848W        W19657   6.264   5.740   5.137  0.0486 -0.1769 -0.1853
 3849W        W19658  16.066  14.794   2.589 -0.1935  0.2741  0.3489
 3850W        W19659  17.503   3.647  13.060  0.0556 -0.1605 -0.0729
 3851W        W19660   0.209  17.233   1.841  0.1137  0.2007  0.0685
 3852W        W19661  11.746  10.571   1.578 -0.0393 -0.1717  0.0205
 3853W        W19662   9.059   7.513   4.260 -0.2288 -0.0252  0.1883
 3854W        W19663   2.900   0.895   9.785 -0.1252 -0.1283 -0.0186
 3855W        W19664   2.980   7.387  15.114 -0.0646  0.0012 -0.3493
 3856W        W19665  11.988  18.005  15.089  0.0691 -0.0423 -0.0066
 3857W        W19666  15.552   7.626  11.437 -0.2159  0.0121  0.1136
 3858W        W19667  15.858   1.803   1.213  0.0428  0.1169 -0.2152
 3859W        W19668   2.711  10.553   3.488 -0.1989  0.0291  0.1116
 3860W        W19669   5.649   4.762  11.603 -0.1033  0.0054 -0.0689
 3861W        W19670  10.197  16.099   1.997 -0.1806 -0.2587 -0.1959
 3862W        W19671   2.850   9.564   3.010  0.4426  0.1675 -0.1966
 3863W        W19672   0.222   0.947  14.699  0.1047  0.1836  0.2845
 3864W        W19673   2.028  15.995   4.412  0.0164 -0.1099 -0.2937
 3865W        W19674   3.763  16.920   3.807 -0.0514 -0.0784  0.1684
 3866W        W19675  16.064   0.268  11.943 -0.2506 -0.1777 -0.0566
 3867W        W19676   9.135  15.983   5.265 -0.5363  0.0465 -0.0400
 3868W        W19677   6.070  16.363  11.096 -0.2838  0.0786  0.2591
 3869W        W19678   6.593  13.997  12.839  0.1977 -0.2148 -0.2183
 3870W        W19679   6.667  14.752  11.066  0.0463 -0.1327 -0.3471
 3871W        W19680   6.278  18.907   0.049 -0.0698  0.1352  0.1660
 3872W        W19681   3.904   1.910   1.546  0.1567 -0.1537 -0.0384
 3873W        W19682   7.226  18.125   4.763 -0.1567  0.1766 -0.4421
 3874W        W19683   4.721  12.060   2.644  0.1242  0.3054  0.1867
 3875W        W19684   6.068  16.620   1.374 -0.1266 -0.1713  0.0882
 3876W        W19685   6.521   9.790  13.070 -0.4144  0.2864 -0.0942
 3877W        W19686  17.106   2.712  10.355  0.2293  0.0164  0.1143
 3878W        W19687  10.025  14.645  11.020  0.0072 -0.2063  0.0407
 3879W        W19688   6.290  18.729  12.924  0.0093  0.0258  0.2801
 3880W        W19689   1.549   9.887  12.462 -0.1586 -0.0925  0.2424
 3881W        W19690  18.608   7.374  12.963  0.0755  0.0185  0.0900
 3882W        W19691  17.554   2.568  12.877  0.0650  0.0209 -0.1000
 3883W        W19692   1.462  14.957  13.104 -0.1769  0.0932  0.0616
 3884W        W19693  14.461   0.917  11.162  0.0689  0.0471 -0.2606
 3885W        W19694   3.320  17.778  12.878  0.1361  0.0752 -0.0953
 3886W        W19695  12.750  17.682   2.363  0.0158 -0.2157 -0.2158
 3887W        W19696  17.638  12.440  11.551 -0.4361 -0.2328 -0.2900
 3888W        W19697   9.897  15.254  11.696 -0.0213  0.2027 -0.2477
 3889W        W19698   6.734   8.479  13.055  0.1014  0.0634  0.1622
 3890W        W19699   9.729  11.011   1.667 -0.0353  0.0052  0.2194
 3891W        W19700   6.003   6.804  14.103  0.0834 -0.3685  0.1300
 3892W        W19701   2.117  13.795   4.433 -0.0415  0.0018  0.1943
 3893W        W19702  10.743   6.953   0.405 -0.0942  0.3198  0.0876
 3894W        W19703  17.706  17.697  11.779 -0.0109 -0.1873 -0.3211
 3895W        W19704   8.849  11.746   2.724 -0.1323 -0.1894  0.1397
 3896W        W19705   5.820  11.931   1.538  0.0662 -0.1160 -0.2282
 3897W        W19706   9.830  14.307   3.143 -0.1274  0.1649  0.2132
 3898W        W19707  14.420   1.013   2.711 -0.1006 -0.0764 -0.0150
 3899W        W19708  15.228  14.186  14.376 -0.0626  0.0966 -0.3663
 3900W        W19709  11.497  14.127  10.982 -0.1065  0.0973  0.0189
 3901W        W19710  10.528  16.124  11.811  0.1989  0.2217 -0.2649
 3902W        W19711   9.170   6.440   4.736 -0.1025 -0.0707  0.0213
 3903W        W19712  16.338   2.880   0.897  0.0525  0.0301  0.3645
 3904W        W19713   3.907  14.886  11.414  0.2917  0.0849  0.1671
 3905W        W19714  12.112   9.979  11.386 -0.2452  0.0960 -0.1928
 3906W        W19715  11.810   8.250  11.735  0.1101 -0.0109  0.1434
 3907W        W19716   9.597   8.134   2.485 -0.2862  0.2357 -0.1068
 3908W        W19717  18.453  13.902   9.405 -0.0215  0.0028  0.2159
 3909W        W19718   3.562  18.574   5.008  0.0464  0.1964 -0.3655
 3910W        W19719  11.186  17.982  12.348 -0.1103  0.1265 -0.0348
 3911W        W19720   2.585   1.361  14.776  0.0513  0.0548 -0.3947
 3912W        W19721   7.220  12.717  12.968  0.3263  0.0183  0.1672
 3913W        W19722  17.278   1.397   4.303  0.0027  0.0539 -0.2532
 3914W        W19723  17.362   5.666   9.990  0.0932 -0.1152  0.3773
 3915W        W19724   9.638  11.688   6.068 -0.2577 -0.1268 -0.1786
 3916W        W19725   8.084  15.367  13.451 -0.2886  0.4019  0.1440
 3917W        W19726   8.631   0.122   3.014  0.0041 -0.2447 -0.1472
 3918W        W19727  16.395  16.641   0.624 -0.3155  0.2924 -0.0578
 3919W        W19728  18.887  17.938   4.890 -0.2998  0.0709  0.0722
 3920W        W19729  16.805  15.240  13.796 -0.2981  0.2114 -0.1823
 3921W        W19730   7.329  11.154   5.698 -0.1186  0.2479 -0.0419
 3922W        W19731  16.335  14.498  14.994  0.0620 -0.2327  0.0483
 3923W        W19732  15.645  10.495   4.322 -0.1112 -0.2023  0.2044
 3924W        W19733  11.874  16.759   0.816 -0.1352  0.3373 -0.0250
 3925W        W19734   4.337  12.955  12.774 -0.2277  0.1079 -0.1473
 3926W        W19735   2.348  10.427   9.798  0.0458  0.0802  0.2513
 3927W        W19736   6.289  10.043   4.857  0.0207  0.0331 -0.3166
 3928W        W19737   9.508   1.542   2.730  0.2390 -0.1202  0.0770
 3929W        W19738  18.773   9.148  14.682 -0.1990  0.4696 -0.2497
 3930W        W19739  17.727   0.460   0.770  0.1522 -0.1581 -0.0949
 3931W        W19740   1.487  13.572  15.214  0.3666  0.1542 -0.1664
 3932W        W19741   1.239   4.777  10.886  0.1068 -0.0806  0.3713
 3933W        W19742  13.655   1.266  10.835 -0.0454 -0.2170 -0.3313
 3934W        W19743  13.244  11.638  11.232  0.0998 -0.1917  0.5496
 3935W        W19744   3.832   3.465   2.002  0.0167 -0.2770 -0.3228
 3936W        W19745   8.934   9.938  13.889  0.1907  0.1181  0.0021
 3937W        W19746  15.943   7.024  13.253  0.0207 -0.2753 -0.0818
 3938W        W19747   9.554  10.911  14.728 -0.0544  0.0713  0.1944
 3939W        W19748   0.990   5.181   4.603  0.1031 -0.0292  0.3848
 3940W        W19749   8.072   8.946   1.435  0.4341 -0.0370  0.1546
 3941W        W19750   5.164  11.021  13.950  0.2665  0.1495  0.2891
 3942W        W19751   3.792   5.132   2.903 -0.0856  0.2326  0.1252
 3943W        W19752  10.121   2.460   4.075  0.3797 -0.2964  0.5611
 3944W        W19753   3.252   5.828   0.599 -0.0631 -0.1794 -0.1460
 3945W        W19754  13.844   8.728  14.335  0.1282  0.1252 -0.3666
 3946W        W19755   5.378   2.072   3.861 -0.2642  0.3401 -0.1462
 3947W        W19756   6.960  18.770   2.607 -0.1933 -0.3688  0.0441
 3948W        W19757  16.000  13.303  12.727 -0.0715 -0.0199 -0.4301
 3949W        W19758   1.712   5.008  10.993  0.0615  0.1809  0.5005
 3950W        W19759   1.638   8.230  11.296 -0.1459 -0.0938  0.0722
 3951W        W19760   1.370   7.911   0.970 -0.1722  0.0804  0.1022
 3952W        W19761   7.354   8.600  10.544  0.1673  0.2053 -0.1959
 3953W        W19762   7.838  15.766  12.065  0.4194 -0.2240  0.3198
 3954W        W19763   1.559  14.373   5.219  0.4369  0.1536  0.0372
 3955W        W19764   5.818   8.337  12.139  0.1198 -0.0919 -0.3573
 3956W        W19765   9.948  18.681   2.351 -0.1724  0.1199 -0.1864
 3957W        W19766   7.411  16.804   1.000  0.2962  0.0535 -0.2500
 3958W        W19767  11.950  17.836  13.456  0.2674  0.0979  0.2328
 3959W        W19768  17.135   9.072   1.276 -0.1321 -0.2743 -0.0142
 3960W        W19769  17.578  17.174   1.370  0.0548  0.4876 -0.2095
 3961W        W19770   8.555   9.122   0.127 -0.1842  0.0970 -0.1205
 3962W        W19771  11.230  17.886   0.872  0.0041 -0.0342  0.0964
 3963W        W19772   5.334   1.646   0.336 -0.3269  0.0388 -0.1262
 3964W        W19773  18.222   5.174  12.736 -0.2133  0.2212  0.2170
 3965W        W19774  15.774  11.710  13.572  0.0559  0.1328  0.1449
 3966W        W19775   0.717  14.619   1.292  0.1949 -0.0559  0.2010
 3967W        W19776   4.994  10.545   1.745  0.1559  0.3353 -0.0541
 3968W        W19777  12.170  12.364   1.635  0.1189 -0.1704 -0.1474
 3969W        W19778   4.668   1.523  12.394  0.1563  0.1692 -0.0872
 3970W        W19779  17.256  15.856  13.065  0.1830  0.2867  0.1268
 3971W        W19780   4.474   3.105  11.739  0.0139  0.0462  0.2675
 3972W        W19781  17.336  13.338   1.449 -0.0592  0.0369  0.1358
 3973W        W19782   6.036  15.491   1.639 -0.1962 -0.0586  0.1025
 3974W        W19783   3.737   5.675  10.875  0.0930 -0.0723  0.0088
 3975W        W19784  13.150   9.778  15.116 -0.0358  0.0230 -0.0441
 3976W        W19785  11.614  15.181   1.576 -0.0564 -0.0193  0.1221
 3977W        W19786   8.357  15.424   0.140  0.2740  0.5522  0.1930
 3978W        W19787  12.521  10.335  11.037 -0.2088  0.3875 -0.2398
 3979W        W19788   2.652   1.884  12.388  0.3030 -0.1204 -0.1159
 3980W        W19789   9.472   1.919   0.819  0.0132  0.0761  0.0354
 3981W        W19790   7.981   8.476  14.875  0.0913  0.0069 -0.1189
 3982W        W19791  13.270   6.128  12.883 -0.2748 -0.0604 -0.4737
 3983W        W19792   4.798  18.279  10.771 -0.1362  0.1766  0.1899
 3984W        W19793   7.793  17.578   4.402  0.0748  0.2010  0.1155
 3985W        W19794  10.182  10.978   0.924 -0.0452  0.0621  0.0842
 3986W        W19795  10.423  11.804   4.384  0.1251 -0.0418  0.0824
 3987W        W19796  11.345   8.557  14.888  0.1764  0.0630  0.4410
 3988W        W19797  13.018   5.804   3.005 -0.0609 -0.0447  0.0093
 3989W        W19798   1.752   9.184  14.538  0.0220 -0.0897 -0.1495
 3990W        W19799   2.129   0.866  11.901 -0.2829  0.0962 -0.2174
 3991W        W19800  17.725   1.965   1.773 -0.1237  0.2724  0.2405
 3992W        W19801   5.175   3.729  12.416 -0.1860 -0.0424 -0.0562
 3993W        W19802   8.603  13.506   0.495 -0.0661  0.0680 -0.0832
 3994W        W19803  10.192  17.748   2.562  0.2132 -0.0680 -0.2278
 3995W        W19804  18.017  10.319  10.568  0.1962 -0.3939 -0.1518
 3996W        W19805  14.281  12.859  12.393 -0.0672 -0.0516 -0.1478
 3997W        W19806   5.666  16.721   5.077 -0.3637 -0.1828 -0.0135
 3998W        W19807   3.624  11.155  14.228  0.1211  0.4247  0.1793
 3999W        W19808  11.417   5.381   4.706  0.1519  0.0832  0.0523
 4000W        W19809  15.085   9.212   0.341 -0.0429  0.0885 -0.0659
 4001W        W19810  16.797  11.170  15.204 -0.0440 -0.0338 -0.0437
 4002W        W19811  13.488   2.071  13.982  0.1521  0.1459  0.0159
 4003W        W19812   7.858   3.466   0.142 -0.1280  0.3699 -0.0542
 4004W        W19813  11.232  16.074  13.548 -0.0907 -0.1320 -0.0308
 4005W        W19814   5.874   5.913   0.918 -0.1391  0.0089  0.3818
 4006W        W19815   5.204  11.148   4.771  0.0970  0.2221 -0.0184
 4007W        W19816  18.207  17.756  10.886  0.2520 -0.4388  0.1882
 4008W        W19817   0.239  14.632   9.824  0.0468 -0.0738  0.1463
 4009W        W19818  16.964  14.579   4.813 -0.0636 -0.5030  0.0793
 4010W        W19819   2.977   0.245   0.466  0.0543  0.0509 -0.2685
 4011W        W19820  17.231   7.487  14.468 -0.3132 -0.2912  0.1239
 4012W        W19821  13.546  15.014   2.814  0.0448 -0.1261 -0.0078
 4013W        W19822  18.282   9.672  11.011  0.1276  0.1916 -0.0237
 4014W        W19823  12.327   8.237  10.873 -0.1152  0.3639 -0.2363
 4015W        W19824   6.464  14.680   0.434  0.1388  0.2145 -0.1319
 4016W        W19825   6.184   0.906  15.354  0.3653 -0.0263  0.0545
 4017W        W19826   7.614   1.738   0.572  0.1183  0.0901 -0.0274
 4018W        W19827   3.986  11.413  10.727  0.0649 -0.1365  0.1768
 4019W        W19828  10.857   5.598   4.016  0.0355 -0.0486 -0.1722
 4020W        W19829  11.174   8.596  14.322  0.4717  0.2441  0.0782
 4021W        W19830   1.706  14.292  11.074 -0.0427  0.2345  0.1349
 4022W        W19831  12.291  14.943   5.247  0.1245 -0.0678 -0.2541
 4023W        W19832  17.123   3.447  12.701  0.0615 -0.4303  0.0346
 4024W        W19833  17.627  14.903   5.321 -0.1372 -0.2054  0.1195
 4025W        W19834  12.812  12.642  11.458 -0.1978 -0.1504  0.1704
 4026W        W19835   7.535   6.861   3.495 -0.2876  0.1047  0.0131
 4027W        W19836  17.106  12.526  15.248  0.0979 -0.0739  0.0035
 4028W        W19837  12.677   6.288  15.408 -0.1943 -0.2007  0.1576
 4029W        W19838   6.963  16.075  12.295  0.1588  0.1518 -0.3035
 4030W        W19839   6.923  13.220   0.969 -0.0285  0.0176 -0.0592
 4031W        W19840  15.235  18.769  13.773 -0.1000  0.0721 -0.2542
 4032W        W19841   2.692   9.726   2.560  0.0808 -0.1909 -0.2504
 4033W        W19842   3.297  17.134   0.328  0.1848 -0.1450 -0.1497
 4034W        W19843   8.081  10.036   2.821  0.2107  0.0320 -0.1891
 4035W        W19844  13.095  18.296   1.149  0.0967  0.0370  0.0789
 4036W        W19845  18.918  17.918   2.350 -0.0308  0.1001 -0.0408
 4037W        W19846   9.877  12.914  11.647 -0.0441  0.0375 -0.1875
 4038W        W19847  16.354  17.848  13.351 -0.2156  0.0595  0.2401
 4039W        W19848  10.214   8.057  13.487 -0.2050  0.2088 -0.0091
 4040W        W19849   5.349  14.923   2.431 -0.0625 -0.1061  0.0343
 4041W        W19850   0.727  14.973   0.967  0.1182  0.2080  0.1821
 4042W        W19851   7.446  18.867   3.990  0.1240  0.0762 -0.1352
 4043W        W19852  16.393   9.038   5.413  0.0624 -0.3356 -0.0756
 4044W        W19853   0.202  11.788   1.017  0.2248 -0.0946 -0.0038
 4045W        W19854   0.559  10.877   1.849  0.0374  0.0219  0.1560
 4046W        W19855  11.271   0.135   4.096  0.0166 -0.0442  0.1087
 4047W        W19856   3.251  18.730   2.212 -0.2113 -0.1413  0.0359
 4048W        W19857  16.577  11.151   2.008 -0.2231 -0.1397  0.1802
 4049W        W19858  12.677   7.200   9.958  0.2101  0.0618 -0.0363
 4050W        W19859   0.151   0.643  13.687  0.2054 -0.4008  0.0340
 4051W        W19860  13.086  14.097  11.624 -0.0615  0.1381 -0.1987
 4052W        W19861   1.496   5.490   1.090 -0.0088 -0.4598 -0.4086
 4053W        W19862   0.633   0.840   2.239  0.3451 -0.0565  0.3219
 4054W        W19863  15.592   0.075   2.606  0.1414  0.0591  0.0299
 4055W        W19864  10.691   3.759   5.568 -0.1173 -0.0010  0.0127
 4056W        W19865   8.998  15.436   2.026 -0.0889 -0.3164 -0.0479
 4057W        W19866   7.396   6.221  10.595  0.1367  0.0855  0.1607
 4058W        W19867  17.205   6.444  13.487  0.3032  0.2641  0.2207
 4059W        W19868   1.791  11.330  12.138  0.3988  0.1079 -0.0592
 4060W        W19869   7.540  16.094  11.088  0.1403  0.0391 -0.0494
 4061W        W19870   9.316  18.851  12.124  0.3710  0.0248  0.0771
 4062W        W19871  16.260  10.473   5.704 -0.1747 -0.3140 -0.0020
 4063W        W19872   5.501  16.897   3.970 -0.2988  0.0630  0.2636
 4064W        W19873  11.956  14.249   1.495 -0.1073 -0.5454  0.3087
 4065W        W19874  12.094   2.395  11.884  0.0447 -0.0706 -0.2032
 4066W        W19875   5.636  17.836   0.685  0.2882  0.0726 -0.0606
 4067W        W19876  14.210  16.730   3.924  0.1995 -0.0838 -0.1064
 4068W        W19877   1.929  13.686  13.017  0.2151 -0.3367  0.1186
 4069W        W19878   1.472  18.473   1.016 -0.0495  0.0132  0.0161
 4070W        W19879   0.783  12.397  11.653 -0.1075  0.2645  0.1455
 4071W        W19880   9.663  14.964  14.582  0.1085 -0.3317 -0.0412
 4072W        W19881  11.292   9.172  13.404 -0.0903 -0.0179 -0.0542
 4073W        W19882  11.053   6.184  13.436  0.6561 -0.0623 -0.0260
 4074W        W19883  18.219  11.374  10.761 -0.0597 -0.2794 -0.1198
 4075W        W19884   7.748   2.051  13.604 -0.0908 -0.2867 -0.2160
 4076W        W19885   6.143   8.647   1.002 -0.1547  0.5813 -0.2122
 4077W        W19886  18.444  10.368   0.979 -0.0553 -0.4149 -0.0387
 4078W        W19887   8.032   1.202   9.922  0.0059  0.0807 -0.1552
 4079W        W19888  10.789   2.085   4.626 -0.1005  0.2705  0.1737
 4080W        W19889   9.777  16.552   1.451 -0.1923  0.0951  0.3188
 4081W        W19890   6.587   2.702   5.749  0.2321  0.2474 -0.2246
 4082W        W19891  12.985  10.271  14.913  0.0010 -0.0979  0.2467
 4083W        W19892   9.450   1.612  13.173 -0.1565 -0.3359 -0.1817
 4084W        W19893  16.574  14.099   2.936  0.0870  0.1088  0.1941
 4085W        W19894  15.565   9.963   4.084  0.0600 -0.2496 -0.1354
 4086W        W19895  15.005  13.096  13.526 -0.0851 -0.0253  0.0238
 4087W        W19896  16.567   4.634  13.233 -0.2889  0.0428  0.0338
 4088W        W19897  17.403   5.143  12.286  0.3119 -0.2093 -0.1714
 4089W        W19898   3.977   5.244  13.283 -0.2109 -0.0033 -0.2774
 4090W        W19899   2.290  12.618   1.591 -0.0002 -0.0099 -0.1386
 4091W        W19900  15.574   1.748  10.874 -0.0796 -0.0296 -0.0686
 4092W        W19901   4.042  12.230  14.486 -0.2770  0.4515  0.0708
 4093W        W19902   1.584   6.119  12.272 -0.0101 -0.0948 -0.2991
 4094W        W19903  18.428   3.657   0.824  0.1617 -0.0542  0.2966
 4095W        W19904  18.624   0.259   2.932 -0.1306 -0.0895  0.0380
 4096W        W19905   9.871   3.154   4.629  0.2935  0.0929 -0.0076
 4097W        W19906   8.320   8.296   3.132  0.0513  0.1734 -0.1193
 4098W        W19907   2.491   5.695   3.094  0.2126 -0.0658 -0.1500
 4099W        W19908   7.905  15.466   1.211  0.0014 -0.0683 -0.2305
 4100W        W19909  13.830   1.397   4.062  0.2363  0.2045  0.1497
 4101W        W19910  12.834  17.419   4.096 -0.1977 -0.1241 -0.1019
 4102W        W19911   4.781   9.692   1.508  0.0429 -0.1612  0.2018
 4103W        W19912  18.910   7.700  12.543 -0.1735 -0.1742 -0.4696
 4104W        W19913  14.852   4.193  12.156  0.1507 -0.2103 -0.3720
 4105W        W19914   7.303  18.288  15.397  0.0869  0.1073  0.2639
 4106W        W19915   4.390  12.204  13.092  0.1061  0.1522 -0.0856
 4107W        W19916  16.133   7.806   3.541  0.2526 -0.1315  0.0809
 4108W        W19917  16.803  16.428   0.453 -0.0257  0.0461  0.3390
 4109W        W19918   5.737  11.119   2.998  0.1031 -0.2026 -0.1962
 4110W        W19919  15.541  12.895   0.820  0.0583  0.2240  0.3601
 4111W        W19920   5.806  12.600   0.411 -0.0838  0.0802  0.3153
 4112W        W19921  13.386  18.861   1.354  0.4138  0.0222 -0.3217
 4113W        W19922   6.631   5.227   5.730  0.2127 -0.0972 -0.0757
 4114W        W19923   7.190  12.859  14.977  0.2311  0.1119  0.1893
 4115W        W19924  10.600   7.343   0.671 -0.1821  0.1918 -0.0682
 4116W        W19925  12.034  11.887   1.408 -0.2253 -0.0577  0.0481
 4117W        W19926   7.705  11.436  14.716  0.0043  0.1100  0.4969
 4118W        W19927   8.301  14.873   2.118  0.0534  0.0399  0.2441
 4119W        W19928  18.048   9.859   3.536  0.0854 -0.2347  0.0600
 4120W        W19929   9.135   7.649  14.394  0.0394  0.0263  0.1385
 4121W        W19930  12.518   1.986   3.149 -0.4380 -0.1980  0.3080
 4122W        W19931   1.104   1.679   1.255 -0.1025 -0.2943  0.1329
 4123W        W19932  15.498   7.710  15.424  0.1159  0.0229 -0.2119
 4124W        W19933  16.916  14.540  11.571 -0.0148 -0.1447  0.1105
 4125W        W19934   5.809  10.335   4.960 -0.2286 -0.0852 -0.2657
 4126W        W19935   7.041   1.964   5.160  0.0205 -0.3736  0.0164
 4127W        W19936   4.236  15.869   0.136  0.0427  0.0361 -0.0234
 4128W        W19937   1.746  18.897  14.630 -0.0668  0.1039  0.2293
 4129W        W19938  12.294  13.217  14.946  0.0785  0.1026  0.0889
 4130W        W19939  15.046  12.312   2.021  0.0829 -0.0113 -0.3393
 4131W        W19940  12.062   2.977  10.851 -0.0562 -0.3329  0.0073
 4132W        W19941   7.518   6.963  10.663  0.3496 -0.0383  0.2235
 4133W        W19942  13.509   8.737   0.133  0.0195  0.1173  0.0188
 4134W        W19943  12.525  14.878   2.633  0.1466 -0.0669 -0.1663
 4135W        W19944  14.795  16.356   3.184  0.2796 -0.3729  0.0189
 4136W        W19945   3.833  16.290   5.404  0.1326  0.0454  0.0364
 4137W        W19946   7.203   9.613   3.693 -0.0982  0.1990  0.3845
 4138W        W19947  11.646  18.448  10.925  0.1674 -0.1942  0.0441
 4139W        W19948   1.915  13.023   2.181 -0.0739  0.2744 -0.1222
 4140W        W19949  12.554   8.915  11.306  0.2593  0.0680  0.0429
 4141W        W19950  13.461   0.834   4.935  0.0166 -0.1828 -0.0760
 4142W        W19951   2.929   4.383   4.611 -0.1384  0.2126 -0.3375
 4143W        W19952   4.750  17.173  11.852  0.1606  0.1016  0.2396
 4144W        W19953  18.096  15.219  11.200 -0.0927 -0.2656  0.1288
 4145W        W19954   1.154  14.719   2.016 -0.0102  0.1783 -0.2277
 4146W        W19955   2.936  13.102   1.343 -0.0300  0.3151  0.1304
 4147W        W19956   7.909  14.954  13.023  0.1191 -0.1130 -0.2900
 4148W        W19957   1.510   5.583  13.469  0.2953 -0.1378 -0.0473
 4149W        W19958   3.604  15.490   3.062  0.0668  0.2750 -0.0748
 4150W        W19959   9.685  17.937  12.833 -0.1344 -0.0228  0.0568
 4151W        W19960  11.494   3.103   5.310  0.0066  0.0835  0.1435
 4152W        W19961   9.795  13.911  14.927 -0.3468 -0.1265  0.2012
 4153W        W19962   1.399   0.158  13.449  0.5003  0.1675  0.2571
 4154W        W19963   8.018   5.247  13.970 -0.0033 -0.3358 -0.2010
 4155W        W19964   8.742  14.967   2.551  0.0701 -0.1161  0.1746
 4156W        W19965   7.741  10.889  12.264  0.2039 -0.0444 -0.1390
 4157W        W19966  16.820   7.571   3.336  0.0069 -0.1706 -0.1036
 4158W        W19967  16.607  10.599   2.918  0.3830 -0.0929 -0.1090
 4159W        W19968   4.894   8.403   2.816  0.0581 -0.0856 -0.0210
 4160W        W19969   7.311  13.708  11.570  0.2232 -0.2261  0.2322
 4161W        W19970  13.733  11.726  13.000  0.1572 -0.0133 -0.0064
 4162W        W19971   6.502  13.553  14.399  0.0234  0.1624 -0.2865
 4163W        W19972   9.900  14.318   4.861 -0.1260  0.0191 -0.1652
 4164W        W19973   7.312   6.851  11.997 -0.1556  0.0847  0.3800
 4165W        W19974   9.142   2.342   1.677 -0.1360 -0.0795 -0.1056
 4166W        W19975  17.333  15.405  15.420  0.1872  0.2616 -0.2166
 4167W        W19976  14.756   0.051  11.503  0.1794 -0.3011 -0.2744
 4168W        W19977  10.155  16.963   3.040 -0.0972  0.1111  0.0734
 4169W        W19978   8.979  14.572  11.390  0.1775 -0.4859  0.5277
 4170W        W19979   9.751  12.979  12.136  0.0913  0.0335 -0.0033
 4171W        W19980  13.384  18.640  12.545  0.0620  0.1275 -0.0423
 4172W        W19981   9.908   9.408  10.447 -0.2678  0.0373  0.0015
 4173W        W19982  10.628   7.610   1.173 -0.1121 -0.4418  0.3845
 4174W        W19983   1.076   1.685  11.225 -0.0369  0.1817  0.0698
 4175W        W19984  15.264   8.731   4.520  0.0521 -0.3318 -0.0053
 4176W        W19985  11.068   6.621   5.733  0.1175 -0.1454 -0.0875
 4177W        W19986  18.319  18.360  12.308  0.0123  0.1938 -0.0245
 4178W        W19987  16.944   1.268   0.564 -0.3933  0.1559 -0.0434
 4179W        W19988   4.250  12.893  12.270  0.2851  0.1015 -0.1838
 4180W        W19989   2.716   1.609   2.316  0.0971  0.0000  0.0903
 4181W        W19990  17.683  12.500   2.444  0.1247  0.2196 -0.1415
 4182W        W19991  14.574  13.374  12.629 -0.0675 -0.1328  0.2462
 4183W        W19992  11.911  18.597   0.895 -0.0815  0.1209 -0.4829
 4184W        W19993  10.849   8.692  10.851 -0.0376  0.1450  0.1034
 4185W        W19994  15.488  15.533   3.356  0.3186 -0.0158  0.1252
 4186W        W19995  13.296   3.819  12.920 -0.0041 -0.0425 -0.0561
 4187W        W19996  18.247  17.294   3.693 -0.4745 -0.3485 -0.3007
 4188W        W19997   1.032  14.382   1.665 -0.5271 -0.1511 -0.0907
 4189W        W19998   8.517  13.431  13.791  0.0324 -0.0797  0.2209
 4190W        W19999   5.667   6.365   0.002  0.3815  0.4580 -0.0845
 4191W        W20000  13.529  17.828  12.295  0.2326 -0.0371 -0.1107
 4192W        W20001   0.428   3.113   0.610  0.1995  0.0065  0.1565
 4193W        W20002  12.318   2.318   2.793  0.1456  0.3164 -0.0336
 4194W        W20003   5.991   5.831   3.382  0.0122 -0.2441  0.0511
 4195W        W20004  15.484  12.055   0.714  0.0903 -0.0716  0.1021
 4196W        W20005   2.799   2.787  12.365 -0.0608 -0.1674  0.2747
 4197W        W20006  11.634  12.252   0.749 -0.0241 -0.0103 -0.2490
 4198W        W20007   1.060  11.322   3.518  0.1505  0.1372 -0.0066
 4199W        W20008   7.199   1.520   1.622 -0.1364  0.0933  0.0814
 4200W        W20009  18.832  10.388  11.115 -0.0034  0.2196  0.2086
 4201W        W20010  12.153  10.823  12.375  0.0729  0.1998  0.1388
 4202W        W20011   9.689  11.465  14.971  0.4010  0.0061 -0.0723
 4203W        W20012  13.608  15.723   4.440  0.0908  0.3523  0.0859
 4204W        W20013   0.079  12.093  13.206  0.3372  0.0441 -0.2045
 4205W        W20014   2.438  10.626   0.125 -0.1291 -0.0209 -0.0931
 4206W        W20015  10.793   7.190   3.251  0.0248 -0.2377  0.1308
 4207W        W20016  18.614   2.402   4.408 -0.2777  0.1847 -0.3114
 4208W        W20017   8.144   8.062   5.239 -0.1404 -0.0203  0.0898
 4209W        W20018   2.864   0.456  11.918 -0.0150  0.0512 -0.1466
 4210W        W20019  12.192  17.951  10.203 -0.0717 -0.0247  0.1522
 4211W        W20020  14.165  18.281   4.070 -0.1043  0.1760  0.1233
 4212W        W20021   6.568  14.998   3.552 -0.1293 -0.0259 -0.0448
 4213W        W20022  10.782  16.315  15.160  0.1942  0.2817 -0.0875
 4214W        W20023   4.623   2.088   3.840  0.2038  0.1970 -0.3565
 4215W        W20024   6.980  18.654   4.798  0.0057  0.2649  0.1901
 4216W        W20025  16.795   5.254  12.422 -0.0743 -0.0413 -0.0794
 4217W        W20026  11.913  11.106  14.193 -0.0029 -0.0252 -0.2107
 4218W        W20027  10.725   8.773  14.330 -0.1711  0.3533  0.1758
 4219W        W20028   0.054  12.466  12.241  0.5418  0.3741  0.3581
 4220W        W20029  12.830   7.466   4.550  0.0965  0.1063  0.3406
 4221W        W20030   2.906   8.828   2.002  0.0942  0.0747 -0.0418
 4222W        W20031  15.319  11.989  13.862 -0.2948 -0.0199  0.5192
 4223W        W20032   3.861  11.128  12.327  0.0912 -0.2278 -0.1018
 4224W        W20033  15.021   5.419   0.477 -0.0672  0.2128 -0.2748
 4225W        W20034   2.016  16.969   1.412  0.0518  0.0097 -0.0088
 4226W        W20035  17.008  11.410  13.075  0.0413  0.3526  0.0029
 4227W        W20036  16.190  14.770  13.301 -0.0275 -0.1284  0.0698
 4228W        W20037   4.111   9.514  12.327  0.0938  0.0691  0.1465
 4229W        W20038   8.719   3.862  14.805  0.0864 -0.1245 -0.0297
 4230W        W20039  13.291   1.658  10.826 -0.2054  0.1099 -0.3688
 4231W        W20040  15.739  14.875  11.008  0.1969  0.2363  0.0334
 4232W        W20041   2.807  14.149   4.666 -0.4073 -0.0298 -0.1557
 4233W        W20042   7.391   3.796   3.976  0.0746  0.1230 -0.3332
 4234W        W20043   3.743   1.136  13.907 -0.3112 -0.2107 -0.1298
 4235W        W20044  13.959  14.613  12.020  0.0375  0.3496  0.1925
 4236W        W20045   1.449   7.058  11.204 -0.3238  0.0320 -0.0617
 4237W        W20046   3.751   4.255  13.019 -0.3549 -0.0397  0.0474
 4238W        W20047   5.032  18.571   1.420  0.3503 -0.2047  0.1764
 4239W        W20048   3.921   9.593  14.254 -0.1900 -0.0183 -0.1647
 4240W        W20049   2.849   1.843  11.927  0.2516 -0.4803  0.1331
 4241W        W20050  13.805  14.398  11.036  0.1683 -0.1978  0.1212
 4242W        W20051   5.119  14.702   4.819 -0.0465 -0.0473  0.1790
 4243W        W20052   2.322  11.716  13.231 -0.1788 -0.3170  0.1299
 4244W        W20053   8.895   3.563  11.072 -0.0242 -0.2845 -0.3798
 4245W        W20054   0.268  11.665   2.210 -0.0241 -0.0479 -0.0273
 4246W        W20055   7.038  14.866  13.301 -0.0340  0.1862  0.2048
 4247W        W20056  11.266  13.681  12.692 -0.2729  0.0799 -0.0438
 4248W        W20057  17.873  17.165   5.172 -0.1996 -0.0133 -0.1234
 4249W        W20058   5.172  14.628  12.523 -0.0069  0.0311 -0.1055
 4250W        W20059   2.968   4.323  13.668  0.2792 -0.2316  0.1393
 4251W        W20060   7.677   6.283  12.752  0.0273  0.1341 -0.0052
 4252W        W20061  15.312   3.049  13.459 -0.0811  0.0601  0.0493
 4253W        W20062   7.135  11.833   0.118  0.0269  0.1629 -0.1530
 4254W        W20063   2.094  13.134   3.827 -0.1577 -0.1263 -0.0432
 4255W        W20064  17.144   8.668  11.922 -0.2981  0.1057 -0.0201
 4256W        W20065  16.413  14.413  11.722 -0.3880 -0.3080 -0.0637
 4257W        W20066   2.697  11.586   4.492 -0.1975 -0.3618  0.0600
 4258W        W20067  18.338   9.684   0.195  0.0767  0.0697 -0.0266
 4259W        W20068   4.457   1.982  11.138 -0.3555 -0.0269 -0.3543
 4260W        W20069  16.147  17.909  11.452 -0.1454 -0.0917  0.0701
 4261W        W20070  17.239  16.372   1.212  0.2869  0.0071 -0.2799
 4262W        W20071   1.861  17.454   1.152  0.0646 -0.0943 -0.1155
 4263W        W20072   7.018  15.625   2.544  0.0557  0.0754  0.2715
 4264W        W20073   4.934  14.254  13.401  0.4068 -0.1329 -0.0156
 4265W        W20074  17.609   0.346  15.168 -0.0778 -0.0369  0.0860
 4266W        W20075   7.444  18.394   5.736  0.0547 -0.0518 -0.2674
 4267W        W20076   0.402   4.400  12.450  0.0429 -0.1046  0.3791
 4268W        W20077   6.189   4.664   3.915 -0.1394  0.1182  0.0263
 4269W        W20078  17.102  13.156   4.140 -0.2660 -0.2125 -0.1929
 4270W        W20079   2.499  15.493   5.038 -0.2489  0.1313 -0.0273
 4271W        W20080  10.520  18.584   0.656 -0.3914 -0.2035  0.0133
 4272W        W20081   2.341   8.358  10.472  0.2106 -0.2348  0.1426
 4273W        W20082  10.994  17.793   5.216 -0.1298 -0.0923  0.0413
 4274W        W20083  13.436   9.550  13.329 -0.0240 -0.4154  0.4790
 4275W        W20084   0.125   7.708   2.591 -0.5332 -0.1439 -0.0726
 4276W        W20085   9.525   5.632   5.101 -0.0147 -0.6526  0.0892
 4277W        W20086   9.266  17.163  13.650 -0.1550 -0.0516 -0.1905
 4278W        W20087   3.607  13.928  15.089 -0.4402 -0.1976  0.1056
 4279W        W20088   9.649   8.128   1.992 -0.3904 -0.2323 -0.0275
 4280W        W20089   4.006   1.648  11.386 -0.0176 -0.3158  0.1257
 4281W        W20090  12.089   6.392   1.732  0.1379 -0.0708  0.3163
 4282W        W20091  18.774  12.102  12.654  0.1566  0.2727 -0.1249
 4283W        W20092  17.986   4.394  14.259 -0.2049  0.0435  0.3008
 4284W        W20093  18.482   7.920  12.771  0.0221 -0.1350 -0.0034
 4285W        W20094   9.446   6.687   3.990 -0.2243 -0.1970  0.0570
 4286W        W20095  10.699  11.987   0.935  0.2122  0.0207 -0.3879
 4287W        W20096  14.364   0.228  15.143 -0.2637 -0.1522  0.0129
 4288W        W20097  12.643  17.651  14.226  0.3372 -0.2536  0.0978
 4289W        W20098  10.455  18.709   2.742  0.2104  0.0734  0.1776
 4290W        W20099  11.331  17.983  10.969  0.0428  0.1187  0.1066
 4291W        W20100   1.478  15.136   2.832  0.0565 -0.3034  0.0664
 4292W        W20101   6.733   0.245   2.082  0.0481  0.0550  0.0813
 4293W        W20102  15.594   3.389   4.837  0.3251  0.3183  0.1485
 4294W        W20103   2.401   1.604  11.974 -0.0109 -0.1100  0.3602
 4295W        W20104  10.548   2.056   4.170  0.0112  0.0055  0.0941
 4296W        W20105   4.911  10.028   3.901 -0.0600  0.1979  0.2290
 4297W        W20106   7.923   0.447   1.555 -0.1629  0.2857  0.1669
 4298W        W20107   2.816  15.781  11.473 -0.3684 -0.1497  0.1088
 4299W        W20108   1.261  18.081  10.469  0.3379  0.1146 -0.4115
 4300W        W20109  15.797  14.447  13.657 -0.0108  0.2503  0.0102
 4301W        W20110   8.943   7.243   2.560 -0.1037 -0.0656  0.1139
 4302W        W20111  17.959  14.186  13.331 -0.0866  0.2167 -0.2291
 4303W        W20112  12.679  11.323   4.673  0.1760 -0.2758 -0.2705
 4304W        W20113  11.264   6.073   5.536  0.2080  0.0989 -0.0167
 4305W        W20114   9.475   9.501  13.216 -0.2108 -0.1421  0.1065
 4306W        W20115  15.508   0.980   5.527  0.0897  0.0499 -0.1688
 4307W        W20116  17.630   4.855  14.308  0.1819  0.4352  0.2013
 4308W        W20117   3.425  13.968   1.555 -0.0812 -0.2089  0.2118
 4309W        W20118   0.718   7.861  14.742 -0.1270 -0.1221  0.1182
 4310W        W20119  13.199   2.447   0.677 -0.1953  0.0311  0.1287
 4311W        W20120   8.730   4.966   4.632 -0.0106 -0.4967  0.2066
 4312W        W20121   3.603   3.505   0.917  0.2775 -0.0497 -0.3771
 4313W        W20122   8.634  14.459   2.978 -0.0788 -0.0546 -0.0900
 4314W        W20123   4.806   5.926   9.393 -0.0059  0.0406 -0.0332
 4315W        W20124  17.900   5.869   3.926  0.2799 -0.0387 -0.0098
 4316W        W20125   7.346   7.688  10.825 -0.2192  0.0818  0.0445
 4317W        W20126   2.519   3.419  13.149  0.2294 -0.1292 -0.0554
 4318W        W20127  15.252   9.046  13.474 -0.1531 -0.1889  0.0445
 4319W        W20128  10.129  12.063  15.249  0.0244  0.0187  0.1659
 4320W        W20129   2.905  18.194   0.482  0.0938 -0.0908  0.0726
 4321W        W20130  10.219   5.236   3.339  0.0011 -0.0985 -0.2250
 4322W        W20131   1.461   9.424   4.957 -0.2476 -0.0580  0.0797
 4323W        W20132  12.722   8.720   3.144 -0.0731 -0.1793  0.0623
 4324W        W20133  14.892   9.123   3.301 -0.0468 -0.0929 -0.0939
 4325W        W20134   1.742   4.828  14.052  0.2709  0.2814 -0.2228
 4326W        W20135  11.673  11.905   3.614 -0.2901  0.1000 -0.4407
 4327W        W20136   0.198   4.567   1.997  0.0642  0.0394 -0.1967
 4328W        W20137   2.774  18.854   2.388  0.2256  0.0162  0.0636
 4329W        W20138   2.600   5.050  12.548 -0.1334 -0.0183 -0.3967
 4330W        W20139   9.689   4.540   3.219 -0.3836 -0.0872 -0.0857
 4331W        W20140  17.684   0.867   1.097  0.2152  0.0592 -0.0299
 4332W        W20141   9.403   9.730  13.739  0.2704  0.0692 -0.3467
 4333W        W20142   4.084   5.360  11.735 -0.4408 -0.3160 -0.3194
 4334W        W20143  12.011   7.867  13.618  0.2958 -0.0706  0.0690
 4335W        W20144   2.100  15.641   4.884  0.0293  0.0137  0.2816
 4336W        W20145  18.345   6.746  13.621  0.0543 -0.0266 -0.3159
 4337W        W20146   7.812   2.759  14.488  0.2912 -0.0308 -0.1991
 4338W        W20147   5.613   0.219  10.627  0.1745  0.1493 -0.0015
 4339W        W20148  10.201  13.610  15.033  0.1864 -0.0412  0.0365
 4340W        W20149  10.209   7.953  15.261  0.0989 -0.1233 -0.5306
 4341W        W20150  13.698  15.059  11.717 -0.1903  0.0259 -0.1154
 4342W        W20151   9.027   2.986  12.197 -0.0689  0.1363  0.2914
 4343W        W20152  13.117  11.141   4.841 -0.0285  0.0607  0.0776
 4344W        W20153   8.539  15.563   2.306  0.0722  0.1224 -0.0526
 4345W        W20154  13.406  12.020   1.078  0.2678 -0.4389 -0.0563
 4346W        W20155  17.274  16.635   0.193  0.1357 -0.1388  0.2407
 4347W        W20156   8.341   7.983  13.095 -0.1690 -0.1080 -0.0419
 4348W        W20157   4.795  11.623   1.206  0.1689 -0.0106 -0.6448
 4349W        W20158  18.302   0.560  11.468  0.0873 -0.1273 -0.0835
 4350W        W20159  15.761   6.917  13.761 -0.4111 -0.0761 -0.2557
 4351W        W20160  14.484   3.102   0.790  0.1651 -0.4112  0.1486
 4352W        W20161  16.886   8.149   2.774 -0.0918  0.0298  0.2807
 4353W        W20162   2.590   8.795  13.955 -0.1405  0.1956 -0.1717
 4354W        W20163  12.436  10.132   1.516 -0.1570  0.1563 -0.1259
 4355W        W20164   2.308  13.361   4.270  0.0339  0.4425 -0.0370
 4356W        W20165   1.231   7.996   2.556 -0.1368  0.3011  0.2043
 4357W        W20166   3.692  18.255   5.332  0.0600 -0.0304  0.1990
 4358W        W20167   4.101   3.580  13.689 -0.0671 -0.4380 -0.1137
 4359W        W20168  12.599   2.741   3.312 -0.0387  0.1417  0.0543
 4360W        W20169  15.198  11.233   1.994  0.3324 -0.2215 -0.0073
 4361W        W20170  10.701   7.787  14.653 -0.0929 -0.0088 -0.0840
 4362W        W20171   4.543   0.765  14.991 -0.0328 -0.2026  0.2615
 4363W        W20172   0.178   0.507  10.402 -0.2213  0.3191  0.0779
 4364W        W20173  14.779   3.405   2.619 -0.0462 -0.0930  0.1591
 4365W        W20174  13.877   7.754   3.695 -0.0189  0.0207 -0.0862
 4366W        W20175  16.991  16.986   3.458  0.2463  0.2466 -0.2269
 4367W        W20176  14.965   3.972   3.453 -0.0536  0.0940  0.2642
 4368W        W20177   4.126   3.177  10.753  0.0360  0.1454  0.1087
 4369W        W20178   0.719   9.119   0.544 -0.0332 -0.3116 -0.0301
 4370W        W20179  11.732  18.846   2.178 -0.2511  0.0158  0.1394
 4371W        W20180   7.960  12.607  14.933  0.1181  0.0941  0.2499
 4372W        W20181   8.749  17.070   5.449  0.1616  0.0825  0.0187
 4373W        W20182  15.055  13.299  14.400 -0.2197 -0.2979 -0.0935
 4374W        W20183  13.342   3.911  14.449 -0.1146 -0.3511  0.2837
 4375W        W20184   6.678   5.652   4.832 -0.2583  0.0669 -0.2716
 4376W        W20185  10.897   9.334   4.453  0.1842 -0.0562  0.2609
 4377W        W20186   3.011  13.662  14.143 -0.4905 -0.2471  0.0355
 4378W        W20187   8.872   7.791  10.194 -0.3665 -0.0461 -0.0766
 4379W        W20188   0.885   8.088  15.193 -0.1001  0.0630  0.0726
 4380W        W20189  14.500   1.859  13.679  0.1113  0.4296  0.0796
 4381W        W20190   8.899  16.770  15.302  0.0557 -0.2195  0.0107
 4382W        W20191   5.995  10.946   0.427 -0.0836  0.0460  0.2038
 4383W        W20192   2.463   1.064  11.560  0.0680  0.0202 -0.1019
 4384W        W20193  12.426   1.569  10.351 -0.0338 -0.2231  0.1332
 4385W        W20194   6.826   1.749   0.776 -0.3774 -0.1112 -0.0137
 4386W        W20195   1.393   4.495   4.077  0.1489 -0.0204 -0.2690
 4387W        W20196   0.579   8.086  13.847  0.0192 -0.3269 -0.0998
 4388W        W20197  15.165   5.802   4.448 -0.3571  0.1234 -0.0229
 4389W        W20198  11.811  14.603  15.123  0.5059  0.1535 -0.4042
 4390W        W20199   0.653   3.891   1.724 -0.2628  0.0728 -0.0586
 4391W        W20200   4.772   3.513  11.958 -0.3809  0.4030  0.0681
 4392W        W20201   1.470  15.489  12.410 -0.1111 -0.1790 -0.4500
 4393W        W20202  15.709   2.880  13.213 -0.1176 -0.0416 -0.2052
 4394W        W20203  16.701  15.259   0.344 -0.1282  0.1095 -0.4187
 4395W        W20204   4.002   9.674  15.242 -0.0797 -0.0680 -0.0040
 4396W        W20205  18.736  13.732   4.425  0.2245  0.2098  0.4127
 4397W        W20206   1.150   1.581  11.780  0.1850 -0.0829 -0.0306
 4398W        W20207  14.477  18.624  11.225 -0.1635  0.2991  0.1308
 4399W        W20208  12.747  15.237  12.899  0.1915  0.1026 -0.3098
 4400W        W20209   9.147   0.167   2.106 -0.0025 -0.3005  0.0070
 4401W        W20210  10.500  12.001  11.416 -0.2441  0.1033 -0.0491
 4402W        W20211  13.154   1.403   0.736 -0.0492 -0.1369 -0.1602
 4403W        W20212   3.096  10.030  14.961  0.0053 -0.2304 -0.2437
 4404W        W20213  15.435   0.391  11.364  0.1157  0.0869 -0.0486
 4405W        W20214   5.877  18.799  13.178 -0.0550  0.0375  0.2324
 4406W        W20215  16.301   6.947  10.685  0.2467  0.2502 -0.1052
 4407W        W20216   2.734  15.157   4.530 -0.1597 -0.0055 -0.0737
 4408W        W20217   6.355   2.479   0.756 -0.2134 -0.0671 -0.2136
 4409W        W20218   8.942  16.110   5.783  0.1113  0.1972 -0.2018
 4410W        W20219  12.383   4.666  10.771  0.3989 -0.3590  0.2111
 4411W        W20220  17.228  13.851   4.557  0.0292 -0.2239  0.2470
 4412W        W20221   9.436   6.954  11.639  0.4070 -0.1589 -0.2650
 4413W        W20222   1.209  15.327  12.054 -0.0672 -0.1081  0.1334
 4414W        W20223   4.932   8.462   1.887 -0.1349  0.0781 -0.2373
 4415W        W20224   7.227   3.473   3.519  0.2018  0.0672 -0.0389
 4416W        W20225   4.307   8.616   1.895  0.2162  0.0823  0.2144
 4417W        W20226   7.327   7.416  13.063  0.3606  0.3992  0.0399
 4418W        W20227  12.391  10.804   4.286  0.2244 -0.0576 -0.1110
 4419W        W20228   8.584  10.203   2.197 -0.0039  0.1934  0.1668
 4420W        W20229  17.841  16.825   4.685 -0.0468 -0.2810  0.0571
 4421W        W20230   2.593   5.354  12.925 -0.2756  0.0799 -0.2069
 4422W        W20231   1.333  13.623  12.988  0.0943 -0.2312 -0.1726
 4423W        W20232  18.898   9.618   1.193 -0.3471 -0.0922 -0.3037
 4424W        W20233   0.614  12.498  13.745  0.1581 -0.0757 -0.3143
 4425W        W20234  15.382   9.656  11.496 -0.0853 -0.0951  0.5758
 4426W        W20235   9.627   0.312  14.118 -0.0160  0.0357  0.2169
 4427W        W20236   4.426  18.754   4.537  0.1842  0.1280  0.1274
 4428W        W20237   7.370  10.916   3.233  0.0828  0.1979  0.1814
 4429W        W20238   7.188   3.086   1.947  0.1372  0.0794  0.1255
 4430W        W20239  14.457   3.988   1.201  0.2092  0.1332 -0.3836
 4431W        W20240  13.608  10.041   1.358  0.0688 -0.1124 -0.1541
 4432W        W20241   9.125   4.531   5.322 -0.1524 -0.0645  0.0402
 4433W        W20242  15.129   6.361   4.361  0.1555 -0.0333 -0.1211
 4434W        W20243  18.348   4.290   3.009  0.0071 -0.1069 -0.5090
 4435W        W20244   2.865  12.141  12.731  0.0114 -0.0780  0.0479
 4436W        W20245   7.113  12.253  12.011 -0.0127  0.2640  0.1668
 4437W        W20246   9.728   6.217   5.298  0.0826 -0.0191  0.0606
 4438W        W20247   3.595  12.226   0.261 -0.4031 -0.0776 -0.2668
 4439W        W20248   9.693   9.719   3.264  0.1756  0.3086  0.0178
 4440W        W20249  16.606   0.190   4.528  0.0662  0.0026 -0.0372
 4441W        W20250  18.593   7.187  13.522  0.2948 -0.1102 -0.0402
 4442W        W20251   2.045  17.213   4.446 -0.1503 -0.3282 -0.0182
 4443W        W20252  12.186  12.400  11.285 -0.2060 -0.0174  0.1033
 4444W        W20253  15.202  10.350  11.686  0.1974 -0.1338 -0.2043
 4445W        W20254   6.493   8.189   4.671 -0.2135 -0.1734  0.0726
 4446W        W20255  15.000  17.130   1.835  0.1184 -0.4268 -0.1062
 4447W        W20256  15.808   9.731  11.739  0.0106  0.2208 -0.1111
 4448W        W20257   6.386   5.303   2.441 -0.0568 -0.3555 -0.2458
 4449W        W20258   2.332  10.483   4.113  0.1227  0.2740  0.0904
 4450W        W20259   2.065   8.143   5.529 -0.3613 -0.1783 -0.4034
 4451W        W20260   3.793  15.218   3.536  0.2367  0.0714 -0.2839
 4452W        W20261  14.728   7.958  14.160  0.1035  0.1000 -0.2561
 4453W        W20262  12.668  17.009   5.705 -0.0255  0.2594  0.0599
 4454W        W20263  14.565  18.432  13.098  0.0081  0.0676  0.0628
 4455W        W20264   2.679   2.323  12.183 -0.3122 -0.1456 -0.0179
 4456W        W20265   7.858   4.887   4.749 -0.3199  0.1049 -0.3388
 4457W        W20266   2.947  10.059   2.845 -0.4961 -0.1414 -0.2866
 4458W        W20267  11.048  18.361  10.968  0.1813 -0.2404 -0.1053
 4459W        W20268  12.074  15.641   3.396  0.2172 -0.0448 -0.0812
 4460W        W20269   7.492  13.927   4.983  0.0202 -0.1389  0.0710
 4461W        W20270  18.633  14.852  11.114 -0.2031  0.2708 -0.0819
 4462W        W20271   6.379   7.859  12.338  0.2186  0.2079 -0.0490
 4463W        W20272   9.637  12.538  14.625 -0.0076  0.0622 -0.3448
 4464W        W20273   8.617  14.659  11.769 -0.2370 -0.1211 -0.2897
 4465W        W20274  15.120  15.875  14.007 -0.3072  0.1183  0.2522
 4466W        W20275   6.432   1.742   9.963  0.3756  0.3789 -0.2306
 4467W        W20276   8.809  14.896   3.064 -0.0498  0.1552 -0.0779
 4468W        W20277  15.799   4.927  10.542  0.0415  0.1431  0.2289
 4469W        W20278  14.086   9.031  14.763 -0.1458  0.2936 -0.1346
 4470W        W20279   2.715  14.816   2.302 -0.0111  0.0276 -0.2817
 4471W        W20280   5.491   4.119   1.043  0.1845  0.0170 -0.2941
 4472W        W20281  15.053  14.771   1.617 -0.2948  0.1848  0.0484
 4473W        W20282  15.837   5.873   0.523 -0.3818 -0.1114  0.3152
 4474W        W20283  14.756   3.455  14.066 -0.2494 -0.0800 -0.1778
 4475W        W20284  16.242   9.625  11.939  0.3232  0.0349 -0.0901
 4476W        W20285  11.580  12.920  12.700  0.1679  0.1283  0.0929
 4477W        W20286  11.901   4.268   4.307 -0.0102 -0.3454 -0.1055
 4478W        W20287   7.927  13.652  12.475  0.1462 -0.0919  0.0712
 4479W        W20288   3.955   0.893   1.531  0.5114  0.1120  0.3422
 4480W        W20289  18.573  15.444   1.042  0.0690  0.1844 -0.1468
 4481W        W20290   6.909   6.662  14.904  0.1333  0.0505 -0.2043
 4482W        W20291  15.354   9.271  14.734 -0.1732 -0.1570  0.2017
 4483W        W20292  18.179  14.624  13.166 -0.1734 -0.2202 -0.2778
 4484W        W20293   5.218   2.932  12.637  0.2220 -0.2010 -0.0672
 4485W        W20294   2.866   0.436   1.447  0.1823  0.1574 -0.1903
 4486W        W20295  18.666   0.715   0.185  0.1496  0.1706  0.2490
 4487W        W20296  12.693   7.360   3.637  0.0960  0.1077  0.0111
 4488W        W20297  18.129   5.673  12.579 -0.1196  0.0624  0.0723
 4489W        W20298  18.899  12.702  10.817 -0.2347 -0.3461  0.0286
 4490W        W20299   5.134   7.535   0.892 -0.0911 -0.1343 -0.1180
 4491W        W20300  16.339  18.226   3.152  0.0406  0.0066  0.2139
 4492W        W20301   7.448  15.883  12.987 -0.0105 -0.2148  0.3051
 4493W        W20302   5.374   1.790  14.438  0.1364 -0.0307  0.3374
 4494W        W20303   1.075   8.247   0.167  0.0874  0.0791  0.2726
 4495W        W20304  12.965  10.753   4.082 -0.1034  0.1488  0.1566
 4496W        W20305   5.716   2.842   2.457  0.0153  0.1957  0.2370
 4497W        W20306  14.007  13.898  12.847  0.3631 -0.2595 -0.0691
 4498W        W20307   1.895  16.361  12.609 -0.3415  0.0974 -0.0294
 4499W        W20308   4.322   4.953  11.875 -0.1246  0.2652  0.2605
 4500W        W20309   0.725   6.542  13.089 -0.0789 -0.2736 -0.4112
 4501W        W20310   8.857   6.397  13.246 -0.0219 -0.2000 -0.1077
 4502W        W20311   0.476   1.023  14.230 -0.1479 -0.3703  0.2367
 4503W        W20312  18.343   1.012  15.424 -0.3191 -0.2191  0.1591
 4504W        W20313  13.250   2.208  10.824 -0.0338  0.0025  0.1056
 4505W        W20314   5.690   4.588  14.479  0.1469  0.1693  0.2830
 4506W        W20315   2.808   2.096  11.214 -0.2584  0.1194 -0.2973
 4507W        W20316  12.807  10.679   5.263 -0.0393 -0.0013  0.1563
 4508W        W20317  17.176   2.306  10.704  0.4130  0.0822  0.2858
 4509W        W20318  14.320   6.664  12.101  0.1109  0.1219 -0.0112
 4510W        W20319   5.540   9.623  14.340 -0.3760  0.3315  0.0564
 4511W        W20320  14.039  16.702   0.667  0.2213  0.1828 -0.3252
 4512W        W20321  12.266  11.951  12.671 -0.1843  0.0940 -0.0726
 4513W        W20322  11.081  15.330  10.906 -0.1009  0.3337 -0.1535
 4514W        W20323   2.573  17.254   4.577  0.3744  0.3903 -0.1965
 4515W        W20324  17.600   0.721  14.852 -0.0882 -0.2590 -0.1417
 4516W        W20325   3.701   5.204   4.570  0.0333  0.2171  0.0750
 4517W        W20326   4.220  15.792   2.216  0.3784 -0.0500 -0.1249
 4518W        W20327  17.421  14.751   0.362  0.0322  0.0625 -0.0651
 4519W        W20328  15.159   1.578  14.814  0.1591 -0.0852 -0.3737
 4520W        W20329  15.203  16.174  15.295 -0.1977  0.1385 -0.2713
 4521W        W20330  11.238   7.983   5.142 -0.0334  0.2952  0.2331
 4522W        W20331  15.539   8.334   0.714 -0.1103  0.2598  0.0384
 4523W        W20332  11.675  16.382   4.150  0.0741  0.1461  0.3744
 4524W        W20333  14.506  13.163  10.456 -0.0830 -0.1694 -0.3359
 4525W        W20334   9.866  15.449   0.712 -0.1595 -0.1598  0.0862
 4526W        W20335  10.252  14.898  13.771 -0.2844  0.1068 -0.0441
 4527W        W20336   6.912   5.119   0.105 -0.1942  0.1317  0.0917
 4528W        W20337   6.694  17.983   0.464  0.1128  0.1656 -0.1643
 4529W        W20338   6.202   8.158  14.928  0.2634  0.3078 -0.1699
 4530W        W20339  13.785  18.484   0.577 -0.0253  0.3552  0.1891
 4531W        W20340  13.268   9.255  11.974 -0.3521  0.1649  0.2049
 4532W        W20341   6.575   5.225   5.140 -0.0763 -0.0911  0.0890
 4533W        W20342  17.994   5.359   4.065  0.0325 -0.2401  0.0740
 4534W        W20343  14.069   1.192   0.953  0.2381  0.0238 -0.0975
 4535W        W20344  16.111  16.454   3.264  0.4056 -0.1854 -0.2644
 4536W        W20345   8.730  14.508  13.661 -0.2732  0.1255  0.0216
 4537W        W20346  16.896   5.307  15.091 -0.1079 -0.3795  0.2988
 4538W        W20347   9.215   9.919   4.582  0.1102  0.5038  0.0351
 4539W        W20348   9.473   3.617   2.337 -0.0128  0.2087  0.0773
 4540W        W20349   9.818  11.357   2.579 -0.0593 -0.3537 -0.0450
 4541W        W20350  12.008   4.245  13.758 -0.2134 -0.1277 -0.4687
 4542W        W20351  14.406  11.612   3.056 -0.4281  0.0445 -0.2252
 4543W        W20352   8.547  10.120   3.098 -0.0423 -0.2310  0.1362
 4544W        W20353  13.873   0.626   5.141  0.0421  0.1120  0.1054
 4545W        W20354   2.189   7.611   3.261  0.0155  0.0848  0.2122
 4546W        W20355   4.842   2.997  12.160  0.2626 -0.2301 -0.0358
 4547W        W20356  18.527  11.249  13.190 -0.1900 -0.1076  0.0770
 4548W        W20357  15.115   6.000   4.025 -0.1196  0.1886  0.0246
 4549W        W20358   8.061   9.591  10.817  0.0525 -0.3433  0.0978
 4550W        W20359  13.573  16.421   3.894 -0.1086 -0.0630 -0.2715
 4551W        W20360   2.622  14.693   3.852 -0.1849  0.3680  0.1241
 4552W        W20361  18.228   3.033   0.202 -0.1644  0.1166 -0.1765
 4553W        W20362   5.840   5.757  14.713 -0.1306  0.0770 -0.1033
 4554W        W20363   2.316   2.078  11.973 -0.0118  0.0923  0.1187
 4555W        W20364  18.795   2.348   1.590  0.2797  0.0708 -0.0163
 4556W        W20365   2.930  17.712   4.465 -0.1164 -0.4457  0.1646
 4557W        W20366  14.391   8.628  10.961  0.1099  0.0228 -0.0798
 4558W        W20367  16.285  10.187   3.709 -0.3551 -0.1692  0.0178
 4559W        W20368  10.134  18.034  15.032  0.4612  0.0720 -0.2613
 4560W        W20369  10.456   4.362  11.646  0.0793 -0.2775  0.1120
 4561W        W20370  13.363  14.954  11.377  0.0390 -0.2667  0.2058
 4562W        W20371  14.571   4.281  10.070  0.0406  0.1493 -0.3044
 4563W        W20372  13.548   7.837   1.433  0.0541  0.1418 -0.0682
 4564W        W20373   6.205   4.582  14.546  0.1676 -0.2028 -0.0105
 4565W        W20374  14.035   4.723   2.778 -0.0819  0.0683 -0.3207
 4566W        W20375   1.031   9.793   2.553 -0.3590  0.0504  0.1285
 4567W        W20376  16.013  10.505   1.519 -0.1881 -0.0140 -0.0785
 4568W        W20377   3.826  13.416   3.051  0.3105  0.1022 -0.0208
 4569W        W20378   2.288   6.787  14.855  0.2433  0.1090 -0.1186
 4570W        W20379  12.404  12.836  14.594 -0.0289 -0.0297  0.1798
 4571W        W20380   4.402  14.899   1.938  0.0256 -0.1064 -0.1430
 4572W        W20381   4.539  18.120   5.019  0.1481  0.1160  0.0450
 4573W        W20382   9.906  12.898  14.760 -0.2021 -0.0424  0.1929
 4574W        W20383   6.714   5.570  12.260  0.0213  0.0484 -0.4615
 4575W        W20384   9.125  12.579   1.206 -0.2836 -0.1451 -0.0017
 4576W        W20385   6.911   4.892  11.447  0.3165 -0.2834  0.0036
 4577W        W20386   8.424  16.507  11.593  0.0102  0.1915  0.1522
 4578W        W20387  14.836   8.067   0.520 -0.0574  0.0667  0.2327
 4579W        W20388  15.004   6.547   1.882  0.4310 -0.0669  0.0000
 4580W        W20389  13.720   7.958   0.328  0.3980 -0.1989  0.3382
 4581W        W20390  16.521  18.666   1.847  0.1582  0.0709  0.0135
 4582W        W20391  17.310   5.371  13.257  0.1126  0.0406 -0.0615
 4583W        W20392  17.107   8.641   2.046  0.1085 -0.0449  0.1256
 4584W        W20393   3.960  17.700  14.490  0.1502  0.0907 -0.0713
 4585W        W20394  17.223   8.042  15.198  0.1233 -0.1824 -0.1544
 4586W        W20395  11.166   5.061   5.029  0.2624 -0.3996 -0.2057
 4587W        W20396   0.319  15.991  13.038 -0.0411  0.1224  0.1510
 4588W        W20397   2.979  18.365  14.059 -0.0080  0.1001 -0.2444
 4589W        W20398   3.055  12.541   2.337 -0.1206  0.0843 -0.0766
 4590W        W20399   6.603  16.927   3.980  0.0100 -0.1783  0.0146
 4591W        W20400  14.877  13.823   9.798  0.1545 -0.0422 -0.2054
 4592W        W20401  17.034   1.511  14.097 -0.0128  0.1273  0.2930
 4593W        W20402   1.702   6.604   2.765 -0.0365  0.1699  0.2162
 4594W        W20403  12.858  17.800  10.407 -0.0783  0.0863 -0.1405
 4595W        W20404   4.189   8.674  11.382  0.1461  0.0717  0.1562
 4596W        W20405  14.473  13.022   1.262 -0.1120  0.0455  0.1692
 4597W        W20406   7.884  16.829  10.519  0.0008 -0.0530 -0.0394
 4598W        W20407   2.337   1.307  14.308  0.2133 -0.3279  0.0857
 4599W        W20408   2.587  10.903   4.885 -0.0724  0.0885  0.2953
 4600W        W20409   2.046  13.145   1.700 -0.0752  0.1266 -0.3494
 4601W        W20410   3.890  12.157  13.220 -0.1085 -0.1294  0.3066
 4602W        W20411  12.409  16.130   2.608  0.1381 -0.2837  0.1313
 4603W        W20412   4.201   1.885   9.715 -0.0625  0.4754 -0.1125
 4604W        W20413  13.458   3.554  13.791  0.1075  0.1730  0.1692
 4605W        W20414  14.936   0.708   3.430  0.1570  0.0946  0.0019
 4606W        W20415   0.428   2.083   3.967 -0.0256  0.3419  0.0478
 4607W        W20416   4.908   5.508  12.948  0.2337  0.3512  0.1204
 4608W        W20417   1.860  10.266  12.207  0.0278  0.3597  0.4949
 4609W        W20418  15.009   1.707   4.355 -0.4149  0.3483 -0.3897
 4610W        W20419   6.695   3.628  13.415 -0.0352 -0.2393 -0.0724
 4611W        W20420  11.880  16.470  15.430  0.2004 -0.1211  0.0827
 4612W        W20421   3.201  17.570   5.079 -0.2846  0.0160  0.1056
 4613W        W20422  14.503  15.263   0.982  0.2443  0.1635 -0.2367
 4614W        W20423   3.089   6.715   3.350  0.1504  0.2173  0.3280
 4615W        W20424  14.183  12.597   2.070  0.0978 -0.2034 -0.0974
 4616W        W20425   7.154  12.129  12.941  0.1249 -0.2166 -0.1581
 4617W        W20426   8.654  12.756  14.411 -0.1117 -0.0118  0.0768
 4618W        W20427   5.859   3.348   2.497 -0.1931 -0.0449  0.2221
 4619W        W20428  15.823   4.241  13.947  0.0287  0.2539 -0.0707
 4620W        W20429   7.096  12.898   2.732  0.2472  0.0581  0.3682
 4621W        W20430  17.788  17.888  14.795  0.0091  0.1217  0.4448
 4622W        W20431  13.033  12.727   4.811 -0.2284  0.2628 -0.0775
 4623W        W20432   6.909   4.259  13.966 -0.2069 -0.2386 -0.2690
 4624W        W20433  10.614   1.267   2.248 -0.0719  0.0739  0.3083
 4625W        W20434  11.916  17.609   1.011  0.0420  0.1882 -0.0199
 4626W        W20435  12.258   2.324  15.216 -0.2406  0.0411  0.3309
 4627W        W20436  12.191  16.183  14.494 -0.2648  0.3755 -0.1983
 4628W        W20437   8.579  15.886   0.877 -0.1663 -0.4506 -0.1631
 4629W        W20438   4.133  12.318  12.225 -0.0806 -0.3181 -0.2477
 4630W        W20439  17.323   8.635  12.529 -0.0107  0.0920  0.0733
 4631W        W20440  15.118  18.250  14.364  0.0282  0.0450  0.0735
 4632W        W20441  10.693   1.568   4.188  0.1720 -0.4974 -0.0199
 4633W        W20442  15.493   5.660  14.482 -0.0720  0.0420 -0.1463
 4634W        W20443   5.836  13.881  14.810 -0.2125 -0.1127 -0.1576
 4635W        W20444   5.457  16.006   1.410  0.1790  0.0500  0.0866
 4636W        W20445  10.543   8.669   4.979  0.0443 -0.0749  0.2509
 4637W        W20446  14.655   2.357   3.295 -0.1110  0.0973  0.2399
 4638W        W20447   7.724   9.004  15.139  0.0837  0.1149 -0.1686
 4639W        W20448   3.959   8.935   1.706 -0.0464  0.1638  0.3822
 4640W        W20449  18.162  14.283  11.504 -0.1581  0.0212  0.0151
 4641W        W20450  10.710  17.332  13.908 -0.1016  0.0916  0.0252
 4642W        W20451  18.867  15.895   4.293  0.0811 -0.2971  0.0881
 4643W        W20452  15.133   8.174  12.890  0.0415  0.0763  0.1984
 4644W        W20453  15.121   6.189   0.974  0.0723  0.1498 -0.0814
 4645W        W20454   3.298  13.995  12.887 -0.0787 -0.1579  0.1770
 4646W        W20455   2.734  17.947  12.936 -0.1802  0.1684  0.2184
 4647W        W20456   0.366  10.278   3.783  0.2550  0.1100 -0.0553
 4648W        W20457   8.458   5.652  14.689  0.0097 -0.0008  0.1341
 4649W        W20458  15.704   9.956   4.568 -0.0368 -0.0983 -0.2125
 4650W        W20459  18.240  12.542  11.642  0.0374  0.1979  0.1785
 4651W        W20460  11.218  12.401  14.331 -0.1176  0.0328  0.3925
 4652W        W20461   9.863  13.080  13.836  0.1936 -0.0377 -0.0319
 4653W        W20462  10.194   8.032  11.803  0.1611  0.2341 -0.1782
 4654W        W20463   6.072   4.501  11.296  0.0276 -0.5049  0.3364
 4655W        W20464   5.050  12.629  12.564  0.0803 -0.2714  0.0919
 4656W        W20465   0.249   9.439   2.863 -0.2667 -0.0784  0.1485
 4657W        W20466  13.986   7.366   5.256 -0.0895 -0.1411 -0.0549
 4658W        W20467   6.507  16.196  10.350  0.0106  0.3902  0.0629
 4659W        W20468   3.439  13.821  13.936 -0.0558 -0.1928  0.0405
 4660W        W20469   2.464  10.477   1.107 -0.1948 -0.1914  0.4066
 4661W        W20470   3.772  13.951   3.207  0.0320 -0.0154 -0.0603
 4662W        W20471   6.484  16.769   1.695 -0.0620  0.3920  0.1560
 4663W        W20472   6.472   7.597   4.448  0.0727 -0.0806 -0.1535
 4664W        W20473  15.588   8.177  13.222 -0.2653  0.3190  0.2768
 4665W        W20474   7.701  13.219  12.681 -0.3273  0.2691  0.2602
 4666W        W20475   6.646   2.722  14.826 -0.1165 -0.1106  0.0360
 4667W        W20476   0.904   8.056  13.329  0.1447 -0.1384 -0.1518
 4668W        W20477   5.437  12.172   0.633  0.1970  0.0136  0.0129
 4669W        W20478   5.839  10.710   2.103  0.2609  0.0616  0.0191
 4670W        W20479   2.491  16.422  14.757  0.0953  0.1838  0.0467
 4671W        W20480   9.545  12.195   3.924  0.2357 -0.2563  0.0345
 4672W        W20481   9.147   3.124   4.070  0.2965 -0.1323 -0.2490
 4673W        W20482   7.369  12.005   4.784 -0.1847  0.1184  0.1184
 4674W        W20483  16.201  14.261  10.472 -0.2706  0.2559 -0.3389
 4675W        W20484   0.422  15.220   2.947 -0.2624  0.0201  0.0662
 4676W        W20485   0.343  13.051  14.942 -0.0541 -0.1492  0.1395
 4677W        W20486   8.148   7.488   1.217  0.0050 -0.1112 -0.2382
 4678W        W20487   7.666  10.161  15.360 -0.1345 -0.1917 -0.5311
 4679W        W20488   8.088  17.235   2.830 -0.3889  0.0630 -0.1774
 4680W        W20489  11.332   0.907   3.749  0.3151 -0.0116  0.1640
 4681W        W20490  17.217   4.342   1.268 -0.0794  0.0550 -0.0244
 4682W        W20491   7.034   6.804   1.205 -0.1588 -0.1007  0.2805
 4683W        W20492   9.320  10.505  11.780 -0.0970  0.1165  0.0618
 4684W        W20493  18.425   3.157   0.702  0.1133 -0.0552 -0.0684
 4685W        W20494   2.440  18.633   3.200 -0.4007  0.2525  0.2004
 4686W        W20495   8.714   1.178   3.859 -0.1325 -0.3911  0.0321
 4687W        W20496   4.253   9.535   5.090 -0.1773 -0.4309  0.2458
 4688W        W20497   0.499  17.716  14.373  0.1498 -0.0716  0.1671
 4689W        W20498   9.841  15.214  13.986  0.1526 -0.0649  0.0074
 4690W        W20499  10.408   0.305   2.427  0.2123 -0.2938  0.2780
 4691W        W20500  17.884  13.367   4.077 -0.2507  0.0013 -0.2659
 4692W        W20501  17.511   3.784   1.904  0.3153  0.0239  0.3588
 4693W        W20502   9.898  16.911  13.757  0.0046  0.1765 -0.0190
 4694W        W20503  15.754   7.421   0.819  0.1604  0.4933  0.5364
 4695W        W20504  13.873   2.209  11.256 -0.0762 -0.1463 -0.1127
 4696W        W20505  18.473  16.718   0.996 -0.1288 -0.2552 -0.0746
 4697W        W20506  14.482   2.724  15.411 -0.0472 -0.4159  0.1269
 4698W        W20507  16.469   7.983  13.323 -0.3769 -0.0765 -0.0490
 4699W        W20508  11.457   3.339  11.672 -0.1755 -0.0098  0.1889
 4700W        W20509   8.954  10.942   2.121  0.0650 -0.2533 -0.2921
 4701W        W20510   7.769   6.499  13.197  0.0835  0.0929 -0.0085
 4702W        W20511   1.882   3.247   1.818  0.0202 -0.2479 -0.3820
 4703W        W20512   8.813   5.943   5.327  0.0399 -0.2383  0.1132
 4704W        W20513   0.971  13.393  12.766 -0.0099  0.2272 -0.2058
 4705W        W20514   9.879   2.141  12.489 -0.0732 -0.0077 -0.1271
 4706W        W20515  18.889   7.344   4.737 -0.1567 -0.2383  0.0609
 4707W        W20516   1.323   2.623   1.820 -0.1547 -0.1830 -0.0709
 4708W        W20517  10.338  17.060   0.219 -0.1030 -0.1255 -0.1329
 4709W        W20518   3.901  12.810  13.156 -0.3012  0.1378 -0.1100
 4710W        W20519   3.985   3.571   0.519  0.3011  0.0911 -0.2737
 4711W        W20520   7.882  16.677   3.904  0.3698  0.3285  0.2155
 4712W        W20521  15.387   1.766   1.410 -0.2149 -0.0998 -0.1994
 4713W        W20522   6.803   1.386   2.534 -0.2000  0.1102 -0.0766
 4714W        W20523   1.583   4.424   4.612  0.2838 -0.0263  0.0849
 4715W        W20524  14.627  17.962   4.442 -0.1188 -0.0160  0.0326
 4716W        W20525   8.508   9.883  10.737  0.1212 -0.0431 -0.2123
 4717W        W20526   8.115  13.583   0.546 -0.2781 -0.1148  0.2200
 4718W        W20527  17.684  14.233   4.456  0.3903  0.2303 -0.0266
 4719W        W20528   1.150   1.854   0.234 -0.2174 -0.0760  0.2276
 4720W        W20529  13.383  18.729   0.847 -0.2727 -0.1942 -0.3004
 4721W        W20530   3.298   5.578   9.507  0.0394  0.0252  0.1455
 4722W        W20531   0.370  16.978  11.675  0.0461 -0.2228  0.4584
 4723W        W20532   5.153  15.595  14.230 -0.3492 -0.0390 -0.1100
 4724W        W20533   6.529  15.892  14.603  0.1364  0.0087 -0.2288
 4725W        W20534  16.893   5.320  11.217  0.0951 -0.0808  0.2347
 4726W        W20535   8.678   6.293  13.777 -0.1955 -0.4255 -0.0928
 4727W        W20536  14.659   2.893   3.350  0.2748  0.0670  0.2308
 4728W        W20537  11.531   6.987   0.363 -0.0597 -0.0005 -0.0503
 4729W        W20538   3.622   5.847   2.343  0.0561 -0.0258 -0.0058
 4730W        W20539   5.951   3.705  11.546  0.0333  0.0386  0.0507
 4731W        W20540   3.216   7.718   0.177 -0.1160  0.2066  0.0025
 4732W        W20541   3.107  11.333   4.322 -0.0321  0.1378  0.1883
 4733W        W20542   9.939   1.625  14.772 -0.2021  0.1756 -0.3339
 4734W        W20543  14.346   5.749   3.601  0.0115 -0.4774 -0.0600
 4735W        W20544   6.505   2.804   4.593 -0.0278 -0.5369 -0.2206
 4736W        W20545  16.418  11.793  10.516  0.3334  0.0623  0.2204
 4737W        W20546   8.406   6.573  15.261 -0.2114  0.0654  0.0408
 4738W        W20547   3.778   1.401  12.771  0.1957 -0.2569  0.0355
 4739W        W20548   1.614  16.702  14.183 -0.3558  0.2325  0.2676
 4740W        W20549  16.366   6.514   1.268  0.1943  0.0169  0.0063
 4741W        W20550  12.443  11.280  11.351  0.1213 -0.2163 -0.0365
 4742W        W20551  13.683   9.070  11.692  0.4724 -0.2052 -0.0045
 4743W        W20552  14.516   7.317  13.184 -0.2144 -0.1883  0.2447
 4744W        W20553   0.370   8.251   1.905  0.1228  0.0517  0.0961
 4745W        W20554   8.739  13.023   1.179  0.6451 -0.0242 -0.2198
 4746W        W20555   2.294   9.322   3.576  0.0571 -0.2124  0.0498
 4747W        W20556  17.572  15.395   2.140  0.3003 -0.1283  0.4413
 4748W        W20557   8.207   4.066   4.380  0.3902 -0.3034 -0.0387
 4749W        W20558   5.806   1.869  11.660  0.0250  0.0225  0.1358
 4750W        W20559  10.009   4.179   3.037  0.2665 -0.1373  0.0909
 4751W        W20560  12.430  13.636   3.855 -0.1437 -0.1966  0.0358
 4752W        W20561  17.934   7.646   3.078 -0.1112  0.0073 -0.2036
 4753W        W20562  18.373  10.157   2.305 -0.1106 -0.0642 -0.0687
 4754W        W20563   4.108  16.689  11.096  0.0169 -0.0622  0.4081
 4755W        W20564   0.692  17.785  10.933 -0.1929 -0.0477 -0.0570
 4756W        W20565  15.010  17.315  11.261  0.2691 -0.1358 -0.1017
 4757W        W20566  11.439  15.449  11.717  0.0016 -0.0252  0.1723
 4758W        W20567   9.630   9.210   3.066 -0.0001  0.0437  0.1962
 4759W        W20568   1.358  12.713   3.272  0.2641 -0.0770  0.0145
 4760W        W20569  18.690   9.174   0.732 -0.0461 -0.0620  0.1091
 4761W        W20570   5.458  15.727  11.315 -0.0755  0.0347  0.1189
 4762W        W20571  15.089  10.048  14.474  0.1807  0.0747  0.0899
 4763W        W20572  18.532  18.386   2.658  0.0359 -0.0377  0.1095
 4764W        W20573   5.399  15.311   3.413  0.0080 -0.0208 -0.2192
 4765W        W20574   7.047   2.615   1.850 -0.2536  0.4412 -0.0826
 4766W        W20575  17.504   8.413  15.401  0.1065  0.0560 -0.1554
 4767W        W20576   2.704  16.660  13.156 -0.2431  0.0606 -0.0377
 4768W        W20577   6.551  12.234   0.386  0.1622 -0.3055  0.0100
 4769W        W20578   0.031   7.811  13.117  0.0181  0.0766  0.0884
 4770W        W20579   5.590  15.633   0.333 -0.2462 -0.2627 -0.0763
 4771W        W20580   7.426  18.141  14.274  0.2479 -0.1015  0.0284
 4772W        W20581  17.181   2.280  13.227 -0.1522 -0.2121  0.2252
 4773W        W20582   4.611   6.048   0.123  0.1607  0.0669  0.2146
 4774W        W20583   6.239   9.036  12.910 -0.0864 -0.2870 -0.2091
 4775W        W20584   2.651   7.056   1.576 -0.2096 -0.3180 -0.1513
 4776W        W20585   6.623  15.766  10.698 -0.5439 -0.0575  0.1953
 4777W        W20586  16.218   8.865  13.732 -0.2450  0.0608  0.0070
 4778W        W20587  12.932  13.105   3.365  0.3179 -0.0556  0.1405
 4779W        W20588   6.740   4.754  14.703  0.1347 -0.1514  0.2047
 4780W        W20589   7.939   8.144   1.963  0.3209  0.0594 -0.1400
 4781W        W20590   0.327   2.473   2.725 -0.1461  0.3815  0.1111
 4782W        W20591   3.146   2.245  13.096  0.2094 -0.0177  0.0020
 4783W        W20592   2.193   7.920  14.726  0.0052 -0.0098  0.0037
 4784W        W20593   6.728   9.365   4.370  0.1769  0.3958  0.0910
 4785W        W20594   3.605  11.239   5.579  0.2103  0.0194 -0.0065
 4786W        W20595   7.839   0.201   2.716 -0.1751  0.1830  0.0333
 4787W        W20596  15.962   9.624  13.551  0.0900  0.2925  0.3508
 4788W        W20597  14.086   9.433  10.680 -0.0916  0.0429  0.0781
 4789W        W20598  14.219  10.540   0.657 -0.0189 -0.0339  0.1677
 4790W        W20599  11.182   1.741  12.669 -0.2604  0.0399 -0.3191
 4791W        W20600   7.314  13.032   0.487  0.0105 -0.0134  0.2184
 4792W        W20601   5.387   5.750   0.156 -0.0922  0.0958 -0.2315
 4793W        W20602  15.538   1.538   0.413  0.1649  0.0483 -0.4600
 4794W        W20603   8.449   3.671  13.953 -0.1854 -0.1567 -0.2747
 4795W        W20604  11.522   9.424   4.290  0.1433  0.2474  0.1186
 4796W        W20605   4.503  11.621   1.660  0.2470  0.4299  0.1503
 4797W        W20606   8.335   7.643  15.071 -0.1848  0.0499  0.3704
 4798W        W20607   7.881  12.891   4.299 -0.2206 -0.2175 -0.3481
 4799W        W20608   1.085   8.342  10.936 -0.0584 -0.1564 -0.1267
 4800W        W20609   8.027  14.772  11.168  0.1651 -0.0370 -0.1811
 4801W        W20610   0.091  18.403   4.472 -0.1141 -0.2803  0.1107
 4802W        W20611   7.701   0.725   2.068 -0.1682 -0.0826  0.3331
 4803W        W20612   1.312   9.795   0.995 -0.0800 -0.1751  0.1071
 4804W        W20613   5.320   5.020  14.385 -0.1335  0.2009 -0.0661
 4805W        W20614   8.710  11.127  12.109 -0.0496 -0.1120  0.1076
 4806W        W20615  18.582   1.142  11.940 -0.1328 -0.2621  0.4232
 4807W        W20616   9.433   0.400   3.965 -0.4248  0.0483 -0.0793
 4808W        W20617   0.960  15.547   3.608  0.1831  0.0485 -0.0181
 4809W        W20618  14.026   8.021  10.603 -0.0436  0.2540 -0.0923
 4810W        W20619  14.365   6.315  13.547 -0.0135  0.2778 -0.1687
 4811W        W20620  14.067  18.216  11.700  0.0613 -0.3035  0.0783
 4812W        W20621   1.932   8.405  12.474 -0.2496  0.2509 -0.2173
 4813W        W20622  18.073  11.446   5.487 -0.0961 -0.0477  0.1915
 4814W        W20623   6.750   7.889  14.333  0.2161 -0.1673  0.1818
 4815W        W20624  17.050   4.772   1.393  0.0381  0.2062  0.1153
 4816W        W20625  10.465  11.243   2.418  0.0580 -0.1665 -0.2567
 4817W        W20626   3.460   9.280   1.104 -0.3246 -0.0160  0.4631
 4818W        W20627   7.198  11.933  14.176 -0.2539  0.0060  0.1180
 4819W        W20628   0.839   3.959   5.874 -0.0118  0.1822 -0.0269
 4820W        W20629   5.579   6.850  15.257 -0.0416 -0.1469 -0.5446
 4821W        W20630  18.820  15.647   1.806 -0.2210 -0.0032 -0.2221
 4822W        W20631   7.460  17.803   5.053  0.1053  0.0879  0.1947
 4823W        W20632  17.635   6.703   2.586 -0.1007  0.0387 -0.1085
 4824W        W20633   0.732   2.704   0.510 -0.4055 -0.0626 -0.1963
 4825W        W20634  17.448   8.597  10.939 -0.1853 -0.3820 -0.0611
 4826W        W20635   2.779   7.676   1.458  0.1975  0.0362  0.0541
 4827W        W20636  11.845  12.708   0.713 -0.2683  0.1535 -0.1518
 4828W        W20637   4.669   2.960  12.779 -0.0025 -0.0090 -0.0077
 4829W        W20638   6.125  13.736  11.417  0.1949  0.1695 -0.1274
 4830W        W20639   9.994  13.497  10.674  0.2200 -0.0243  0.1376
 4831W        W20640   7.030   6.417   4.143  0.1733  0.0076  0.0106
 4832W        W20641  16.929   2.221   4.503  0.0725 -0.1089  0.0113
 4833W        W20642   5.545   7.898   1.393 -0.1135 -0.1105 -0.0288
 4834W        W20643  17.112  16.310  12.878  0.1121  0.0310  0.2511
 4835W        W20644  10.157   9.838  10.815  0.1708  0.1589  0.3217
 4836W        W20645   2.968   8.415  11.911 -0.1115 -0.0450 -0.0007
 4837W        W20646  13.897   4.928   4.185  0.2377  0.1304  0.4546
 4838W        W20647   5.481   0.372  12.400 -0.2613  0.1424  0.0859
 4839W        W20648  12.937   9.264   3.066 -0.1487  0.1577  0.0402
 4840W        W20649  17.675   7.382   2.009  0.1957 -0.0262  0.0858
 4841W        W20650   2.869  18.485  10.974 -0.0022 -0.1299 -0.0214
 4842W        W20651   8.495   3.361  14.361 -0.0216 -0.1418  0.0190
 4843W        W20652  15.661  16.630   2.193  0.1056 -0.1390  0.2310
 4844W        W20653  18.627  17.061  13.907 -0.0796  0.1018  0.1913
 4845W        W20654   4.204  10.527   3.901  0.0650 -0.1189 -0.2279
 4846W        W20655   2.317   1.021   3.797  0.1896 -0.1207 -0.1083
 4847W        W20656   1.408   8.180   4.353 -0.4828 -0.1663  0.1047
 4848W        W20657  12.355  10.182  11.944  0.0471 -0.2557  0.0107
 4849W        W20658  16.104   9.130   2.810  0.0499 -0.0847 -0.1529
 4850W        W20659  10.338   4.765   0.820  0.0684  0.1946 -0.2004
 4851W        W20660   2.769  17.497  13.756 -0.1578 -0.0851 -0.3509
 4852W        W20661  14.149   9.257  11.184 -0.2388  0.0224 -0.3144
 4853W        W20662  13.272   7.289   1.249 -0.0225  0.2905  0.1890
 4854W        W20663  17.183   2.150   4.996 -0.2976  0.1520  0.0982
 4855W        W20664   7.310  10.644   4.388 -0.1853 -0.1358 -0.1656
 4856W        W20665   7.112   7.121  14.756  0.2146  0.0044 -0.3466
 4857W        W20666   5.265   6.684   5.495 -0.0310 -0.0254  0.0957
 4858W        W20667   4.300  15.357  14.015  0.0028 -0.0408  0.0573
 4859W        W20668  18.201   7.967   2.376 -0.3703 -0.1954  0.0265
 4860W        W20669  17.654  16.218  12.266  0.1027 -0.1782  0.3914
 4861W        W20670  17.954   2.893  14.241  0.0615 -0.4574  0.1746
 4862W        W20671  10.340  18.390  12.777 -0.0227  0.4460 -0.2868
 4863W        W20672   9.693  18.503   1.619 -0.2650 -0.0297 -0.3183
 4864W        W20673  18.003   4.735   4.702 -0.0990 -0.1929 -0.1497
 4865W        W20674  18.767   1.949  13.636  0.0345 -0.2844 -0.1509
 4866W        W20675   6.990   0.240  12.624  0.3144 -0.1606  0.1043
 4867W        W20676  10.663  15.925   2.174 -0.1449 -0.0631 -0.2378
 4868W        W20677  18.619   4.201   3.425 -0.1710 -0.0163  0.2577
 4869W        W20678   8.656   6.672  14.776 -0.1301  0.2017 -0.0102
 4870W        W20679   4.867   5.924   3.494  0.1961 -0.0461  0.1140
 4871W        W20680  11.468   2.528   0.303  0.0123 -0.1045  0.1854
 4872W        W20681  13.145   5.455  11.563  0.1007  0.1775 -0.1160
 4873W        W20682   2.162  18.732  13.612  0.1069  0.1861  0.1273
 4874W        W20683  18.765  16.422  12.396  0.2195 -0.4343 -0.0424
 4875W        W20684   0.047  10.552  14.329  0.2876 -0.2078  0.0154
 4876W        W20685   2.265   8.319   2.673 -0.1610  0.0978 -0.0882
 4877W        W20686   3.038  16.254   4.117  0.2264 -0.0555 -0.0035
 4878W        W20687  11.272   3.423   4.901  0.4455  0.2450 -0.1263
 4879W        W20688   9.762  14.005  10.480  0.3561  0.2037 -0.2822
 4880W        W20689  11.325   4.358  14.829  0.1416  0.2274  0.2074
 4881W        W20690  16.566  17.405  13.095  0.0501 -0.2308 -0.1545
 4882W        W20691   1.783  15.711  14.340  0.2188  0.0361 -0.3844
 4883W        W20692   4.962  15.742   0.837  0.0324 -0.0454  0.2599
 4884W        W20693   4.243   4.894  13.566 -0.1108  0.0106  0.0371
 4885W        W20694   8.248  15.512  10.563  0.2059 -0.2365  0.0488
 4886W        W20695   5.885   3.048   2.931  0.0526  0.1226 -0.1810
 4887W        W20696  15.232  15.832   0.326  0.1282 -0.0722  0.0845
 4888W        W20697   0.812   9.357  14.115  0.1227 -0.1818  0.0690
 4889W        W20698   5.913   0.149   0.831 -0.2060 -0.4069 -0.2127
 4890W        W20699  16.657   4.065   3.684 -0.3289 -0.0944  0.0637
 4891W        W20700  14.143   4.868   1.425  0.3718 -0.4531  0.1767
 4892W        W20701   1.986   4.149  14.798  0.0598  0.0110  0.0684
 4893W        W20702  11.103  14.411  11.933  0.1543 -0.0854  0.1474
 4894W        W20703  11.966   0.798  12.236 -0.0711  0.0409  0.1819
 4895W        W20704   5.761   5.090  13.292 -0.2277 -0.0643  0.3910
 4896W        W20705  14.995   9.463   9.841  0.0014 -0.0598  0.0524
 4897W        W20706   8.135   2.060  11.500  0.0677  0.0857 -0.0485
 4898W        W20707   7.239  15.921   0.740  0.1051 -0.1798 -0.3302
 4899W        W20708  14.019  17.497   3.299  0.0160 -0.1861  0.0247
 4900W        W20709   5.176  15.840   1.967  0.0555 -0.3668 -0.0046
 4901W        W20710   5.968  13.473  13.911  0.3179  0.2846 -0.2387
 4902W        W20711   3.872  17.306  12.772 -0.1297 -0.0455 -0.2586
 4903W        W20712   6.287   2.473  13.787 -0.0354  0.2842  0.1858
 4904W        W20713   7.078   2.874  14.272 -0.0627 -0.0066  0.1624
 4905W        W20714   0.584   1.662  12.654  0.1108 -0.1466  0.2781
 4906W        W20715   4.003   1.926   3.299  0.2581 -0.0137  0.1605
 4907W        W20716   7.193   9.258   4.280 -0.1163  0.0932 -0.2245
 4908W        W20717  15.558   3.049  12.642  0.2931 -0.0501 -0.0589
 4909W        W20718  17.700  16.855   0.522 -0.0102 -0.3343 -0.1381
 4910W        W20719   2.751   1.016   1.646 -0.2031 -0.0682 -0.1384
 4911W        W20720  17.518  14.663   0.840  0.2454 -0.0707 -0.3755
 4912W        W20721  11.141  13.819   3.816  0.0295 -0.3527 -0.0484
 4913W        W20722  13.788   5.800  11.979 -0.0422 -0.0213  0.1291
 4914W        W20723   1.120   0.523  14.114  0.2507 -0.2193  0.0564
 4915W        W20724  14.326  16.819   1.109 -0.0325  0.1072 -0.0541
 4916W        W20725   1.842  18.199  13.837  0.0235 -0.1617  0.0281
 4917W        W20726   6.218   8.420   2.887  0.1884  0.0741 -0.1775
 4918W        W20727   1.177  12.496  13.797  0.2250  0.4138  0.0143
 4919W        W20728   5.499   3.565  10.761  0.1520 -0.2859 -0.0298
 4920W        W20729   8.191   7.485  11.006 -0.0223  0.0182  0.3557
 4921W        W20730   5.094  12.744  10.922  0.0370 -0.0718 -0.0268
 4922W        W20731   5.974  13.982  10.050  0.2845 -0.2842 -0.0673
 4923W        W20732  14.393  12.336   3.046  0.0614 -0.0118 -0.3664
 4924W        W20733  10.253  13.876   2.726 -0.1978  0.3460 -0.1846
 4925W        W20734   1.849  12.827   3.123  0.1734 -0.1109  0.3694
 4926W        W20735  16.126  15.479   2.567 -0.1135 -0.1567  0.0592
 4927W        W20736   2.477   7.232   0.590  0.0694 -0.1908  0.2307
 4928W        W20737  13.172  16.248   3.039  0.4830  0.1468  0.0481
 4929W        W20738   8.209   3.723   0.397 -0.0859 -0.1346  0.1289
 4930W        W20739  16.763   4.551  14.870 -0.0659  0.1288  0.2910
 4931W        W20740   7.062   6.927  13.205  0.2642  0.0569 -0.0646
 4932W        W20741  14.589   4.269  14.564 -0.3273 -0.0787  0.1175
 4933W        W20742   3.630  11.509  15.241 -0.0988  0.0535  0.0819
 4934W        W20743   3.799   4.589   3.704  0.1267  0.0450  0.2417
 4935W        W20744   5.673   9.906   9.861 -0.0745 -0.1115  0.1100
 4936W        W20745   2.008  11.802   4.919 -0.2601  0.2305 -0.2087
 4937W        W20746   5.545   4.049  12.432 -0.0389  0.0421 -0.1225
 4938W        W20747   8.681   1.703  12.040  0.0273 -0.0527 -0.0084
 4939W        W20748  16.695   8.206  12.503  0.1746 -0.1512 -0.2942
 4940W        W20749   6.189   7.543   9.658 -0.0941 -0.1618  0.1362
 4941W        W20750   1.105   1.365   4.710  0.1620  0.0842  0.0874
 4942W        W20751  14.581  10.325  13.618 -0.1462 -0.0833  0.0361
 4943W        W20752  16.257   6.657   2.500  0.4078  0.0668  0.3153
 4944W        W20753   3.856  13.756   4.385  0.2815 -0.3941  0.1681
 4945W        W20754  13.933   2.282   3.689 -0.2370 -0.3217 -0.1703
 4946W        W20755  12.714  15.974   2.928  0.1199  0.0756  0.1232
 4947W        W20756   0.427   3.347  15.144 -0.0259  0.0241 -0.1813
 4948W        W20757  14.206   9.061   4.533  0.2184  0.0258 -0.3513
 4949W        W20758  11.112   3.607   1.043  0.1943  0.0577 -0.3724
 4950W        W20759  17.566   3.203  14.616 -0.0479  0.1554 -0.0938
 4951W        W20760  12.228  12.524  10.719 -0.3203 -0.1164  0.2050
 4952W        W20761   3.737   0.297   0.234  0.0186  0.1010  0.1643
 4953W        W20762   9.711  16.045   2.855  0.1037 -0.1811  0.0853
 4954W        W20763   7.366  12.422  13.331 -0.5922  0.1878 -0.0556
 4955W        W20764  11.398   0.332   1.810 -0.2307  0.2274 -0.1360
 4956W        W20765  11.998  13.276   4.443  0.1267 -0.1315 -0.0714
 4957W        W20766   1.665   0.953  14.666 -0.1001  0.0366  0.0985
 4958W        W20767   5.121   9.739  10.417 -0.2598 -0.1202  0.1948
 4959W        W20768   7.838   9.122   1.912 -0.0113  0.0908  0.3663
 4960W        W20769  12.161   2.415   0.863 -0.2342  0.5543 -0.2041
 4961W        W20770  16.888  16.886   4.497  0.0740 -0.0823 -0.2569
 4962W        W20771   3.743   0.797   0.481  0.0368 -0.0988  0.1724
 4963W        W20772   5.948   0.072  14.675  0.0506 -0.1980  0.0196
 4964W        W20773  11.815   7.823   5.713 -0.0850 -0.0141  0.1791
 4965W        W20774  13.362  10.781  14.173 -0.2454 -0.1240  0.4199
 4966W        W20775  17.240  18.369   0.127  0.0576  0.2959 -0.0229
 4967W        W20776   8.293  11.005  10.667  0.4129 -0.0368  0.0510
 4968W        W20777   4.937  11.995   4.905  0.3879  0.2401 -0.0352
 4969W        W20778  11.767   0.030   1.552  0.2923 -0.3374 -0.0144
 4970W        W20779   4.515  16.640  13.128  0.2366  0.4433  0.3628
 4971W        W20780  15.612  13.123   3.229  0.1672  0.3252 -0.0845
 4972W        W20781  17.466   6.435  14.542 -0.1034  0.2725  0.0138
 4973W        W20782   9.875  15.690   3.651  0.1263 -0.0870 -0.1738
 4974W        W20783   3.711  11.788  10.941  0.2232 -0.0829 -0.3785
 4975W        W20784   1.679   8.294   1.096  0.0540  0.0461 -0.3077
 4976W        W20785  15.373  17.396  14.638  0.0518 -0.3932 -0.1452
 4977W        W20786  11.438   8.372  12.233  0.0023 -0.0294 -0.2168
 4978W        W20787  12.444   6.440  10.820  0.0220  0.0769  0.1672
 4979W        W20788  16.867   3.466  15.211 -0.1441 -0.0724  0.0902
 4980W        W20789  15.054   9.181  12.213  0.0559  0.1424  0.2815
 4981W        W20790  14.496  14.848  14.811 -0.0499  0.0250  0.2122
 4982W        W20791   8.506  11.481  13.592 -0.3203  0.0681  0.1331
 4983W        W20792  17.823  11.294   4.080 -0.1211 -0.0122 -0.0975
 4984W        W20793  12.979  14.595  13.355  0.0961 -0.1447  0.0954
 4985W        W20794  11.807   0.607  13.273  0.0583  0.2851 -0.2266
 4986W        W20795   9.112   8.629   1.439 -0.1317  0.1659 -0.2298
 4987W        W20796   6.982   9.536  10.818  0.2167 -0.1532 -0.0211
 4988W        W20797  13.455   0.852   0.076  0.0705  0.1924 -0.1177
 4989W        W20798  11.958  15.925   2.669  0.0186 -0.0973 -0.0273
 4990W        W20799   6.745  13.751   2.862 -0.0075  0.0013  0.0282
 4991W        W20800   5.087  14.649  15.324  0.0913 -0.0047 -0.0918
 4992W        W20801   3.493   2.758  15.285  0.2264 -0.5423  0.0574
 4993W        W20802   8.105   3.412  11.454  0.2243 -0.0637  0.1185
 4994W        W20803  10.259   5.746  13.012 -0.2244 -0.2049  0.0159
 4995W        W20804   0.618  15.773  14.280  0.4364  0.3529  0.0013
 4996W        W20805  16.890  14.775   2.067 -0.1515  0.1651  0.1634
 4997W        W20806   9.280   3.676  14.849  0.0995 -0.1624 -0.1712
 4998W        W20807   9.706   1.155  13.000 -0.2734 -0.2851 -0.2200
 4999W        W20808  15.072   1.361   4.768  0.1404  0.1445 -0.1473
 5000W        W20809  15.198  11.958   4.716  0.0194 -0.1098  0.0047
 5001W        W20810   5.037  11.688   1.921  0.1918 -0.0329  0.2383
 5002W        W20811   3.167  10.564  12.149 -0.2683 -0.3241 -0.0916
 5003W        W20812  10.711   3.994   1.774 -0.0735 -0.0492  0.0918
 5004W        W20813  12.681   9.423  15.336 -0.1452  0.0360  0.3707
 5005W        W20814   4.766  13.826  14.980  0.1430  0.1858 -0.0113
 5006W        W20815   4.779   2.857   2.577  0.1696 -0.0078 -0.3206
 5007W        W20816   6.683  18.760  14.126 -0.0534 -0.0025  0.0508
 5008W        W20817   7.312  17.550  11.935  0.1768 -0.1935 -0.0745
 5009W        W20818   0.291   3.915   2.888  0.2240  0.2027  0.2391
 5010W        W20819  17.279  14.218   3.145 -0.0482 -0.1602  0.1245
 5011W        W20820  16.287  18.783  12.176  0.1005 -0.0269 -0.1130
 5012W        W20821  10.555  12.889  14.604 -0.0991 -0.2432  0.2262
 5013W        W20822  10.426  17.939   0.026 -0.2762  0.2752  0.0502
 5014W        W20823  12.779  12.211   3.094  0.1377 -0.2134  0.0380
 5015W        W20824  13.987   1.811  13.498  0.0797 -0.1213 -0.2804
 5016W        W20825   2.662   7.974  12.197 -0.0535 -0.2183 -0.1097
 5017W        W20826  13.463   4.269   3.976 -0.1029 -0.0727 -0.0933
 5018W        W20827  14.160   5.228  13.606 -0.1093  0.0383  0.1870
 5019W        W20828  11.427   3.854  11.798 -0.1183  0.0669  0.4593
 5020W        W20829   3.893   1.849  12.578  0.0927 -0.0586 -0.1948
 5021W        W20830  10.874  17.865   0.468 -0.3053  0.1214  0.0557
 5022W        W20831  12.735  13.904  12.568  0.1759  0.2831 -0.3542
 5023W        W20832  17.527   3.989  11.216  0.1043  0.1976  0.0089
 5024W        W20833   8.693  16.582   3.771 -0.0225 -0.0440 -0.0959
 5025W        W20834   5.732  15.940  10.927 -0.0070  0.2398  0.0421
 5026W        W20835   9.861  12.223   1.395 -0.2296  0.0648  0.2059
 5027W        W20836   6.647  11.169   2.479  0.0321  0.0988  0.0308
 5028W        W20837   4.924  18.343  12.921  0.0929 -0.3417 -0.1235
 5029W        W20838   7.161   6.623   2.262  0.2398  0.1172 -0.0188
 5030W        W20839   3.675   0.459   4.025  0.2134  0.2278 -0.0953
 5031W        W20840  14.742   2.038   4.702  0.2578  0.0304  0.3071
 5032W        W20841  16.545  15.595   1.565 -0.0065 -0.2800 -0.1809
 5033W        W20842  12.468   4.290  14.641  0.0155 -0.1787  0.0155
 5034W        W20843   8.533  15.871   0.373  0.3399  0.3481 -0.0876
 5035W        W20844   7.795   9.204  13.878 -0.0721 -0.1646  0.0871
 5036W        W20845  17.575  13.284  13.467  0.0777 -0.0494  0.1873
 5037W        W20846  16.554  15.118  11.290  0.1258 -0.1386  0.0640
 5038W        W20847   7.246   8.244  10.243 -0.1799 -0.2256 -0.1841
 5039W        W20848  14.307  13.222  14.900 -0.0049  0.0647 -0.1004
 5040W        W20849  17.027   5.869  12.537 -0.0503  0.1820 -0.1051
 5041W        W20850  15.940  17.881  13.039 -0.4367 -0.2416  0.2353
 5042W        W20851   4.434   8.650   2.763  0.4430 -0.2221 -0.0752
 5043W        W20852   6.986   2.548  11.787  0.1333  0.3027 -0.1226
 5044W        W20853   3.530  15.932   1.674 -0.0557  0.0459  0.2430
 5045W        W20854   7.764  10.411  13.399 -0.1890  0.3342 -0.0228
 5046W        W20855  18.397  16.455   2.531  0.0393 -0.2332  0.1781
 5047W        W20856  17.864   4.708   1.026 -0.0872  0.3273 -0.1101
 5048W        W20857  10.130   7.824   0.292 -0.0872  0.1830 -0.0140
 5049W        W20858  10.342   4.095   1.398  0.3673 -0.1095 -0.0620
 5050W        W20859   7.267   2.937   2.445 -0.0691  0.0633 -0.1164
 5051W        W20860   5.306  16.442  13.638 -0.1190  0.0774  0.1711
 5052W        W20861  16.667  16.526  12.596 -0.0519 -0.2376  0.0085
 5053W        W20862  17.552  12.625   3.750 -0.1977  0.1110  0.2577
 5054W        W20863   2.429   7.478  11.088  0.0828  0.0491  0.1655
 5055W        W20864  10.391   3.933  13.546  0.0580  0.2258  0.0178
 5056W        W20865  15.963   9.790   0.541  0.0789 -0.4610  0.1504
 5057W        W20866   1.556   1.588   1.470  0.1245  0.1077 -0.1833
 5058W        W20867   1.244   6.039  11.529 -0.0794 -0.0018 -0.0596
 5059W        W20868  10.939  18.640   3.969  0.2203 -0.1369  0.0049
 5060W        W20869  10.726   8.459   3.570  0.0143  0.0535  0.0429
 5061W        W20870   1.712   5.006  13.482 -0.2993  0.2529  0.5221
 5062W        W20871   0.000  12.286   3.703  0.1017  0.0213 -0.0208
 5063W        W20872   5.580  11.353   3.481  0.0307 -0.2822  0.1177
 5064W        W20873   5.251   1.221  13.516 -0.0739 -0.2110  0.4489
 5065W        W20874   0.588  13.809   5.219 -0.0078 -0.1874  0.3314
 5066W        W20875   6.844   9.357   9.468 -0.1464 -0.1210  0.0794
 5067W        W20876   9.487   4.421   4.226  0.1162 -0.0192  0.1995
 5068W        W20877   2.800  14.142  13.877 -0.0628  0.4241  0.0543
 5069W        W20878  17.420  11.016   4.033 -0.0142  0.1004 -0.4041
 5070W        W20879  13.464   8.962  15.140  0.3582  0.1861  0.1741
 5071W        W20880   8.088  12.670   9.781  0.0707 -0.0827  0.1279
 5072W        W20881   9.745   2.626  15.228 -0.0604  0.2566 -0.2015
 5073W        W20882  12.846  11.966   2.527 -0.1793 -0.2326  0.0652
 5074W        W20883   3.835  10.459  14.788 -0.2881 -0.3567 -0.5175
 5075W        W20884   2.069  10.507   2.715 -0.3015 -0.1496 -0.3832
 5076W        W20885  13.743  16.554  11.570 -0.3096 -0.1994  0.0982
 5077W        W20886   8.803  17.993  10.942  0.0769  0.0194 -0.1474
 5078W        W20887  11.771   2.331   1.752  0.0996 -0.0034  0.2245
 5079W        W20888   3.470   8.420  14.444 -0.2368 -0.0652 -0.0819
 5080W        W20889   2.452  14.602  11.029  0.0025  0.0014  0.0687
 5081W        W20890   9.290   0.895  12.864 -0.0483  0.0598 -0.2889
 5082W        W20891  11.133   6.793   4.453  0.0066 -0.0423  0.6150
 5083W        W20892  15.124   1.251  13.870  0.2362 -0.1065 -0.0694
 5084W        W20893   4.953  18.086   4.179 -0.0342 -0.4912 -0.0554
 5085W        W20894   9.842  15.757   4.716 -0.2037  0.2441  0.2534
 5086W        W20895   3.340   2.349   2.543  0.3667  0.2561  0.1061
 5087W        W20896   7.457   9.189  12.290 -0.1804  0.4228 -0.0928
 5088W        W20897   8.281   1.308   1.493 -0.0714 -0.1727  0.0809
 5089W        W20898  16.867   4.235  13.220 -0.1832 -0.0401 -0.0440
 5090W        W20899  15.716  14.259   1.764 -0.1796 -0.2473 -0.1977
 5091W        W20900   3.716  13.036  11.175 -0.2037 -0.0566 -0.1351
 5092W        W20901  15.272   6.106  14.542 -0.0226 -0.1605  0.1387
 5093W        W20902   3.125   5.180   2.490  0.2619  0.2071 -0.0419
 5094W        W20903  11.857   0.547   2.948 -0.2732  0.3123 -0.2241
 5095W        W20904   9.646   6.473   2.627 -0.2649  0.3143 -0.0720
 5096W        W20905  13.691  14.883   9.544  0.1537  0.0329  0.1328
 5097W        W20906  17.976   5.620  13.722 -0.1633 -0.0623 -0.1311
 5098W        W20907   4.200   6.444   1.596 -0.0635 -0.2104 -0.0070
 5099W        W20908  17.833   2.196  12.644  0.2112 -0.0797 -0.0054
 5100W        W20909   4.903   4.482   2.964  0.4154 -0.1177  0.0876
 5101W        W20910  13.140  14.228   2.433 -0.0538  0.0820  0.0179
 5102W        W20911  11.940   2.931   4.848 -0.0781  0.1712 -0.1618
 5103W        W20912   0.840  17.855   4.160  0.0050 -0.0658 -0.0118
 5104W        W20913   1.185  10.028  13.956  0.0764 -0.2666 -0.2227
 5105W        W20914  10.372   9.257   1.069  0.3201  0.5143 -0.0719
 5106W        W20915   9.869  15.930   2.340 -0.2480 -0.2640 -0.3270
 5107W        W20916   6.496  11.152  10.770 -0.2464 -0.3365 -0.3109
 5108W        W20917  12.651  14.164   3.086 -0.0712  0.1964  0.0098
 5109W        W20918  14.073  18.634  15.082  0.1616  0.2368  0.1281
 5110W        W20919   8.864   6.513  10.625 -0.1081 -0.2595 -0.1734
 5111W        W20920  16.327  17.687  12.454 -0.0186  0.2882 -0.0143
 5112W        W20921   8.773  17.741   2.552 -0.1242 -0.0167 -0.3564
 5113W        W20922   8.316  10.021  13.765 -0.4072  0.0639 -0.0513
 5114W        W20923   8.762   0.672   5.377  0.3934 -0.1139  0.1041
 5115W        W20924  11.479  15.537  11.213 -0.3542  0.0313 -0.3137
 5116W        W20925   8.892   9.107   5.477 -0.0677  0.2009 -0.2435
 5117W        W20926   0.211   5.681   0.011 -0.0974  0.1850  0.0170
 5118W        W20927  12.886   8.737   4.041  0.0326  0.0370  0.0958
 5119W        W20928  17.880  16.477  10.373  0.0071  0.3243  0.1620
 5120W        W20929   8.711  15.633  14.708  0.0021  0.2720  0.0246
 5121W        W20930   8.513  11.663   2.366 -0.0887 -0.1563 -0.3934
 5122W        W20931   3.284  14.358   0.613 -0.3009  0.3565  0.2697
 5123W        W20932  12.924   9.987  10.802  0.0876  0.2475  0.0521
 5124W        W20933   8.806  12.628   1.610 -0.0671  0.0666  0.1386
 5125W        W20934  16.916   9.750  11.778 -0.0502  0.3944  0.1619
 5126W        W20935   9.754   7.640  15.387  0.4870  0.3411 -0.2999
 5127W        W20936  17.848  12.755   1.538 -0.0319 -0.1962  0.1235
 5128W        W20937   3.684   7.346  12.024  0.0139 -0.1541 -0.0342
 5129W        W20938  17.680  16.750  13.475 -0.4751  0.2225 -0.0089
 5130W        W20939   4.639  17.796   4.461 -0.2945  0.1213  0.1477
 5131W        W20940  14.228   8.143   3.485  0.3275 -0.3199 -0.4754
 5132W        W20941  13.033   7.377  13.799  0.0714  0.0158  0.2132
 5133W        W20942   4.761  14.254   1.555  0.2651 -0.0407 -0.2834
 5134W        W20943   8.529  12.209   9.723 -0.0177  0.2722  0.5272
 5135W        W20944   7.002  11.027  11.524  0.1586 -0.0060 -0.2140
 5136W        W20945   7.467   7.817   3.966 -0.2500  0.0127 -0.0105
 5137W        W20946   9.912   1.644   0.693  0.0536 -0.1126 -0.3330
 5138W        W20947  18.498   3.405  13.112 -0.3126  0.1736 -0.4239
 5139W        W20948  14.926   8.150  11.171  0.0174 -0.1109 -0.0112
 5140W        W20949   9.464   5.089   2.416  0.3223  0.0347 -0.3080
 5141W        W20950  10.544   8.660  12.435  0.4117 -0.0158 -0.1147
 5142W        W20951   7.567   4.591  13.344  0.0140  0.1768 -0.1304
 5143W        W20952   3.808   8.022   2.384 -0.0420 -0.2194 -0.1498
 5144W        W20953  11.946   4.076   0.100  0.0900  0.0049  0.1659
 5145W        W20954   7.521   8.189   1.068 -0.3279 -0.2180 -0.0408
 5146W        W20955  17.615  12.451  10.146  0.2525  0.0534  0.3877
 5147W        W20956  11.238   4.058   1.122  0.0701 -0.3966  0.3551
 5148W        W20957   8.505   4.052   0.721  0.2507 -0.0236 -0.1832
 5149W        W20958  15.413  14.698   2.319  0.0083 -0.2060  0.2475
 5150W        W20959  14.875  12.735  13.227  0.0919  0.0572 -0.1393
 5151W        W20960  16.296  13.326  11.197  0.0033 -0.2679 -0.2286
 5152W        W20961   6.831   6.642  11.839  0.1375  0.0714 -0.2167
 5153W        W20962  18.216   5.946   2.332  0.0340  0.2273  0.1387
 5154W        W20963   4.791  13.692   4.100 -0.1201  0.1241  0.0247
 5155W        W20964  12.559  18.591   2.361  0.2637  0.3021 -0.2580
 5156W        W20965   3.131   3.347   3.949  0.1309 -0.0807  0.2538
 5157W        W20966   4.631  10.694   3.033 -0.2013  0.2407  0.0115
 5158W        W20967  17.438  10.026  13.643 -0.2029 -0.1039 -0.1510
 5159W        W20968   6.668  10.642  14.330  0.1086 -0.0048  0.2682
 5160W        W20969   2.910   1.279   2.625 -0.0466 -0.0839 -0.0558
 5161W        W20970   4.836   6.367  10.511  0.3573 -0.1070  0.2267
 5162W        W20971   0.400  10.432  10.847  0.0100 -0.3355 -0.3738
 5163W        W20972   1.940   0.019  12.779  0.1083  0.3459  0.0719
 5164W        W20973  11.945   5.798  14.451 -0.1101  0.2087  0.1512
 5165W        W20974   3.318  11.939   1.817 -0.1823  0.3144  0.0304
 5166W        W20975   7.959   7.454  11.433 -0.0709  0.0103 -0.2045
 5167W        W20976   8.305  12.622   5.060  0.2430 -0.4260  0.1189
 5168W        W20977  12.579  12.835  12.646  0.0554 -0.4117  0.0795
 5169W        W20978  13.396  14.756   3.395  0.1306 -0.0875  0.3549
 5170W        W20979  12.168  17.532   2.411 -0.0198  0.0865  0.1587
 5171W        W20980   5.219   1.029  11.628  0.2915 -0.0097  0.0311
 5172W        W20981   9.297  15.679  11.013  0.3588  0.1097 -0.0074
 5173W        W20982   1.037   7.959   5.786 -0.1579  0.0928  0.2083
 5174W        W20983  12.882   4.285   4.177  0.0043  0.3295 -0.0726
 5175W        W20984   1.345  12.027  11.346 -0.1185 -0.1823  0.0056
 5176W        W20985   0.938   0.427  14.881  0.0560 -0.0148  0.0325
 5177W        W20986  12.023   7.438  15.411  0.0530  0.1960  0.0192
 5178W        W20987   4.976   8.916   0.954 -0.0848  0.1084 -0.0860
 5179W        W20988  16.659  13.818   2.435  0.0850  0.0037 -0.1143
 5180W        W20989   9.311   2.094  14.478  0.0311 -0.2196  0.2478
 5181W        W20990   5.113  13.124   0.157  0.1459 -0.0809 -0.0600
 5182W        W20991  17.014  12.065   4.896  0.1581  0.0180  0.1867
 5183W        W20992   9.351   1.035   3.413 -0.2212 -0.2283  0.1264
 5184W        W20993  12.168   7.018  13.810 -0.1287  0.0050  0.1030
 5185W        W20994   6.947  11.617   4.910  0.2558 -0.1870  0.2079
 5186W        W20995   3.806  18.349  15.229  0.3753  0.0379  0.0237
 5187W        W20996   4.968   2.356   3.453  0.6044 -0.0417 -0.6086
 5188W        W20997   5.035   3.248  14.417 -0.0163 -0.1477 -0.0179
 5189W        W20998   0.827  13.400  14.260  0.1925  0.1366 -0.1237
 5190W        W20999   0.817  16.132  11.443  0.0844  0.1992  0.2633
 5191W        W21000   9.796   7.378  12.899  0.0870 -0.1792  0.1316
 5192W        W21001   3.044   6.442  10.972 -0.2106 -0.1342 -0.1312
 5193W        W21002   9.779  12.734   1.485  0.0033  0.0432  0.0304
 5194W        W21003   6.771   7.453   2.067 -0.0262 -0.2377 -0.0824
 5195W        W21004   8.805   8.918  12.982  0.1705 -0.1202 -0.0228
 5196W        W21005  11.013  18.021   5.719  0.4724 -0.3020  0.1466
 5197W        W21006  14.909  11.350  10.685  0.0227 -0.4029  0.0197
 5198W        W21007  15.324   9.501   3.971  0.0433 -0.4516 -0.1879
 5199W        W21008   4.659   6.551  13.202 -0.0747  0.1326  0.0140
 5200W        W21009   8.089  18.149   0.551 -0.3053 -0.1489  0.1243
 5201W        W21010   5.855  18.140  11.564 -0.1663  0.2594 -0.0636
 5202W        W21011  17.346   4.750   0.998  0.3581 -0.0423 -0.0854
 5203W        W21012  17.989   9.593   1.101 -0.2761  0.1896 -0.2056
 5204W        W21013   6.119   0.736  14.214 -0.0587  0.0560  0.0281
 5205W        W21014  17.831   7.231  11.437 -0.1057  0.2960 -0.0391
 5206W        W21015   3.204  11.712   0.755  0.5680  0.0175 -0.2796
 5207W        W21016  18.441   7.966  12.230 -0.2182  0.0844 -0.1236
 5208W        W21017  12.187  18.229   0.408 -0.3418  0.2458 -0.0196
 5209W        W21018   3.341  12.880  13.084  0.1205 -0.0745 -0.4097
 5210W        W21019  15.147   4.793  11.579 -0.0627  0.1407 -0.1499
 5211W        W21020   7.693  12.892   1.511  0.0075  0.4564 -0.0581
 5212W        W21021  15.981   8.358  12.634 -0.1128 -0.1147 -0.1691
 5213W        W21022   2.030   2.904   5.118  0.2703 -0.1013 -0.2218
 5214W        W21023  14.020   8.311  11.614  0.2927 -0.1146 -0.3674
 5215W        W21024   8.730  11.138  14.163  0.3277 -0.2987  0.3310
 5216W        W21025   1.489  17.841   9.770 -0.2426 -0.2381  0.1984
 5217W        W21026   1.310   5.850   1.388  0.0218  0.2209  0.0604
 5218W        W21027  15.022   8.355   2.217 -0.0188 -0.2427 -0.1062
 5219W        W21028   1.875  17.207   2.250  0.0312 -0.1103  0.3436
 5220W        W21029   0.366  12.727   3.524 -0.0652 -0.1710 -0.0363
 5221W        W21030   6.975   8.250   3.770 -0.0027 -0.1840  0.1253
 5222W        W21031  12.563   2.897   0.877  0.1671  0.1180 -0.1555
 5223W        W21032   2.512   8.253  11.723  0.1829  0.2494 -0.0313
 5224W        W21033  18.753  18.520   3.499 -0.1316  0.1797 -0.0121
 5225W        W21034  14.113   7.221   0.224  0.0249  0.1098  0.2796
 5226W        W21035  13.470   1.423  14.624  0.0646  0.1248  0.0699
 5227W        W21036  12.916  16.277   2.590  0.4306 -0.1221  0.2417
 5228W        W21037   0.134  15.056   3.340 -0.0746 -0.0645  0.0906
 5229W        W21038  12.313  16.686   2.684 -0.0957 -0.1527 -0.2864
 5230W        W21039   3.176   2.774   4.711  0.0036 -0.0518  0.5860
 5231W        W21040   0.686  18.234  14.327 -0.1847 -0.0859 -0.2001
 5232W        W21041   3.842   9.793   3.238 -0.2118  0.1062 -0.1239
 5233W        W21042  11.281   3.673  12.347  0.0768  0.0402  0.0195
 5234W        W21043  10.343  12.341   1.637 -0.1643 -0.2979  0.0933
 5235W        W21044  15.540   8.802   5.360 -0.0103  0.0748 -0.1186
 5236W        W21045   0.593  11.175   2.291  0.3185 -0.1228 -0.1244
 5237W        W21046  11.821  15.881  15.272 -0.2053  0.1314 -0.1346
 5238W        W21047   4.861  13.627   2.184  0.1839 -0.0411 -0.1130
 5239W        W21048  16.763   4.694   1.793 -0.1326  0.2156 -0.0075
 5240W        W21049  15.133   6.135   2.732  0.4761  0.3195 -0.0937
 5241W        W21050  10.589   4.803   0.083 -0.1452 -0.1514 -0.3166
 5242W        W21051  15.285  15.914  13.189 -0.2177  0.0729 -0.1837
 5243W        W21052   7.522   8.918   2.336 -0.0148 -0.1046  0.1304
 5244W        W21053   4.112  16.039  14.703 -0.1221 -0.0186 -0.0569
 5245W        W21054   1.007   4.668  11.744 -0.3661 -0.1477  0.1189
 5246W        W21055  15.897  17.355   0.396 -0.2475  0.0097 -0.0059
 5247W        W21056   1.621  14.106  12.841  0.0600 -0.3133  0.3967
 5248W        W21057   3.196   3.424  11.074  0.0904  0.0166 -0.2909
 5249W        W21058   5.896   9.058   1.236 -0.2749 -0.2415 -0.1605
 5250W        W21059   0.664  16.343  14.020  0.0797 -0.0746 -0.0578
 5251W        W21060   4.233  14.598  12.174 -0.1433 -0.2719 -0.1175
 5252W        W21061   8.386  14.292   1.029 -0.0572  0.2445 -0.1037
 5253W        W21062  13.586   8.768   5.113 -0.0264 -0.2938  0.0427
 5254W        W21063  14.367   4.876  12.610  0.1076  0.2873 -0.2484
 5255W        W21064   9.793  12.597  13.091 -0.1376  0.1571  0.2241
 5256W        W21065  11.929  11.278  11.262  0.3021  0.0688 -0.0813
 5257W        W21066   3.072   1.742  10.952  0.1509  0.1723  0.3414
 5258W        W21067   5.902   5.107   2.697 -0.0581  0.0502 -0.1596
 5259W        W21068   4.080   8.920   5.788  0.1239  0.0107 -0.2177
 5260W        W21069  11.593  16.915  14.253 -0.0100 -0.1465  0.1482
 5261W        W21070  14.227  16.305  13.470 -0.1293 -0.2778 -0.1141
 5262W        W21071  14.547  15.443  11.712 -0.0202 -0.0067 -0.1976
 5263W        W21072  12.350   7.281   1.393 -0.1039  0.3378 -0.2373
 5264W        W21073  12.739   5.517  14.793  0.1378  0.0430 -0.0591
 5265W        W21074   7.396   7.523  14.647  0.2240  0.0171  0.0899
 5266W        W21075   3.171   9.335  14.320  0.0813 -0.1160  0.2516
 5267W        W21076  17.280   4.453   2.306 -0.2074 -0.0447  0.3061
 5268W        W21077  16.915  18.477   3.072  0.1192  0.2068 -0.3407
 5269W        W21078   7.477   2.490  11.774 -0.0067 -0.2590  0.1527
 5270W        W21079   9.828  18.837  12.333 -0.2377 -0.1735 -0.0070
 5271W        W21080  11.431   1.300   2.653  0.0815 -0.2017  0.0136
 5272W        W21081   1.369  18.872  11.645  0.2588  0.1606  0.1301
 5273W        W21082  17.623   6.971   5.485 -0.2067 -0.0571 -0.0812
 5274W        W21083   7.145  12.362   2.037 -0.1467  0.0279 -0.0708
 5275W        W21084  12.505   9.587   0.338 -0.0645  0.1381 -0.0433
 5276W        W21085  15.281   1.272   2.180 -0.1109 -0.0253 -0.3875
 5277W        W21086   7.218   5.901  10.159  0.0478 -0.0238 -0.1917
 5278W        W21087   5.503   0.252   3.189 -0.2984 -0.4219 -0.2553
 5279W        W21088   8.162  18.781   2.857  0.1386  0.2506  0.1370
 5280W        W21089   4.231  11.988   2.506  0.0298 -0.0507 -0.1248
 5281W        W21090   3.893  13.988  13.648  0.1119 -0.0189 -0.2142
 5282W        W21091  11.257   9.721  11.745 -0.1766 -0.1031 -0.1251
 5283W        W21092   8.414   0.788   2.474  0.0980  0.1184  0.0574
 5284W        W21093  15.880  18.610  12.631 -0.1234  0.0015 -0.0609
 5285W        W21094   1.205  18.606   4.524 -0.1446 -0.1091 -0.3571
 5286W        W21095   0.320  15.764   0.765  0.1744 -0.0475  0.2228
 5287W        W21096   5.390  14.161  11.105 -0.1872 -0.1513  0.1835
 5288W        W21097   2.928   4.296  11.360  0.0624  0.0187  0.1075
 5289W        W21098   8.363   0.786  14.259  0.2389 -0.1423 -0.4400
 5290W        W21099  17.952  15.365  15.128 -0.0086 -0.1959  0.3277
 5291W        W21100   2.071   0.146   3.249 -0.0830 -0.0924 -0.1225
 5292W        W21101  12.024  14.054  12.092 -0.3118  0.0004 -0.1962
 5293W        W21102  10.841  10.545  15.071 -0.2417 -0.6847 -0.0422
 5294W        W21103   2.425   1.425   4.400 -0.1671 -0.3131  0.3286
 5295W        W21104   0.847   5.041   2.967 -0.1016  0.0984  0.0750
 5296W        W21105  17.405  15.310   5.301  0.0782 -0.1967  0.0706
 5297W        W21106   2.761   7.031   3.980  0.0502  0.3467 -0.0908
 5298W        W21107   4.194   8.875  13.682  0.0201 -0.1082  0.0635
 5299W        W21108   4.236  16.757   3.651  0.0124  0.6576  0.1285
 5300W        W21109   1.054   4.843  13.018  0.1701  0.1841  0.4415
 5301W        W21110   5.456   5.528   0.650  0.0191  0.1313 -0.1271
 5302W        W21111   0.773  11.811   0.805 -0.2437  0.2919 -0.1359
 5303W        W21112  14.512   8.055  10.283  0.0878  0.0990 -0.0006
 5304W        W21113   8.243   2.723  15.041 -0.0131  0.2639 -0.3983
 5305W        W21114  16.213  14.056  12.050 -0.1679  0.0317  0.1300
 5306W        W21115   6.841   7.729  11.031  0.4457 -0.0941  0.0710
 5307W        W21116   8.175   9.862  10.364 -0.1877 -0.3397 -0.1315
 5308W        W21117  13.180  16.044   1.611  0.0853 -0.2158  0.1243
 5309W        W21118   3.571   7.905  14.639  0.3152 -0.1660  0.1880
 5310W        W21119   8.234  13.020  12.409 -0.0083 -0.0472  0.4097
 5311W        W21120   7.127   0.114  12.086 -0.2829 -0.1237 -0.2436
 5312W        W21121  14.785   5.903   1.235  0.0451 -0.1235 -0.1574
 5313W        W21122   7.370  15.838   5.065 -0.4376  0.1379  0.1022
 5314W        W21123  13.583  14.848  10.851 -0.0067  0.0753  0.0440
 5315W        W21124   1.599   1.928  14.265  0.0944 -0.1841  0.2207
 5316W        W21125  18.821  10.332   0.646  0.3480 -0.3325  0.1449
 5317W        W21126  12.272   8.308   4.555 -0.2011  0.4042  0.0292
 5318W        W21127  15.655  13.642  11.239 -0.0603 -0.0870  0.0366
 5319W        W21128  12.080   9.819   5.378  0.1713 -0.2854  0.4119
 5320W        W21129  17.858   4.903   3.614  0.0224  0.0759 -0.3540
 5321W        W21130  11.552   8.131   4.180  0.2107 -0.1207 -0.1307
 5322W        W21131   5.853  12.816  13.102  0.1139 -0.2020 -0.0160
 5323W        W21132   4.931   0.829  12.779  0.0383 -0.0185 -0.0784
 5324W        W21133  18.706   0.817   2.454  0.1147  0.2268  0.1776
 5325W        W21134   3.168   1.515   3.750 -0.2840  0.1039  0.1403
 5326W        W21135   9.332  10.894  13.286  0.3336  0.1598  0.0480
 5327W        W21136   3.239   3.319  10.099 -0.0693 -0.0504 -0.0210
 5328W        W21137   3.050   5.003   0.467  0.1800  0.1128 -0.3105
 5329W        W21138  18.100  12.765   1.990  0.0942 -0.0606  0.4088
 5330W        W21139  13.416   8.839   1.824  0.0426  0.0760  0.0475
 5331W        W21140  16.200   7.817   2.838 -0.0922 -0.0058  0.0148
 5332W        W21141  16.034  12.392   1.816  0.0685  0.1093  0.0035
 5333W        W21142  10.817   2.725  13.450  0.1494 -0.2408 -0.2032
 5334W        W21143  15.673   2.801   2.259 -0.0301 -0.1490 -0.1634
 5335W        W21144   4.826   8.889  13.469 -0.0285 -0.1710 -0.3280
 5336W        W21145  13.589   3.429  14.678 -0.2792 -0.0348  0.0616
 5337W        W21146  12.605  12.208   4.141 -0.0454  0.0765 -0.0299
 5338W        W21147   6.315  15.591  11.520 -0.2317  0.0498 -0.3806
 5339W        W21148   1.055  14.051   2.030 -0.1093  0.1569  0.1474
 5340W        W21149   5.508  17.947   3.217 -0.0695 -0.1153  0.1326
 5341W        W21150   3.167   3.289   2.754 -0.0937 -0.1330  0.2006
 5342W        W21151  17.355   0.333   5.375 -0.0905  0.0873 -0.2397
 5343W        W21152  17.319  11.894  11.549 -0.0300 -0.1528 -0.1552
 5344W        W21153   2.472   0.646   0.717 -0.0323  0.2396  0.0741
 5345W        W21154   9.803   9.234   1.857 -0.2369 -0.0608 -0.2760
 5346W        W21155  10.610   8.777   0.113  0.0117 -0.2383 -0.3692
 5347W        W21156   6.423  17.910   2.796  0.3215 -0.1138  0.1129
 5348W        W21157   0.654  11.356  13.240 -0.0482 -0.0795 -0.0713
 5349W        W21158  15.761   6.828   0.442 -0.0664  0.2863  0.0572
 5350W        W21159  17.335   9.578   4.586 -0.2869  0.1317  0.0647
 5351W        W21160  14.832  10.987   2.657 -0.4766 -0.2087 -0.0999
 5352W        W21161   9.379   1.072  14.796 -0.0545 -0.1850 -0.1896
 5353W        W21162  12.405  15.175   3.131  0.0772 -0.2039 -0.0220
 5354W        W21163  11.087  17.341  13.595 -0.0858 -0.1166 -0.3892
 5355W        W21164  10.991  18.706  14.186  0.1124 -0.2520  0.1924
 5356W        W21165   2.826   9.613   4.070  0.2068 -0.0397  0.1063
 5357W        W21166  12.115  16.303   0.571  0.3666 -0.0830 -0.0846
 5358W        W21167   0.260   8.586   0.344  0.0549 -0.0437  0.4383
 5359W        W21168   4.650   5.672  14.113 -0.0028  0.1387  0.1449
 5360W        W21169  11.973  15.506   0.773  0.0100 -0.0169  0.1574
 5361W        W21170   9.084   8.703   0.935 -0.2188 -0.0389 -0.2624
 5362W        W21171  10.596  18.902  11.621  0.1422 -0.0809  0.1491
 5363W        W21172  10.744  11.729   0.526  0.0348  0.1968 -0.0422
 5364W        W21173   5.751   3.824   0.788  0.0352  0.1294 -0.5234
 5365W        W21174  11.646  10.209  12.367 -0.2553  0.0064  0.2366
 5366W        W21175   0.773   4.832   4.181  0.2772 -0.0754  0.0280
 5367W        W21176  16.208   7.323  14.200 -0.2585  0.1652 -0.2706
 5368W        W21177   5.475  14.480   2.060  0.2110 -0.1968 -0.1879
 5369W        W21178  16.388  12.271   0.178  0.3457 -0.1558  0.2067
 5370W        W21179   7.301  13.402  10.346  0.2957 -0.0295 -0.1655
 5371W        W21180  13.124  10.515  11.160  0.2571  0.1230 -0.0086
 5372W        W21181  14.688  18.531   1.262  0.0233 -0.0905 -0.1733
 5373W        W21182   7.075   1.980  11.179  0.0517 -0.1609 -0.0859
 5374W        W21183   6.945   5.976  13.141  0.1313  0.2188  0.0875
 5375W        W21184  16.158   2.976   4.982  0.2448 -0.0512 -0.1584
 5376W        W21185  16.556  10.365  13.926  0.0434  0.1606  0.1586
 5377W        W21186  13.773  16.627  14.909 -0.0151 -0.0345 -0.1592
 5378W        W21187   7.098   3.297  12.492  0.0043 -0.1471  0.1678
 5379W        W21188   8.169  12.494  11.077 -0.2586 -0.0846  0.2940
 5380W        W21189   8.874   6.163   2.889  0.4236  0.0887 -0.0414
 5381W        W21190  10.118   4.275  10.763 -0.1734  0.0763 -0.1109
 5382W        W21191   9.076  10.242   0.719 -0.0162  0.0698  0.1819
 5383W        W21192   3.634   3.244   3.931 -0.0447  0.4770  0.0494
 5384W        W21193   7.751   9.217   4.039 -0.2883 -0.1773 -0.0359
 5385W        W21194  14.457   7.798  14.731  0.1529  0.0786 -0.0054
 5386W        W21195   1.596  10.648   2.149  0.2376  0.0567 -0.1109
 5387W        W21196   9.723   6.539  13.953  0.4835 -0.2813 -0.2389
 5388W        W21197   1.502  18.021   3.994 -0.0086 -0.1583 -0.0686
 5389W        W21198   6.026  13.784  14.273 -0.0828 -0.0223  0.0556
 5390W        W21199   4.031   8.073  15.367  0.1374  0.0719  0.0298
 5391W        W21200   5.774   2.467   3.869 -0.0493 -0.0785 -0.0865
 5392W        W21201  13.447   6.693   3.540 -0.3223 -0.0936 -0.2361
 5393W        W21202   8.530   1.959  11.138 -0.1221 -0.2810  0.3406
 5394W        W21203  18.669  16.818  15.142  0.3296 -0.0626 -0.2018
 5395W        W21204  14.891   6.518   5.465 -0.0308 -0.3799 -0.0758
 5396W        W21205   0.486  12.815  15.429 -0.2551 -0.0316  0.3132
 5397W        W21206   7.656   6.758  14.776  0.2103  0.3611  0.2958
 5398W        W21207  10.203   9.482   2.093  0.0528 -0.2320 -0.0996
 5399W        W21208   8.002   9.579   2.613  0.4765 -0.0504  0.1874
 5400W        W21209  15.227   4.033  11.301  0.3693 -0.2291 -0.1580
 5401W        W21210   5.247   9.528  11.957  0.0195  0.2548  0.3059
 5402W        W21211  12.968   4.214  14.111 -0.4402 -0.0222  0.2858
 5403W        W21212   3.946   7.387  10.643 -0.3362 -0.1011  0.1132
 5404W        W21213   7.703  13.336   5.847  0.3494  0.1612 -0.3601
 5405W        W21214  11.440  10.623   5.715  0.0995 -0.2418  0.0571
 5406W        W21215  10.783  17.323  13.108 -0.1090  0.0204  0.1152
 5407W        W21216   2.371  18.400  10.867  0.2731 -0.0567  0.2101
 5408W        W21217   1.169   0.138  14.496  0.0881 -0.2574  0.1348
 5409W        W21218   6.299  13.417   2.025 -0.1781  0.1376  0.2560
 5410W        W21219  10.864  12.273  11.617 -0.1183  0.0259  0.1244
 5411W        W21220  15.752   9.624  14.912  0.1315  0.0295  0.1052
 5412W        W21221   8.479   6.834   5.470 -0.1854 -0.1907 -0.0757
 5413W        W21222  16.288   0.326  12.630 -0.2717  0.3843  0.0107
 5414W        W21223  11.126  18.839  13.250  0.0248 -0.3222  0.0819
 5415W        W21224   9.531   1.593   4.188  0.1456  0.2698 -0.1252
 5416W        W21225   5.854   7.361   1.970  0.0688 -0.1572  0.2063
 5417W        W21226  14.595  13.835  13.943  0.0419  0.1394  0.1243
 5418W        W21227   4.303  17.273  13.856 -0.1650  0.0202  0.1513
 5419W        W21228  11.115  10.063  14.314  0.0971 -0.1550  0.1595
 5420W        W21229   4.949   7.549   1.332  0.2081  0.0656 -0.0377
 5421W        W21230  11.593   2.026   4.236  0.2939  0.0333 -0.2215
 5422W        W21231   7.472   0.700   2.859 -0.0715  0.0752  0.1451
 5423W        W21232  12.538  13.034  10.692  0.0533  0.0155  0.0214
 5424W        W21233   4.277  12.967   0.192 -0.2827 -0.0400 -0.0739
 5425W        W21234  17.412  15.900   1.285  0.1701  0.1014 -0.1091
 5426W        W21235  11.584   8.502   2.208 -0.0200 -0.0758  0.0415
 5427W        W21236  11.032  11.514  14.567  0.2443 -0.0072 -0.0319
 5428W        W21237   0.662   3.351   0.242 -0.0657  0.1021  0.1835
 5429W        W21238   2.546  14.190   4.186 -0.3425  0.2509 -0.3077
 5430W        W21239   6.115   8.325   0.643 -0.0222  0.0846  0.3294
 5431W        W21240   8.369  15.949  14.872  0.3012 -0.0286  0.1455
 5432W        W21241  18.086   0.426   1.271  0.4901  0.1108 -0.4587
 5433W        W21242   9.053  11.715   3.178 -0.0489  0.3586 -0.0226
 5434W        W21243  18.068  10.345   4.475 -0.4083  0.1772  0.0480
 5435W        W21244  18.170   9.737  12.238  0.0361  0.0049  0.0286
 5436W        W21245  10.219   3.574  15.126  0.0884  0.1080 -0.0271
 5437W        W21246  18.217   6.829   2.577 -0.0957 -0.0008 -0.0183
 5438W        W21247   4.377  14.945  15.387  0.1084  0.1550  0.3198
 5439W        W21248   4.453  15.956  15.114 -0.0537 -0.4719 -0.0112
 5440W        W21249  10.007  18.456   4.814  0.0368  0.0244 -0.2338
 5441W        W21250  14.573   7.330   1.473  0.0162 -0.1603 -0.1477
 5442W        W21251  15.215  16.849   0.621  0.1187 -0.0373  0.2476
 5443W        W21252  11.799   9.055   4.089  0.4738 -0.0811 -0.3727
 5444W        W21253   1.352  17.645   1.402 -0.0271 -0.1137  0.1146
 5445W        W21254  15.844  12.921   3.696 -0.1258 -0.2748 -0.0646
 5446W        W21255  16.868   8.644   1.498  0.0521  0.1901  0.1114
 5447W        W21256  13.444  13.708  11.699 -0.2965 -0.1458  0.0410
 5448W        W21257  15.234   7.355  11.695 -0.0686  0.0341 -0.1864
 5449W        W21258   0.460   5.999   4.616 -0.0391 -0.5025  0.1292
 5450W        W21259  15.320  14.104   4.902  0.0489 -0.2572 -0.0638
 5451W        W21260   8.384  12.757   4.588  0.0630  0.0445  0.2048
 5452W        W21261  11.404  10.730  11.001 -0.0867  0.2412 -0.1634
 5453W        W21262   4.255   4.211   1.476 -0.2429 -0.0967 -0.0554
 5454W        W21263   7.223   5.844   1.152  0.2588 -0.0020 -0.1485
 5455W        W21264   7.931  15.669   0.259  0.0303 -0.0752 -0.0950
 5456W        W21265  15.072   7.974   4.096  0.0990  0.0820  0.1994
 5457W        W21266   5.483   9.359  13.593 -0.1157 -0.2411 -0.0007
 5458W        W21267   6.514  10.797  12.119 -0.2354  0.2353  0.2523
 5459W        W21268   0.364  17.474   4.826 -0.1879 -0.0420 -0.1634
 5460W        W21269  10.510   8.912   5.664 -0.1448  0.2595  0.1251
 5461W        W21270  10.276  10.248   4.739  0.3324 -0.1665 -0.0066
 5462W        W21271   7.337  17.962   2.198  0.1076 -0.1381  0.1014
 5463W        W21272  13.647  11.310   0.430 -0.0384 -0.0506  0.0739
 5464W        W21273  18.645   0.054   0.656  0.2027  0.1200  0.0884
 5465W        W21274   5.722   8.350   0.969 -0.1324 -0.0130  0.3256
 5466W        W21275   5.466   0.238  12.912  0.4095  0.1257 -0.1734
 5467W        W21276   8.563  18.640  11.763  0.1832  0.0837 -0.3056
 5468W        W21277   6.639   2.793  15.321  0.2737 -0.2385 -0.4867
 5469W        W21278  10.627   6.799   4.198 -0.0953 -0.1687  0.3428
 5470W        W21279   1.838   1.954   1.226  0.1899  0.0702 -0.1295
 5471W        W21280  12.971   6.992   5.409  0.0771  0.0158 -0.1258
 5472W        W21281   7.146   1.595  14.111 -0.1036 -0.1085 -0.1296
 5473W        W21282   6.370   1.634  11.682 -0.0723  0.0721 -0.0742
 5474W        W21283  16.419  12.200  12.117  0.1731  0.0774  0.0894
 5475W        W21284  10.712  13.294   0.352 -0.0934  0.2071  0.1224
 5476W        W21285   7.548   1.188   0.441  0.1113  0.0950  0.1335
 5477W        W21286  17.199   4.624  12.095 -0.1728  0.3543  0.1650
 5478W        W21287  15.395  18.608   3.048  0.1789 -0.1749 -0.1725
 5479W        W21288  12.782  15.797  15.185  0.0281  0.0932 -0.1354
 5480W        W21289   6.518  16.266  15.007 -0.1478  0.0749  0.1293
 5481W        W21290   9.666   6.692  11.158  0.1293 -0.0040  0.4750
 5482W        W21291   5.792  10.153   2.095  0.1426 -0.1148  0.3066
 5483W        W21292  10.290  13.056  15.122  0.2321  0.3160  0.1638
 5484W        W21293  10.351   0.186  13.003  0.0339  0.0049 -0.2652
 5485W        W21294   5.184  14.522   3.031  0.0366  0.0650 -0.4220
 5486W        W21295   1.507   4.884   4.794 -0.0069 -0.3499  0.2262
 5487W        W21296   2.636  16.819  10.687 -0.1303  0.2783  0.0455
 5488W        W21297  18.125  15.160   1.424  0.1882 -0.2983  0.2103
 5489W        W21298  14.213  10.285  13.291 -0.1889 -0.1273 -0.0490
 5490W        W21299  14.279   2.565  11.989 -0.0348 -0.0197  0.1072
 5491W        W21300   5.078   4.392   0.285 -0.1914 -0.0129  0.1789
 5492W        W21301  15.695  15.241  12.504  0.0635 -0.1367 -0.0923
 5493W        W21302  13.813   8.310   5.151 -0.0084  0.1274  0.1662
 5494W        W21303   4.221   5.535  15.330 -0.1333 -0.4429 -0.0336
 5495W        W21304  15.493  12.915   4.510  0.1158  0.1016 -0.0298
 5496W        W21305   0.803  18.404  15.306 -0.0816  0.2849  0.1062
 5497W        W21306   0.220   0.614  15.403  0.0760  0.1234  0.3114
 5498W        W21307   1.953  13.715  14.514 -0.0915 -0.2590 -0.0007
 5499W        W21308   7.850   2.412  13.957 -0.1710 -0.3518 -0.0057
 5500W        W21309  11.419  17.397  13.964 -0.0328  0.0644  0.3904
 5501W        W21310  17.498   9.139  13.756 -0.4929 -0.1716 -0.1251
 5502W        W21311   7.958   0.913   0.589 -0.0190  0.2539 -0.1774
 5503W        W21312   6.547  17.846   4.223  0.2242 -0.4290 -0.1097
 5504W        W21313  17.191  12.743  14.149  0.2388  0.2007  0.2240
 5505W        W21314   6.864  14.417  14.203 -0.1279  0.2672  0.1454
 5506W        W21315   5.069  17.870  11.205  0.2562 -0.1274  0.1516
 5507W        W21316  17.309  11.387   3.084  0.1733  0.1098  0.0728
 5508W        W21317   9.664   4.167  14.186  0.0154 -0.3188  0.1872
 5509W        W21318   3.427   3.047   5.229  0.1969 -0.0321 -0.0570
 5510W        W21319  17.395   2.378  12.284  0.1148 -0.0597  0.1780
 5511W        W21320   8.586  11.481   0.172 -0.0379 -0.1764  0.0883
 5512W        W21321  15.867   5.512   1.054  0.1578 -0.1238 -0.0819
 5513W        W21322  15.815   1.889  11.435 -0.1566 -0.0139  0.0943
 5514W        W21323  14.721  10.941  12.401  0.0808 -0.1840  0.0894
 5515W        W21324  13.157  12.137   5.026 -0.0574 -0.3098  0.1654
 5516W        W21325  16.511  16.060   4.282  0.2637 -0.1656 -0.0467
 5517W        W21326  10.619   8.874  13.773 -0.0624 -0.2099  0.0286
 5518W        W21327  16.787   1.421   4.414  0.2895  0.3348  0.2903
 5519W        W21328   8.269   1.116  14.627  0.2422  0.2333 -0.3360
 5520W        W21329  17.218  14.142  10.683  0.1739 -0.0237  0.3039
 5521W        W21330  12.750   3.338  12.332 -0.2162 -0.1609 -0.0135
 5522W        W21331   7.785  12.247   5.739  0.0106  0.0561 -0.1536
 5523W        W21332  16.364   5.688  12.882 -0.2921  0.0152  0.0121
 5524W        W21333  13.295   3.403   1.153  0.3646 -0.0068  0.2463
 5525W        W21334   5.857  18.560   0.968  0.0814  0.1688  0.0363
 5526W        W21335  10.295  17.939  12.449  0.0076  0.3990 -0.0202
 5527W        W21336   4.910   3.385  11.432  0.2334 -0.1911  0.0473
 5528W        W21337  14.669   2.297  15.209 -0.1815 -0.0580 -0.0737
 5529W        W21338   3.545   6.543   4.592 -0.2922 -0.2858 -0.3131
 5530W        W21339  14.771  17.953   1.402  0.1563 -0.0901  0.0669
 5531W        W21340  10.404  16.461   0.941 -0.1251 -0.1072 -0.2556
 5532W        W21341   3.694   1.949  14.042 -0.2527  0.1588  0.0416
 5533W        W21342  10.519  12.953  11.033  0.2068  0.1225 -0.0624
 5534W        W21343   1.955  14.562  10.684 -0.0153  0.0278  0.1401
 5535W        W21344  13.115   6.359   3.186  0.1458 -0.0136 -0.4895
 5536W        W21345  11.960  10.583   5.896  0.2923  0.1505  0.2218
 5537W        W21346   3.334   3.623  12.361  0.0740  0.1261 -0.2242
 5538W        W21347   9.661  16.036  12.809 -0.0215  0.2570 -0.1531
 5539W        W21348  12.736  10.463   3.336  0.0924  0.0778  0.0382
 5540W        W21349  10.275   7.528  14.772 -0.1201 -0.3130 -0.2089
 5541W        W21350   5.637  11.858  11.954 -0.0207  0.1545  0.1526
 5542W        W21351   0.274  14.506  11.500  0.3482 -0.3205  0.0857
 5543W        W21352   8.007   2.657   4.676 -0.0239  0.0926 -0.1955
 5544W        W21353   2.692   8.359   4.503  0.0813 -0.3438 -0.0189
 5545W        W21354  16.325   9.879  13.767 -0.1944 -0.2717  0.2601
 5546W        W21355  14.406   8.485   3.016  0.2275  0.0047 -0.3620
 5547W        W21356  13.435  11.067  13.310 -0.3230 -0.1160  0.1709
 5548W        W21357   7.657  17.544   1.673 -0.1795  0.1482 -0.0789
 5549W        W21358  11.280   4.754  11.422 -0.0831  0.1331 -0.2563
 5550W        W21359   8.919  15.062  15.285 -0.2494  0.0292 -0.2267
 5551W        W21360  13.813  16.097  11.719 -0.0707 -0.1438  0.1059
 5552W        W21361  17.794   1.087  13.118  0.0070 -0.0269  0.2495
 5553W        W21362  15.871   0.121   0.568 -0.0011 -0.2230  0.0660
 5554W        W21363  15.849  14.805  14.806  0.0029 -0.1095 -0.2178
 5555W        W21364   1.995  17.637  10.837 -0.1920  0.0377 -0.0754
 5556W        W21365  12.622   4.709   5.380  0.0906  0.0007  0.2677
 5557W        W21366   7.469   9.167   0.441  0.0788 -0.1193  0.2253
 5558W        W21367  14.952  13.614  14.789  0.0649 -0.1178  0.0966
 5559W        W21368  18.715   9.300  15.146  0.2083 -0.0001 -0.0504
 5560W        W21369  11.636  15.183  13.813  0.1919 -0.1305 -0.2367
 5561W        W21370  18.070   8.429  15.390  0.0521 -0.1996 -0.0665
 5562W        W21371   3.196  10.441   5.745 -0.1505 -0.0785 -0.3754
 5563W        W21372  11.742  14.148  13.153  0.0395 -0.1730  0.0025
 5564W        W21373   0.118  14.615   5.622 -0.0412  0.0329  0.2931
 5565W        W21374   3.055   1.959  15.406 -0.0875  0.3199  0.4212
 5566W        W21375   0.027   4.884   3.556  0.1491  0.3442 -0.0417
 5567W        W21376   3.935  12.614   0.074 -0.0878 -0.0000 -0.2872
 5568W        W21377  12.921   1.904   1.886 -0.0810  0.5156 -0.1619
 5569W        W21378   4.658   3.607   2.629  0.2428 -0.0291 -0.0041
 5570W        W21379   0.482  15.675   3.389 -0.2202  0.3622  0.5355
 5571W        W21380   0.290   7.016   4.338 -0.0401  0.0419  0.2726
 5572W        W21381  12.103   3.263  11.358 -0.1802  0.0316  0.1069
 5573W        W21382   0.083   9.491   3.396  0.1771 -0.1227 -0.0312
 5574W        W21383   6.077  15.793  13.665  0.0629  0.1293 -0.1480
 5575W        W21384   3.631   0.125   3.592 -0.1506  0.1207 -0.1455
 5576W        W21385  10.602  10.785  14.381  0.0402 -0.2635 -0.6866
 5577W        W21386   1.825  18.458   4.142  0.1283 -0.1321 -0.1267
 5578W        W21387  12.672   8.462   0.128 -0.1080  0.1909 -0.0252
 5579W        W21388  14.825   5.892  10.012 -0.3465  0.1477  0.0143
 5580W        W21389   3.715  16.957   0.151  0.0500  0.2541  0.1774
 5581W        W21390   2.059   3.312  11.668 -0.4281  0.3522 -0.0210
 5582W        W21391   6.333   7.656  13.280 -0.1334  0.1606 -0.0486
 5583W        W21392   0.754   7.402   2.003  0.2067  0.0120 -0.0772
 5584W        W21393   4.626  17.006  10.971  0.0492 -0.0610 -0.0397
 5585W        W21394   3.585  13.219  15.327 -0.1309  0.1077  0.2533
 5586W        W21395   0.640   2.412   2.198 -0.1487  0.0574 -0.0352
 5587W        W21396  11.906  17.034   4.453 -0.5045 -0.0423 -0.1362
 5588W        W21397  12.865   5.247  14.384 -0.3396  0.3532 -0.1025
 5589W        W21398  14.088  18.398   9.704  0.0166 -0.1034 -0.0502
 5590W        W21399   8.037  10.008   2.329  0.0270 -0.1767  0.0180
 5591W        W21400   3.205  16.529  15.403 -0.0709  0.0085  0.1647
 5592W        W21401  18.770   0.309  10.029  0.0837 -0.0409 -0.3395
 5593W        W21402   6.577   1.043   3.369  0.1117  0.2878 -0.0184
 5594W        W21403   3.818   0.183   4.390 -0.2107  0.1882  0.0901
 5595W        W21404  11.809   4.448  12.118  0.0952  0.2113  0.1483
 5596W        W21405  16.328  12.087  13.135 -0.1969  0.2843 -0.0585
 5597W        W21406   3.120   1.030  13.001 -0.0587 -0.1510 -0.0241
 5598W        W21407  17.333  14.756   4.335  0.0862  0.0778 -0.0340
 5599W        W21408  13.715   0.200  13.142  0.4100 -0.0608  0.2715
 5600W        W21409  14.110   0.067   4.746  0.0886  0.1852  0.3959
 5601W        W21410  10.544   2.148  11.328  0.0012 -0.0909  0.2019
 5602W        W21411  15.844   9.906   2.880 -0.1418  0.0384  0.2115
 5603W        W21412   1.574   8.400   0.232 -0.0737  0.0271 -0.0483
 5604W        W21413   4.234  14.266   5.451  0.2018 -0.1786  0.3235
 5605W        W21414  13.487  10.638   3.770 -0.5239  0.0816 -0.0830
 5606W        W21415  18.247   3.393   3.978  0.0078 -0.0118 -0.0868
 5607W        W21416  11.371   9.238   5.646 -0.1574  0.2482  0.2285
 5608W        W21417   8.573  15.416  12.400  0.1064 -0.2843 -0.1683
 5609W        W21418   4.916  14.218   4.818 -0.2257  0.0828 -0.1795
 5610W        W21419   5.120  16.563   4.018 -0.1220  0.4117  0.0760
 5611W        W21420  14.091  14.014  10.877 -0.0774 -0.1358  0.0774
 5612W        W21421   1.978   7.556  12.779  0.2469  0.1354  0.0907
 5613W        W21422  10.207   3.421  11.557 -0.0926 -0.2810 -0.2358
 5614W        W21423  13.177  18.160  12.438 -0.1494 -0.0329  0.4944
 5615W        W21424  12.075   3.684  10.685 -0.2196 -0.0737 -0.0212
 5616W        W21425  10.393  14.590   4.682 -0.0133  0.4142  0.1991
 5617W        W21426   0.569   7.482  15.428 -0.0120  0.1315 -0.0174
 5618W        W21427  13.661  11.236   1.621  0.3311 -0.2095  0.1079
 5619W        W21428  16.391  13.838   4.257 -0.2434 -0.2549 -0.0238
 5620W        W21429   8.446  18.433   2.239  0.2953  0.0564  0.0994
 5621W        W21430   8.402  18.393   0.297  0.0530 -0.0265 -0.2062
 5622W        W21431  16.136   1.423   2.558 -0.0965  0.0593  0.0406
 5623W        W21432   4.237  17.781  12.457  0.1597  0.0036  0.0754
 5624W        W21433  13.044  10.081   5.923 -0.0517 -0.0240  0.3202
 5625W        W21434   1.755   9.290   2.269  0.2751 -0.3644 -0.4078
 5626W        W21435   1.702  17.888  14.275  0.1084  0.0381 -0.1795
 5627W        W21436  18.419   0.154  12.559  0.4904 -0.1996  0.5473
 5628W        W21437   8.888  13.912   4.466 -0.3048 -0.1548  0.1805
 5629W        W21438   3.490   1.776   3.473  0.1328 -0.2269  0.1822
 5630W        W21439  14.473  13.746  14.903 -0.0430 -0.0306 -0.0698
 5631W        W21440   5.432   3.485   0.547  0.2258  0.0563 -0.0632
 5632W        W21441  17.806  14.348  12.284  0.2053  0.0262 -0.3790
 5633W        W21442   5.976   2.442  15.388 -0.1178 -0.0235  0.1457
 5634W        W21443   0.644   6.475  12.598  0.1652  0.1036  0.0212
 5635W        W21444  15.064  17.928  13.705  0.3058  0.5017 -0.1450
 5636W        W21445   5.265  13.324   1.450  0.2350  0.0563  0.1687
 5637W        W21446   7.818  16.513  14.578  0.2099 -0.2140 -0.0454
 5638W        W21447  16.068   6.538  15.412  0.1521  0.0738 -0.2559
 5639W        W21448   0.029  16.225  13.475  0.1326  0.1385 -0.0650
 5640W        W21449  12.188  12.035  10.673 -0.0064  0.0962  0.1269
 5641W        W21450  14.751   2.988  12.765  0.0297 -0.0671  0.3132
 5642W        W21451  15.022   9.637  14.790  0.0914 -0.2103 -0.0449
 5643W        W21452   9.998  11.807   2.295 -0.1255 -0.1463  0.1387
 5644W        W21453  17.852  14.672  11.756  0.2013  0.4510 -0.1310
 5645W        W21454   4.171  11.279   4.068 -0.0193 -0.1918  0.0543
 5646W        W21455  11.052   7.512  12.326  0.2668 -0.0095  0.1089
 5647W        W21456   6.181  14.242   0.348 -0.0079 -0.0899  0.0489
 5648W        W21457   4.078  17.373   3.084 -0.0420 -0.2102 -0.0621
 5649W        W21458   4.323   0.451  15.324 -0.3614 -0.1185 -0.0252
 5650W        W21459  16.759  13.698   4.618  0.2408  0.5358  0.1335
 5651W        W21460   0.777  11.586   2.062  0.2570  0.0413  0.0368
 5652W        W21461  13.932  16.632  12.315  0.1203 -0.1343  0.0935
 5653W        W21462  10.989  18.180   3.761 -0.0159 -0.1703  0.1195
 5654W        W21463   8.253   4.010   1.454 -0.2229 -0.1468  0.0506
 5655W        W21464   6.403   7.414   4.915 -0.3903  0.4944  0.3216
 5656W        W21465   6.872  13.644  15.228  0.3073 -0.0106  0.0275
 5657W        W21466   4.688   8.547   0.930  0.3203 -0.1272 -0.2904
 5658W        W21467   5.350  10.637   2.268  0.0778  0.0904  0.1299
 5659W        W21468  16.183   6.778  14.159 -0.1395  0.1787 -0.0511
 5660W        W21469  16.858  11.457   1.077  0.0574 -0.1193  0.0244
 5661W        W21470   5.200  17.469  14.496 -0.3781 -0.1925  0.1604
 5662W        W21471   1.266  10.212   0.674  0.1221 -0.2317 -0.0406
 5663W        W21472   5.484   2.412   2.570  0.0210 -0.0997  0.2117
 5664W        W21473   6.033  11.378  13.428 -0.2257  0.5485 -0.2309
 5665W        W21474  17.064  12.763  12.193  0.0837 -0.2900 -0.0557
 5666W        W21475  10.494   6.177  14.770 -0.0468  0.2398  0.1864
 5667W        W21476   8.779   9.160  12.470  0.2144 -0.0223  0.0608
 5668W        W21477  15.577  10.390  12.072 -0.2573 -0.1562 -0.3838
 5669W        W21478  14.242   8.003  13.999 -0.0944 -0.0659 -0.3003
 5670W        W21479  14.390  18.363  10.526 -0.0066  0.1427  0.0698
 5671W        W21480  17.675   4.107  13.811  0.3487 -0.2112 -0.0587
 5672W        W21481  15.621  11.146  12.557  0.0899  0.1287  0.0830
 5673W        W21482   0.453   7.854   1.473  0.3445 -0.0634  0.0499
 5674W        W21483   9.507  15.589  10.460 -0.1177  0.2637 -0.3342
 5675W        W21484   7.792   7.423   0.448  0.3943 -0.2771  0.1462
 5676W        W21485  11.738  14.722   1.456 -0.0829  0.3961 -0.1317
 5677W        W21486   6.384  18.314   0.826  0.4044  0.1243 -0.0142
 5678W        W21487  17.492   5.102   3.964 -0.1612  0.2264  0.1159
 5679W        W21488   4.100  10.629   2.990 -0.0303 -0.2331  0.0367
 5680W        W21489   7.089  15.158   3.709 -0.2196 -0.3380  0.0360
 5681W        W21490   9.286   4.870   3.991  0.1227 -0.3896 -0.1595
 5682W        W21491  16.225   6.172   3.434 -0.0187 -0.0765 -0.0735
 5683W        W21492   5.542   6.984   3.696 -0.3603 -0.1475 -0.0290
 5684W        W21493   4.973   8.450  11.055 -0.0175  0.0564  0.1258
 5685W        W21494  11.528   5.857   2.465  0.0876  0.0678 -0.1206
 5686W        W21495  16.408  12.727  13.208  0.0898  0.2825  0.2031
 5687W        W21496   7.731  14.398  11.319 -0.1177  0.0441 -0.0017
 5688W        W21497  14.785   2.511  12.137  0.2216  0.1023 -0.1275
 5689W        W21498   9.975   8.075   5.663 -0.0891  0.2083  0.2245
 5690W        W21499  14.784  11.860  13.557  0.2284 -0.0683  0.1395
 5691W        W21500   4.480  12.976   1.020 -0.0179  0.2566  0.1468
 5692W        W21501   2.072  13.519  12.125  0.1351 -0.0104  0.1623
 5693W        W21502  14.190   0.980   4.165 -0.1541  0.0250 -0.4171
 5694W        W21503  12.042   6.596   2.180 -0.2332 -0.0375  0.4908
 5695W        W21504  18.195  12.980   1.268  0.3076  0.0784 -0.0535
 5696W        W21505   8.206   9.253  13.531 -0.0817 -0.0407  0.1925
 5697W        W21506   8.293   2.365  13.553  0.0960  0.0811  0.0280
 5698W        W21507   0.578   7.727   5.450  0.1782 -0.1784  0.0736
 5699W        W21508  15.194   8.671  13.029  0.4080 -0.1124  0.0710
 5700W        W21509  17.779   5.165  13.328  0.4036 -0.1704  0.0991
 5701W        W21510   4.737  16.900   3.945 -0.2655  0.1849  0.3536
 5702W        W21511  13.024   8.185   1.584  0.3290 -0.0554 -0.0470
 5703W        W21512   5.702  18.424  13.528  0.3642 -0.0081 -0.0072
 5704W        W21513   5.543   3.187   1.243  0.2305 -0.4433 -0.0349
 5705W        W21514   9.469  10.506   0.454  0.1411  0.0820 -0.3378
 5706W        W21515   3.856   1.124   2.677  0.0380  0.4244 -0.0654
 5707W        W21516   5.221  13.971  14.808  0.0119  0.1850 -0.0585
 5708W        W21517   1.136  11.227   4.719  0.1773  0.3481  0.0000
 5709W        W21518  13.664  12.222   4.857 -0.3824 -0.2200 -0.3801
 5710W        W21519  11.220   0.996   5.072  0.1361 -0.0299  0.1071
 5711W        W21520  18.174   9.544   1.658  0.0063  0.2830 -0.1519
 5712W        W21521  10.930  18.379   0.437  0.0976 -0.1902  0.4873
 5713W        W21522  12.783   4.475  11.474  0.1604 -0.1811 -0.1066
 5714W        W21523  15.858   0.418   3.980 -0.1330 -0.0385  0.1057
 5715W        W21524   5.817  15.478   4.584 -0.2278 -0.0145  0.0278
 5716W        W21525   2.201  11.899  11.070 -0.0750  0.0119  0.3800
 5717W        W21526   8.718   5.380  11.691 -0.0383 -0.1049  0.4241
 5718W        W21527  13.419  15.794  12.528 -0.2653 -0.2985 -0.0086
 5719W        W21528  17.318  13.322  12.090  0.4722 -0.1731  0.1154
 5720W        W21529   9.930   6.353  14.729 -0.1970 -0.0421  0.0521
 5721W        W21530  12.022   4.583  11.146 -0.1128 -0.0285 -0.1101
 5722W        W21531  16.180  12.393   4.506 -0.0989  0.3360  0.3187
 5723W        W21532  10.003  15.204   2.217  0.1493 -0.2995  0.1676
 5724W        W21533  18.909  14.187   4.665  0.4604  0.2242 -0.1224
 5725W        W21534   0.297  12.207   4.817  0.1191  0.1866  0.1345
 5726W        W21535   5.055   6.850  13.245 -0.1649  0.1699 -0.4435
 5727W        W21536   7.815  14.119   1.884 -0.3174 -0.1632  0.1722
 5728W        W21537   7.766  13.873   2.622  0.0642 -0.0217  0.1011
 5729W        W21538  17.144  15.402   1.422 -0.0962 -0.1122  0.0342
 5730W        W21539  17.719   6.574  12.552  0.1435  0.3481  0.1189
 5731W        W21540  12.276  17.195   2.835 -0.1364  0.0713  0.1736
 5732W        W21541   0.838   0.845  12.333  0.0272 -0.1838 -0.0021
 5733W        W21542  10.013   3.223   0.362  0.1762  0.4346  0.0351
 5734W        W21543   6.423  16.657   2.772 -0.1323  0.0849  0.3393
 5735W        W21544   6.467  10.767   1.590 -0.3692 -0.2333 -0.1872
 5736W        W21545   0.024   0.030   3.620  0.1951  0.1469  0.1018
 5737W        W21546  14.713  16.827   3.711 -0.1879  0.2753  0.0867
 5738W        W21547  11.865  16.357   1.682  0.2079  0.0385 -0.2098
 5739W        W21548  11.710   4.746   1.718 -0.1924  0.0412  0.1461
 5740W        W21549  11.547  10.023   3.041  0.2028  0.4042 -0.0027
 5741W        W21550   5.444  16.159  13.210  0.1583 -0.1036 -0.0427
 5742W        W21551   1.545   2.775  12.398  0.0258  0.0553 -0.3497
 5743W        W21552  11.030  18.529   1.154  0.1611 -0.1023 -0.0038
 5744W        W21553   5.826   1.520   5.009  0.1392  0.3132 -0.3501
 5745W        W21554   8.838  10.251   4.139  0.2300  0.0375 -0.5349
 5746W        W21555   2.203  18.644  13.110 -0.1502 -0.1519 -0.0004
 5747W        W21556  10.102   4.551  14.178 -0.1844  0.2513 -0.0122
 5748W        W21557  18.526   0.672  13.951 -0.0796 -0.2100  0.3692
 5749W        W21558  11.446   8.206  11.362  0.1493  0.4244 -0.5390
 5750W        W21559  10.850  12.488   1.002  0.0836 -0.1001 -0.1045
 5751W        W21560   9.563   1.688  12.661 -0.1509 -0.0260  0.0839
 5752W        W21561  11.995  13.956   0.512  0.0367  0.0491 -0.2296
 5753W        W21562   2.504  10.919   3.953 -0.3245 -0.0898 -0.3321
 5754W        W21563  13.244  14.110   1.974 -0.1447 -0.0722  0.3876
 5755W        W21564   4.075   1.313   0.192 -0.4021 -0.0947  0.2552
 5756W        W21565  14.260  13.021   4.800 -0.0123 -0.0992  0.2627
 5757W        W21566  11.968  11.675  12.184  0.1236 -0.2350 -0.1598
 5758W        W21567   9.235  14.992   2.322  0.0980  0.0929 -0.0039
 5759W        W21568  12.708   2.323   2.482 -0.0144 -0.0054 -0.3284
 5760W        W21569  14.624   8.584   5.644  0.0242 -0.2385 -0.3357
 5761W        W21570   7.751  10.154   4.323 -0.0041 -0.1370  0.0388
 5762W        W21571  18.349   4.398  12.083 -0.2793  0.0050 -0.0087
 5763W        W21572  16.445  16.159   2.822  0.3829 -0.1879 -0.0895
 5764W        W21573   0.512  11.940   2.994  0.0499  0.1097  0.0209
 5765W        W21574   7.857   7.533  15.386  0.0916 -0.0816  0.0766
 5766W        W21575   4.522  18.165  13.287  0.1277 -0.1222 -0.1104
 5767W        W21576   3.637   9.264  15.134  0.1465 -0.0502 -0.0987
 5768W        W21577   2.685  17.417   2.667  0.0401 -0.0654 -0.2412
 5769W        W21578  12.220  14.561   1.825  0.0544 -0.1882 -0.2971
 5770W        W21579  16.696   1.701  14.914 -0.1995 -0.1627  0.0976
 5771W        W21580  16.028   9.379  13.993  0.0887 -0.1338 -0.0330
 5772W        W21581   6.709   4.354   3.936  0.0273 -0.3202  0.3395
 5773W        W21582   8.823   9.170  15.179  0.1278 -0.2159 -0.0509
 5774W        W21583  10.728  15.470   0.164 -0.1749  0.0139 -0.1687
 5775W        W21584   3.900  14.312   3.570 -0.2439  0.1445 -0.1503
 5776W        W21585   1.390  11.517   1.756 -0.1780  0.1163 -0.0460
 5777W        W21586   0.884   0.797   3.314 -0.3374  0.2115  0.1829
 5778W        W21587   2.706   4.653   3.900  0.2342  0.1367  0.4071
 5779W        W21588  10.347   3.348   4.623  0.3407 -0.0869  0.0780
 5780W        W21589  18.361   8.354  11.946 -0.0282 -0.0285  0.0531
 5781W        W21590   7.533   1.788   1.923  0.0853  0.2585  0.0121
 5782W        W21591   7.910   0.788   2.610  0.1410  0.1246  0.1274
 5783W        W21592   8.552  13.310   2.877 -0.2419 -0.1079 -0.1176
 5784W        W21593  16.594  18.606   1.353 -0.0923  0.1501 -0.2833
 5785W        W21594  11.710   2.465  14.656  0.4035 -0.1814  0.1014
 5786W        W21595   6.776  10.417  11.219 -0.2625  0.0527  0.1168
 5787W        W21596   0.053  14.295  10.210 -0.1268  0.1387  0.2540
 5788W        W21597   8.377   3.466  14.923  0.1720  0.0230 -0.1708
 5789W        W21598  18.339  13.229   2.748  0.2703  0.2271 -0.1792
 5790W        W21599   1.316   7.998   1.536 -0.3293 -0.0577  0.0395
 5791W        W21600  10.159  11.036   2.771 -0.3390  0.0018  0.1188
 5792W        W21601   0.511   4.565  14.791 -0.0025 -0.0069  0.3904
 5793W        W21602  16.934   2.677   3.643  0.2128 -0.0233 -0.1115
 5794W        W21603   7.969   6.713   2.944 -0.0181 -0.0488  0.2365
 5795W        W21604   9.270   1.366  11.333 -0.0581 -0.2195  0.0183
 5796W        W21605  11.957  13.590   5.705 -0.1461 -0.2559 -0.1533
 5797W        W21606   0.167  13.315   4.621  0.2435 -0.0003 -0.2049
 5798W        W21607  17.612   0.575   2.653  0.2906  0.0019 -0.3380
 5799W        W21608   3.690   9.414   1.600  0.0563  0.0324 -0.2011
 5800W        W21609   5.354   1.643   3.101 -0.0352 -0.0994 -0.3901
 5801W        W21610   0.254   9.653  12.981  0.0192 -0.1605 -0.1059
 5802W        W21611  10.520   9.902   2.234  0.0648 -0.1139  0.1045
 5803W        W21612   4.394   4.392  11.975 -0.0490 -0.1567  0.0375
 5804W        W21613  15.570   1.532  15.209  0.2568  0.0771 -0.0369
 5805W        W21614  14.570  10.504   2.708  0.2458 -0.1655  0.1613
 5806W        W21615  15.459  12.374  15.109  0.0458 -0.3585 -0.1386
 5807W        W21616  18.491   2.952  15.055  0.0240  0.2526  0.2632
 5808W        W21617   7.814  18.652  12.631 -0.1801  0.1413 -0.0708
 5809W        W21618   8.680   2.983  14.706 -0.0322 -0.1257 -0.0146
 5810W        W21619   1.163   3.423   0.496 -0.0482 -0.0704  0.1263
 5811W        W21620   2.957  15.283   1.034  0.1312  0.2667  0.2870
 5812W        W21621  17.689   6.984  11.936  0.1298 -0.1215  0.0093
 5813W        W21622   7.677   7.853   1.394  0.4530  0.3279 -0.0851
 5814W        W21623   5.824  14.251   0.791 -0.5386  0.4102  0.1282
 5815W        W21624   7.065   1.454   4.562  0.2634  0.1694 -0.3044
 5816W        W21625   9.397  15.314  11.743  0.0236 -0.0138 -0.0952
 5817W        W21626  14.121   2.537  13.263 -0.0930  0.0508 -0.0275
 5818W        W21627   2.924  14.071  11.088 -0.1877 -0.1450  0.1537
 5819W        W21628   1.491  17.825   2.891  0.0343 -0.2359  0.0613
 5820W        W21629  17.311   3.326  15.410  0.2979 -0.2128 -0.0551
 5821W        W21630   2.058   6.062   2.826 -0.0022  0.0639 -0.0721
 5822W        W21631   6.468   0.327  12.524 -0.1657  0.4197  0.2584
 5823W        W21632  13.041  12.568  13.999 -0.0329 -0.4064 -0.2323
 5824W        W21633  18.208   5.519  13.122 -0.0377 -0.1181 -0.0579
 5825W        W21634   4.851  10.805   4.358  0.0505  0.0522  0.0301
 5826W        W21635  12.955   8.969   1.764  0.1544  0.0595  0.1205
 5827W        W21636   4.671   3.908   4.208 -0.1120 -0.2620  0.3958
 5828W        W21637   4.963   1.962   0.995  0.0213 -0.1036 -0.0103
 5829W        W21638   9.542   7.383  13.496 -0.1370  0.1648  0.1906
 5830W        W21639   4.393  11.446   0.871  0.0585  0.3018 -0.1139
 5831W        W21640   8.137   3.288   2.581 -0.1931 -0.0455  0.1793
 5832W        W21641  16.817  11.794   0.148 -0.0786 -0.0893 -0.3665
 5833W        W21642   3.736  18.558  12.353 -0.1824  0.1842  0.3325
 5834W        W21643  16.716  11.102  11.288  0.3159  0.0068  0.0345
 5835W        W21644   1.222   4.076  12.042  0.1048  0.1182  0.0712
 5836W        W21645  13.116  14.327  12.888  0.2019 -0.4962 -0.2606
 5837W        W21646  12.436  11.958  14.631  0.2534 -0.1175 -0.0891
 5838W        W21647   6.584   7.933   1.987 -0.0271  0.1449 -0.2169
 5839W        W21648  17.447   2.717   0.465  0.0392  0.0423 -0.2648
 5840W        W21649   2.526  14.845   3.353  0.3877 -0.2939 -0.0643
 5841W        W21650   7.584   6.405  14.310  0.1286  0.0192  0.1047
 5842W        W21651  17.481  18.322   3.930  0.1274 -0.0659 -0.1782
 5843W        W21652   4.545  16.795  12.130 -0.2039 -0.0136  0.1789
 5844W        W21653  13.844   5.098  15.220  0.0776  0.2741  0.0381
 5845W        W21654   2.440  18.439   4.101  0.0504  0.1698  0.0684
 5846W        W21655  14.644  17.494   3.182 -0.0194 -0.0222  0.4860
 5847W        W21656   6.289   2.004   1.960 -0.1813 -0.1047  0.1211
 5848W        W21657   6.254   3.343  11.613 -0.3114  0.2349  0.1771
 5849W        W21658  11.817   9.502  11.514  0.2409  0.1021  0.0951
 5850W        W21659   7.997  11.707  13.815  0.2536  0.0105 -0.0365
 5851W        W21660   9.675   9.381  12.067  0.1690 -0.0469  0.1067
 5852W        W21661  15.579  11.515   3.980  0.0371  0.1070 -0.0332
 5853W        W21662  11.089  15.495  10.342 -0.1244  0.0292 -0.2847
 5854W        W21663  12.931  10.277   3.867 -0.2121 -0.1932 -0.0350
 5855W        W21664  16.185   0.054  14.826 -0.0678  0.1022  0.1736
 5856W        W21665   0.180  11.284  10.524 -0.0566  0.2957 -0.0807
 5857W        W21666  17.846   8.198   0.882 -0.1547 -0.0928  0.0642
 5858W        W21667   4.050   3.464  11.202 -0.1329 -0.0473  0.1450
 5859W        W21668  10.813  10.907   2.250 -0.0478 -0.0949 -0.1227
 5860W        W21669  16.628  18.582  11.861  0.0253  0.0168 -0.1851
 5861W        W21670  14.787   7.477   3.212 -0.1618 -0.1724  0.2782
 5862W        W21671  11.186   4.118   4.463  0.3410 -0.1631 -0.3292
 5863W        W21672  17.849  11.352   1.733 -0.1586 -0.4705 -0.2127
 5864W        W21673   0.794  15.901  12.842 -0.1678  0.2563 -0.1649
 5865W        W21674   1.197   2.312   2.225  0.2507  0.0854  0.0619
 5866W        W21675  10.678   9.892  12.779 -0.3163 -0.2793 -0.2777
 5867W        W21676   2.467  17.357   2.215  0.1266 -0.2758 -0.1583
 5868W        W21677  18.437  17.783   1.193  0.3332 -0.3827 -0.1405
 5869W        W21678   4.474   4.440   0.862  0.0897  0.0045  0.1423
 5870W        W21679   5.403  16.626  15.141 -0.2625 -0.1687 -0.1424
 5871W        W21680  12.549   8.920   4.672  0.0186  0.0691 -0.1664
 5872W        W21681  10.083   5.843  14.703  0.2684  0.0747  0.1898
 5873W        W21682   9.477  13.910   3.790  0.1915  0.5097  0.1340
 5874W        W21683   2.347   2.602  11.837 -0.0132 -0.1851 -0.2218
 5875W        W21684  12.016   1.913   0.086 -0.1669  0.1474 -0.2178
 5876W        W21685  11.247   2.228  15.017 -0.1154  0.2242 -0.1542
 5877W        W21686  15.809   6.137   4.858  0.1158 -0.0891  0.0250
 5878W        W21687  14.423   9.187   5.300 -0.2991  0.0027 -0.0227
 5879W        W21688  14.002  12.473  14.363  0.2445  0.0559 -0.2097
 5880W        W21689  15.751  11.287   4.853  0.1491  0.1291 -0.2352
 5881W        W21690  17.551  15.103   5.766 -0.3194 -0.2615  0.0090
 5882W        W21691   0.553  11.965   5.144  0.0579 -0.5108  0.0539
 5883W        W21692  11.228   3.684   4.216  0.0154 -0.1279  0.1203
 5884W        W21693   5.089   4.945   0.014  0.0153  0.0917 -0.0458
 5885W        W21694  11.453  14.543  12.254  0.1958 -0.1105 -0.1347
 5886W        W21695   6.837   6.400  14.125 -0.3180 -0.3793 -0.0684
 5887W        W21696  16.325  17.664   2.838  0.4577  0.1855 -0.1070
 5888W        W21697  10.006  13.461  12.158 -0.2047  0.2008  0.0634
 5889W        W21698  10.904   2.879   3.719 -0.1647 -0.2948 -0.0775
 5890W        W21699  13.291  10.411   1.496 -0.1220 -0.0908  0.1394
 5891W        W21700   6.172  15.084   1.894 -0.0659 -0.1678 -0.2890
 5892W        W21701   9.409  15.935  14.880 -0.0744  0.0907  0.1967
 5893W        W21702   1.175  15.157   3.283  0.0214  0.1896 -0.3589
 5894W        W21703   7.693  10.181   1.015  0.1776 -0.1965 -0.1330
 5895W        W21704   1.271  11.561   4.378  0.1786 -0.0666 -0.3349
 5896W        W21705   2.220  13.452   0.157 -0.2298 -0.1250  0.1275
 5897W        W21706   6.948   3.850   0.517  0.1262 -0.0381  0.0959
 5898W        W21707   4.661   6.839   2.515  0.4737 -0.1225 -0.0122
 5899W        W21708  12.405   4.693  15.144  0.1626  0.2107  0.3209
 5900W        W21709  16.942  18.378  15.157  0.0588  0.5375  0.2845
 5901W        W21710  13.745   9.484  13.761  0.0152 -0.2214  0.1122
 5902W        W21711   5.399  18.154  12.794  0.1520  0.3751 -0.0464
 5903W        W21712  16.114  13.605  12.413  0.0767  0.1500  0.2846
 5904W        W21713  15.724  17.042  11.899  0.0696  0.0355  0.0152
 5905W        W21714   1.409   1.231   3.444 -0.3529  0.1232  0.0910
 5906W        W21715   9.879   8.546  10.829  0.1480 -0.0922 -0.0355
 5907W        W21716  12.152   8.541  11.226  0.4214 -0.0967  0.3987
 5908W        W21717   3.949  17.302   4.955  0.0925 -0.0716  0.1110
 5909W        W21718   1.712  18.256   3.155 -0.0321 -0.0581 -0.4363
 5910W        W21719  15.870  11.923   1.583 -0.1381  0.2198 -0.2489
 5911W        W21720  10.863   0.465   0.529 -0.2999  0.0937 -0.2681
 5912W        W21721   0.152   3.223  10.716 -0.0563 -0.2119 -0.1077
 5913W        W21722   7.374   1.948   1.428 -0.2302 -0.0306  0.1660
 5914W        W21723  15.988  13.385   5.707 -0.2224 -0.1098 -0.0206
 5915W        W21724  12.108  15.123   1.516  0.1319  0.0965 -0.1643
 5916W        W21725   8.265   0.972  10.337 -0.3536  0.3100 -0.0483
 5917W        W21726   7.692  16.226  13.474 -0.1328  0.0019  0.0913
 5918W        W21727   0.808  12.597   2.596  0.0290  0.1043 -0.0438
 5919W        W21728  17.494  16.372  11.505 -0.4293 -0.0118 -0.0760
 5920W        W21729  12.804   8.505   4.443 -0.1005  0.0046 -0.3993
 5921W        W21730   3.755  15.979   2.139 -0.0760  0.0638 -0.1366
 5922W        W21731   7.726   2.205   0.690 -0.1687 -0.0806  0.0757
 5923W        W21732   9.307   9.182   1.398  0.2038  0.1001 -0.0157
 5924W        W21733  15.105   0.672   3.982 -0.1101 -0.2123 -0.3021
 5925W        W21734   0.270   7.079  14.668 -0.0052  0.2015 -0.2996
 5926W        W21735  10.746   2.361  12.406 -0.1708  0.2513 -0.0677
 5927W        W21736   5.727  17.583  14.276  0.1478 -0.1407 -0.1209
 5928W        W21737  12.658  13.002   0.296 -0.0906  0.0382  0.2143
 5929W        W21738   1.971  13.648  15.016 -0.3816 -0.1354  0.2083
 5930W        W21739  10.592  12.308   4.252  0.0215  0.1129  0.0586
 5931W        W21740   2.206  18.171   3.110  0.6205  0.2114 -0.0217
 5932W        W21741   0.119  15.427   4.146  0.0464 -0.2047  0.1832
 5933W        W21742  14.251  16.381  11.907  0.3678 -0.1694 -0.0201
 5934W        W21743   0.207  13.143   0.253  0.0021 -0.0013 -0.0907
 5935W        W21744   5.739   9.572  11.750  0.0398  0.3300 -0.0159
 5936W        W21745  10.686   0.216  12.055  0.3411  0.0845  0.1710
 5937W        W21746   1.800   4.828   2.810 -0.2154 -0.0180 -0.2113
 5938W        W21747  15.766  16.512   0.134  0.0153  0.3392 -0.2038
 5939W        W21748  13.338   3.896   1.876  0.1208  0.4020  0.0060
 5940W        W21749  14.809   6.438   1.404 -0.2256  0.2078 -0.1388
 5941W        W21750   1.387   1.792  12.201  0.0403 -0.3004  0.1480
 5942W        W21751  13.687   5.198   0.718 -0.1221  0.0807  0.0635
 5943W        W21752  14.157  16.110   1.554  0.0752 -0.0935 -0.0970
 5944W        W21753   1.701   2.731  15.128  0.0797  0.3204  0.0458
 5945W        W21754  10.153   7.249  11.258 -0.2251 -0.0103 -0.1092
 5946W        W21755  12.246   7.780   4.542  0.0248 -0.0884  0.0219
 5947W        W21756  10.889  14.459   4.894  0.1528  0.0305  0.0775
 5948W        W21757   3.463  17.877   2.439  0.3095 -0.0734 -0.2418
 5949W        W21758  16.359  10.039   5.228 -0.3182 -0.1445  0.0471
 5950W        W21759   2.553   9.811  11.498  0.1347  0.3213 -0.1631
 5951W        W21760  10.891   3.347  12.357 -0.0927 -0.0999 -0.0615
 5952W        W21761   1.422  14.548   0.832 -0.0134  0.1413  0.1707
 5953W        W21762  18.615  15.764   4.763  0.2339 -0.1008  0.4745
 5954W        W21763  11.343  17.420  10.366 -0.0463 -0.3199 -0.0630
 5955W        W21764   2.408   5.468  13.832  0.2751 -0.0817 -0.2183
 5956W        W21765  12.234  11.871  11.274  0.0451  0.1421  0.0188
 5957W        W21766   6.323  12.636  12.700  0.2939 -0.2471 -0.2177
 5958W        W21767   1.616  16.584   1.396 -0.0131  0.1347 -0.2538
 5959W        W21768   3.182  10.330  10.835  0.2890  0.3334  0.0848
 5960W        W21769   2.465  18.238  13.283  0.0704 -0.0864 -0.1189
 5961W        W21770   0.660  15.410  14.765  0.2712 -0.2145  0.1243
 5962W        W21771  12.543   5.443   3.840 -0.1953 -0.0430 -0.2371
 5963W        W21772  12.243   9.152   0.429  0.0387 -0.2819 -0.3551
 5964W        W21773   2.641  15.793   1.397  0.0624 -0.0066 -0.0035
 5965W        W21774  11.631   3.376  13.149  0.0394 -0.3348 -0.2229
 5966W        W21775   1.188  15.413  10.035  0.0096  0.0495 -0.1685
 5967W        W21776   6.929  17.725   4.553  0.0262 -0.0480  0.1009
 5968W        W21777  16.436   2.533  13.761 -0.2408 -0.0557  0.1650
 5969W        W21778  10.248  12.925   2.498  0.0643  0.0458  0.0619
 5970W        W21779   4.156  12.850  11.205  0.0717 -0.0259 -0.1304
 5971W        W21780   7.066  17.184  12.574 -0.1756  0.0074  0.1686
 5972W        W21781  12.170  15.809   0.403  0.1195 -0.0558  0.1777
 5973W        W21782  17.739   3.238   2.861  0.1430  0.1586 -0.1352
 5974W        W21783   2.294  18.908   5.415  0.2324  0.0797  0.2067
 5975W        W21784   1.931   7.926   3.563  0.0129  0.0063  0.0603
 5976W        W21785   1.385  14.487  14.311 -0.3542 -0.1328  0.1486
 5977W        W21786  12.938  10.107  11.832  0.3564  0.4705 -0.0154
 5978W        W21787   4.724  18.477   2.462  0.1389 -0.2490 -0.1312
 5979W        W21788   6.946  14.190  12.472  0.1727  0.2106  0.2597
 5980W        W21789  11.018  15.003   0.323 -0.1957 -0.0559 -0.1090
 5981W        W21790   4.487  15.310   4.542 -0.0124  0.0065  0.0383
 5982W        W21791  18.618   1.969  12.798  0.0980 -0.0991  0.4132
 5983W        W21792  17.256   4.701   3.190 -0.2131  0.0806 -0.0308
 5984W        W21793  13.306  17.787  11.828  0.1252 -0.3191 -0.3655
 5985W        W21794  18.523   6.443   4.461  0.3113 -0.2690 -0.1247
 5986W        W21795  14.350   2.217   2.871  0.0508  0.0515 -0.0544
 5987W        W21796  14.419  16.258   2.822  0.1918 -0.2262  0.2025
 5988W        W21797   5.598  16.289   5.395 -0.0025  0.2944  0.1722
 5989W        W21798  17.551  16.918   3.890 -0.2541  0.1798  0.0204
 5990W        W21799  14.084   4.068   2.525 -0.3072  0.0324  0.1534
 5991W        W21800   0.052  18.416   2.358 -0.2259 -0.0681 -0.3323
 5992W        W21801   1.513  15.721  11.977 -0.0113 -0.0407  0.0894
 5993W        W21802   2.401   1.841   2.598  0.2320 -0.1653 -0.1327
 5994W        W21803  16.291  17.753   1.143  0.0177  0.1583 -0.4924
 5995W        W21804  10.514  13.576   5.114 -0.0939 -0.4064  0.0177
 5996W        W21805   3.726  12.592   0.561 -0.1029  0.1601  0.2159
 5997W        W21806  17.782   5.089  13.828  0.0660 -0.0569 -0.3941
 5998W        W21807  16.656  14.212  11.294  0.0316 -0.0937  0.0579
 5999W        W21808  11.181   9.616   2.181 -0.1630  0.1053  0.0959
 6000W        W21809  13.485  12.825  14.384 -0.1650  0.1604  0.1412
 6001W        W21810  17.169  12.179   0.168  0.2926  0.0815 -0.0772
 6002W        W21811  11.753  14.272   4.518 -0.2690  0.1284 -0.0082
 6003W        W21812   8.185   5.144  10.721  0.2421 -0.1950 -0.1765
 6004W        W21813   8.131  18.534  10.494  0.1541  0.1101 -0.1934
 6005W        W21814   1.077   0.156   1.527  0.1780  0.1835 -0.0058
 6006W        W21815  16.105   1.372  12.905 -0.0981  0.1490  0.1551
 6007W        W21816   6.504   8.730   1.340  0.2484 -0.0887 -0.2716
 6008W        W21817   5.327  13.153   3.187 -0.1115  0.0243  0.4611
 6009W        W21818   2.277   7.886  14.136  0.0856  0.0286  0.1504
 6010W        W21819  17.108  11.837  11.004  0.4005 -0.0913 -0.1513
 6011W        W21820  13.145   5.718   5.019  0.0101 -0.1758 -0.2385
 6012W        W21821  11.240  14.955  13.382  0.0969 -0.3601  0.0698
 6013W        W21822   2.768  17.579   4.919 -0.0709 -0.3775 -0.1507
 6014W        W21823  12.696   1.562   1.112 -0.2853 -0.0052  0.1505
 6015W        W21824  16.564  16.701  15.095 -0.0009  0.1018 -0.0439
 6016W        W21825   3.547  17.417  14.968 -0.0811  0.2571  0.2686
 6017W        W21826  15.731   0.967   2.071 -0.2524 -0.0781 -0.2142
 6018W        W21827   3.529  17.416   3.354  0.5012 -0.4457 -0.1019
 6019W        W21828  15.506   3.969   2.683  0.1674  0.2423 -0.0447
 6020W        W21829   6.899  13.095   1.551  0.3348  0.0492 -0.1795
 6021W        W21830   4.745   7.416   3.826 -0.0334  0.2307  0.2731
 6022W        W21831  11.933   1.788   1.981 -0.0848  0.0362 -0.1034
 6023W        W21832  15.836   5.998  13.240 -0.2548 -0.3117 -0.1754
 6024W        W21833   0.162   5.276   5.381 -0.3441 -0.1086 -0.0978
 6025W        W21834   8.099  16.555   0.120  0.0093  0.2427  0.2702
 6026W        W21835   3.346  17.568  11.486 -0.2775  0.4549 -0.1113
 6027W        W21836   7.029  17.414  14.304 -0.1274 -0.1973  0.3509
 6028W        W21837  18.526  15.025  13.308 -0.0404  0.0303 -0.0085
 6029W        W21838  16.868   5.330  13.525  0.0321  0.0040  0.2320
 6030W        W21839   1.671  15.274   5.538 -0.2127  0.1259  0.1526
 6031W        W21840  17.760   2.179   3.068 -0.0342 -0.1048  0.3247
 6032W        W21841   1.054   4.602   0.272 -0.2413  0.2014  0.0745
 6033W        W21842  18.478  12.170  13.049 -0.0986  0.0180 -0.1438
 6034W        W21843   3.308  11.405   0.162 -0.0321 -0.3675  0.1833
 6035W        W21844  17.389  13.961  13.970  0.0111  0.1166 -0.0107
 6036W        W21845  18.080   5.541   1.137  0.0028  0.0512  0.2426
 6037W        W21846  18.771  13.515   0.730 -0.1492 -0.4182 -0.2281
 6038W        W21847   5.945   0.685   4.405  0.0364 -0.0344  0.3488
 6039W        W21848  10.990  12.818  11.737  0.2116 -0.1397  0.0343
 6040W        W21849   5.319   0.257  15.073  0.1132 -0.1686  0.0624
 6041W        W21850   7.634   7.888  11.199 -0.3459  0.0552  0.0845
 6042W        W21851   5.078  13.986   4.392  0.0162  0.1430 -0.3359
 6043W        W21852   7.283   5.124   2.428  0.2762  0.1083 -0.0776
 6044W        W21853   2.580   4.336  11.715  0.1638 -0.2222  0.2094
 6045W        W21854   0.919  18.490   2.530 -0.0458 -0.5064  0.0515
 6046W        W21855   5.792   1.719   2.172  0.1859 -0.0735 -0.0993
 6047W        W21856  11.011  14.522  13.652 -0.0883 -0.1351  0.2816
 6048W        W21857   8.442   7.206   4.704 -0.2358  0.1476 -0.1086
 6049W        W21858  15.140   8.784   2.665  0.0726  0.2461 -0.0121
 6050W        W21859   8.107  13.679   3.145  0.3228 -0.0734 -0.0464
 6051W        W21860   8.963  11.470  13.823  0.0633  0.2965  0.2632
 6052W        W21861   2.328  10.838   3.170 -0.0722 -0.0192 -0.3410
 6053W        W21862  18.077  13.749  13.745  0.0640  0.0370  0.2776
 6054W        W21863   9.963  13.955  10.922  0.0096 -0.0261 -0.0367
 6055W        W21864  16.163  16.003   2.389 -0.4845 -0.1302  0.0714
 6056W        W21865   2.517   5.575   0.821 -0.0680 -0.0217 -0.4118
 6057W        W21866   2.424   5.244   3.246 -0.3605 -0.1581  0.1453
 6058W        W21867   0.298   3.901   5.056  0.3083  0.0811  0.0580
 6059W        W21868  13.413  13.548  14.214  0.3184  0.1434 -0.2486
 6060W        W21869   0.933  18.893   0.543  0.1811 -0.0137 -0.1468
 6061W        W21870  14.402   5.041  15.103  0.1305 -0.1156  0.1126
 6062W        W21871   0.841  15.619  13.273 -0.0749 -0.4294  0.0745
 6063W        W21872  16.574  10.255   3.273 -0.0384  0.1939 -0.1219
 6064W        W21873   5.540  13.299  15.330 -0.2013  0.3827  0.0824
 6065W        W21874  15.283   7.994   3.068 -0.2629 -0.2500  0.2478
 6066W        W21875   4.827   5.195  10.546  0.0067  0.0802 -0.0862
 6067W        W21876  18.260   8.275   3.541  0.4048 -0.1415 -0.0380
 6068W        W21877   4.828  10.903  12.357  0.1565  0.1004 -0.2779
 6069W        W21878  14.067  10.812   5.686 -0.0221  0.3147 -0.4435
 6070W        W21879  17.833   5.203  11.309  0.1522 -0.1437 -0.2160
 6071W        W21880  11.386   3.951   5.585  0.0931  0.3439  0.3051
 6072W        W21881  12.372  15.618   4.679  0.0120  0.1006 -0.2429
 6073W        W21882  14.940  12.866   0.256  0.2588 -0.0146  0.2878
 6074W        W21883   0.767  16.483   2.376 -0.0567  0.0673 -0.0682
 6075W        W21884   3.061   5.891  14.097 -0.1527 -0.0665 -0.1664
 6076W        W21885   0.512  15.139  12.190 -0.0465  0.1532 -0.0161
 6077W        W21886  14.596   0.358  12.818  0.2526  0.1064 -0.1515
 6078W        W21887  14.113  12.036  12.701  0.0980  0.2209  0.0480
 6079W        W21888  11.558   2.339  13.339  0.2406 -0.3409  0.1064
 6080W        W21889   9.784   6.626   1.632 -0.0123 -0.0607  0.2314
 6081W        W21890   8.733  13.657   4.072  0.0986  0.3385 -0.2198
 6082W        W21891  16.422   2.544   1.353 -0.1413 -0.0117 -0.0247
 6083W        W21892  18.322   8.271   4.370 -0.1002 -0.5356  0.1992
 6084W        W21893   2.851  10.379   4.772 -0.1425  0.2396  0.0993
 6085W        W21894   6.569  18.769   0.875  0.1722  0.0201 -0.0325
 6086W        W21895  12.098  15.421  13.456  0.2821 -0.0355  0.0950
 6087W        W21896  18.561   6.978   0.762  0.3102 -0.2144  0.2673
 6088W        W21897   2.501   6.803   2.586 -0.1245  0.0461  0.0601
 6089W        W21898   8.414   5.206   2.919  0.0050 -0.2488  0.0458
 6090W        W21899   8.263  12.109  13.640 -0.2378  0.0712  0.1122
 6091W        W21900   2.896  18.298   3.641  0.0369 -0.1945  0.0806
 6092W        W21901   9.836   6.711   5.431  0.0765 -0.0017 -0.1283
 6093W        W21902   5.532   9.741   1.955  0.2038 -0.2585  0.0682
 6094W        W21903   3.817  10.900   3.875  0.0871  0.0803  0.2162
 6095W        W21904   2.101   5.110  13.945  0.1011 -0.1471 -0.1035
 6096W        W21905  18.109  11.020   2.130  0.3098  0.2627 -0.1015
 6097W        W21906  14.569   6.257   0.097 -0.1943 -0.2626  0.1819
 6098W        W21907   9.742   8.727  10.349  0.3776 -0.1758  0.0884
 6099W        W21908   0.186   3.551   2.563  0.0234  0.1410 -0.0636
 6100W        W21909  12.671  10.056  15.281 -0.2610 -0.1131  0.1981
 6101W        W21910  15.730   8.318  10.157 -0.2815 -0.0888  0.2306
 6102W        W21911   0.308   8.628  12.608 -0.0978 -0.1222  0.1094
 6103W        W21912  13.424   9.080  13.604  0.2085 -0.0934  0.0910
 6104W        W21913   4.570   4.592  11.505  0.0003 -0.1880 -0.1035
 6105W        W21914  11.373  16.572   1.743  0.0589 -0.0447 -0.1631
 6106W        W21915  16.640  14.241   4.364 -0.1060 -0.2528 -0.1607
 6107W        W21916   3.720  10.847  11.438  0.1834 -0.2623 -0.1294
 6108W        W21917  15.962   9.220   5.225  0.0158  0.0749 -0.2229
 6109W        W21918   7.800  18.172  11.244  0.2088 -0.5725 -0.0337
 6110W        W21919   3.436   6.989  12.857 -0.1636  0.2428  0.1399
 6111W        W21920   9.736  17.344  12.090  0.1939  0.0189  0.0269
 6112W        W21921   7.046   6.435  13.383 -0.1982 -0.1976  0.1326
 6113W        W21922  14.576  10.679   5.365 -0.0653 -0.4458 -0.1788
 6114W        W21923  18.097   6.226   5.211  0.1849 -0.2003 -0.2647
 6115W        W21924   0.351   8.905  13.937 -0.2724 -0.0159  0.0863
 6116W        W21925  14.903   9.951  11.611  0.0669 -0.1145  0.2234
 6117W        W21926   4.307  14.178   0.791  0.1795  0.1554  0.2564
 6118W        W21927   2.327   7.703   0.687 -0.2584 -0.0447  0.1196
 6119W        W21928  18.570  11.537  11.125  0.0233  0.2738 -0.0140
 6120W        W21929   4.372  11.318  11.044  0.0672 -0.4091 -0.0922
 6121W        W21930  18.586   1.295   3.516  0.0243 -0.2638  0.0726
 6122W        W21931   4.526   1.286   0.441 -0.0894  0.1346 -0.0994
 6123W        W21932   1.101  18.822   0.979  0.1200  0.1227  0.2158
 6124W        W21933   7.969  18.244  14.840  0.0949 -0.1055  0.0614
 6125W        W21934  10.690  10.219   1.105 -0.0164 -0.1522 -0.0379
 6126W        W21935   4.570  11.187  12.668 -0.0998  0.1078 -0.1573
 6127W        W21936  17.635  14.240  15.079 -0.0679 -0.1877 -0.2514
 6128W        W21937  17.710   5.475   5.285 -0.0763 -0.2315  0.2729
 6129W        W21938   9.214  18.678   3.777  0.2185 -0.2976 -0.0535
 6130W        W21939  14.962   4.786   2.798  0.1453 -0.3981  0.0299
 6131W        W21940  16.335  18.326  14.159  0.2240 -0.2059  0.0191
 6132W        W21941   3.262   6.518   1.865 -0.0958 -0.2625  0.0833
 6133W        W21942   0.259   8.437   1.358  0.2576  0.0733  0.2000
 6134W        W21943   8.905  11.856   4.852 -0.1820  0.1001 -0.1816
 6135W        W21944   3.330   0.220  11.781 -0.1479  0.0212  0.1218
 6136W        W21945   9.091   9.533  14.948 -0.2889  0.3723  0.0885
 6137W        W21946   0.790  18.038   5.373 -0.2345  0.2384  0.0190
 6138W        W21947  15.625   8.894   2.504 -0.2853 -0.0177  0.1151
 6139W        W21948   6.178   9.876   2.366  0.2805  0.1144 -0.3032
 6140W        W21949   1.710   2.662   4.795 -0.2585  0.1965 -0.5425
 6141W        W21950   2.303  14.400   3.229 -0.1490  0.0425 -0.1277
 6142W        W21951   8.847   0.352  10.595  0.2253 -0.1290  0.0591
 6143W        W21952  15.903  12.303  12.743  0.2331 -0.1533  0.1344
 6144W        W21953   8.332  17.316   1.143 -0.0674 -0.2287 -0.0710
 6145W        W21954  13.242  11.690  13.521 -0.0263 -0.0023  0.4189
 6146W        W21955   6.045   8.761  13.741 -0.2104 -0.1342 -0.0873
 6147W        W21956   1.987   1.158   2.439  0.2612  0.4030 -0.2034
 6148W        W21957   3.842  16.266  14.069 -0.0327 -0.1067  0.1398
 6149W        W21958   0.177   7.393  12.920  0.1466 -0.1721  0.0547
 6150W        W21959   0.647  16.612  12.229  0.1655  0.1664  0.0818
 6151W        W21960   5.304   3.375  11.731 -0.0245  0.3943 -0.0292
 6152W        W21961   4.750   6.925  10.982 -0.0148 -0.0685 -0.4282
 6153W        W21962   7.637  12.584   2.098 -0.1054 -0.1951  0.0567
 6154W        W21963  16.645   4.842   0.457 -0.2261 -0.3390 -0.1950
 6155W        W21964  16.606  11.227   1.487 -0.0692 -0.3719  0.2269
 6156W        W21965   5.143   4.549   5.101  0.1483  0.1306  0.3413
 6157W        W21966   9.598   3.915   3.088  0.3177  0.1138 -0.3978
 6158W        W21967   8.545  18.140   4.192  0.0185 -0.1326 -0.1750
 6159W        W21968   6.278  18.322   4.062 -0.0785 -0.0833 -0.0505
 6160W        W21969  13.224   0.692   3.115 -0.0552 -0.0736 -0.2569
 6161W        W21970  15.850  13.180   1.122  0.0483 -0.2066  0.0611
 6162W        W21971   6.968  13.160  14.572 -0.0538  0.0006 -0.0618
 6163W        W21972   9.009  15.734   0.602 -0.0064 -0.4847 -0.2614
 6164W        W21973   5.866  16.838   2.766  0.4214  0.1614 -0.0802
 6165W        W21974   3.715   2.366  12.262  0.0180  0.1564  0.0646
 6166W        W21975  14.782  18.447  12.539 -0.1748 -0.1919  0.0441
 6167W        W21976   7.357   8.722   0.559 -0.1672 -0.0945  0.0637
 6168W        W21977  12.671   6.338   4.082  0.1456  0.1318  0.0363
 6169W        W21978  16.998   7.321  14.864 -0.0836 -0.0942  0.1454
 6170W        W21979  17.911   8.288   2.537  0.0819 -0.0015 -0.0746
 6171W        W21980   2.540  11.728  13.710 -0.0156  0.1370 -0.1937
 6172W        W21981   7.204  14.966   0.947  0.1348  0.1586 -0.3218
 6173W        W21982   2.038   6.627  12.555 -0.2054 -0.2299 -0.1016
 6174W        W21983   9.439  11.896   0.471  0.0807 -0.2335 -0.0366
 6175W        W21984  18.231  17.594  11.987 -0.1004  0.1504 -0.2244
 6176W        W21985  12.991   6.854   3.315 -0.0141 -0.1264 -0.0236
 6177W        W21986   6.575   6.916  11.338  0.3538 -0.1554  0.0902
 6178W        W21987   2.181  15.612   1.566  0.0529 -0.1058 -0.1869
 6179W        W21988  11.306   7.425  14.088  0.3739 -0.0532 -0.1573
 6180W        W21989   1.824   7.076  14.189 -0.2367  0.0990 -0.0169
 6181W        W21990   6.968   4.147  12.291  0.2315  0.3431  0.1987
 6182W        W21991   7.051   1.899  10.616 -0.1845 -0.3117  0.0056
 6183W        W21992   4.198  14.431   2.132 -0.3389  0.2060  0.1983
 6184W        W21993   5.084   1.746  12.212  0.2320  0.1703 -0.1912
 6185W        W21994  16.717  14.025  14.791  0.1328 -0.1042 -0.0739
 6186W        W21995  14.622  12.059   3.404  0.0098  0.0188  0.1892
 6187W        W21996   7.959  18.321   0.013  0.1113  0.2289 -0.2642
 6188W        W21997  15.364   6.232  13.396  0.0083  0.2717  0.2091
 6189W        W21998   0.036   0.795  12.183 -0.2683  0.3295  0.1749
 6190W        W21999   3.947   8.687   9.644 -0.0540 -0.1565  0.0194
 6191W        W22000   5.360  10.728   1.260  0.0181 -0.1605  0.1264
 6192W        W22001   1.132  15.368   1.415 -0.1660  0.5357  0.0754
 6193W        W22002   4.873  14.379  14.942 -0.1122 -0.1250  0.0735
 6194W        W22003   8.945   7.810   1.601 -0.2145  0.4822 -0.1762
 6195W        W22004   4.768  16.393  14.229  0.2474  0.5002  0.0101
 6196W        W22005  13.623  17.457   2.064  0.2889 -0.1805  0.0621
 6197W        W22006   9.457  18.632   1.194 -0.3139 -0.0298 -0.0554
 6198W        W22007   3.597   5.345  12.453 -0.2494 -0.0608  0.0431
 6199W        W22008  17.720   6.617  13.416 -0.0142  0.0808  0.0779
 6200W        W22009  18.510   8.209   0.752  0.0507 -0.3119  0.0996
 6201W        W22010   2.243   9.885  11.954  0.4453 -0.0365 -0.1534
 6202W        W22011  15.623  12.759   2.839  0.1900 -0.4721 -0.1338
 6203W        W22012   5.571  14.432  14.623  0.1123  0.1452  0.0012
 6204W        W22013   6.016   2.645  12.281 -0.0369  0.2772 -0.0342
 6205W        W22014  15.524   6.358   3.959 -0.2158 -0.0723  0.1279
 6206W        W22015   3.808  14.361   0.661 -0.0265 -0.0183  0.2091
 6207W        W22016  13.605   1.797   1.236  0.0695  0.0906  0.0184
 6208W        W22017   3.031  10.366   1.299  0.0390 -0.2156 -0.1994
 6209W        W22018   0.244   3.478   4.733 -0.1144  0.0856  0.2540
 6210W        W22019   7.697  13.612   1.905 -0.0678  0.2845  0.2105
 6211W        W22020   8.284   6.260  10.473 -0.0319 -0.0894 -0.2837
 6212W        W22021   2.163   5.566  10.672  0.1578 -0.0332  0.2739
 6213W        W22022   7.857   1.095  10.520  0.0104 -0.0327 -0.0411
 6214W        W22023   9.156  10.908   3.639 -0.1718  0.0976 -0.3152
 6215W        W22024   8.121  14.751   4.236 -0.0771  0.2057  0.0129
 6216W        W22025  17.854  16.440   4.311  0.4585  0.1199  0.2063
 6217W        W22026   5.801   5.396  15.103  0.0518 -0.0116 -0.0785
 6218W        W22027   1.113   4.021   2.879  0.0021 -0.1258  0.0567
 6219W        W22028   1.710   5.951   0.670 -0.3399  0.1190 -0.1804
 6220W        W22029  11.166  12.969   3.186  0.2545  0.0769 -0.0233
 6221W        W22030  10.011  13.208   2.908 -0.4011 -0.0604 -0.1721
 6222W        W22031  12.121  13.690  12.424 -0.1804 -0.2000 -0.1698
 6223W        W22032  12.621  13.510   2.745 -0.1018  0.1832  0.1043
 6224W        W22033  15.509  16.288  12.362 -0.1876 -0.4297  0.0144
 6225W        W22034  15.653   0.870  12.575  0.0591  0.3625  0.0435
 6226W        W22035   0.194   8.024  10.873  0.1151  0.0560 -0.2704
 6227W        W22036  13.365  15.061   4.985 -0.2186  0.2163  0.1827
 6228W        W22037  14.139   0.402  14.711  0.0689 -0.3848 -0.2929
 6229W        W22038  10.129  16.187   1.385 -0.3653  0.1915  0.0594
 6230W        W22039   1.598   6.341  10.741 -0.0622  0.0391 -0.3082
 6231W        W22040   4.953   8.950   5.869 -0.2495  0.0116  0.0066
 6232W        W22041   5.952   8.056  15.365  0.1873  0.2836 -0.3380
 6233W        W22042  10.893   1.323  12.374 -0.0347  0.1120  0.2375
 6234W        W22043  16.450  16.142   0.168  0.0220  0.0176 -0.1604
 6235W        W22044  12.566   2.469  11.151  0.1452  0.0548  0.2339
 6236W        W22045   9.844  15.230  13.055 -0.2572 -0.2059 -0.0773
 6237W        W22046   8.863   6.729   5.807 -0.0050  0.2163  0.1657
 6238W        W22047   6.670   5.107  13.461 -0.0680  0.0803 -0.1795
 6239W        W22048   4.044  15.993  12.338  0.2544  0.1882  0.0186
 6240W        W22049   3.498  11.918  11.949 -0.2215 -0.1912  0.3125
 6241W        W22050   5.610  17.035   0.228 -0.2325 -0.2214 -0.1906
 6242W        W22051  15.159   2.979  14.235 -0.1537 -0.3540  0.0719
 6243W        W22052  17.519  14.622   3.911 -0.2989  0.2828  0.2818
 6244W        W22053  10.529  11.320  14.487 -0.0480 -0.0064 -0.1634
 6245W        W22054  17.675   5.650  11.445  0.1285 -0.1352  0.1206
 6246W        W22055   8.988  15.977   0.088  0.0176 -0.2516 -0.0267
 6247W        W22056  16.310   6.969   4.070  0.0278  0.4689 -0.1159
 6248W        W22057   2.366   0.800   9.210 -0.1771 -0.1089  0.2041
 6249W        W22058  12.898   8.628   5.794 -0.1383  0.2031 -0.1114
 6250W        W22059  16.788  11.978  12.316 -0.0545  0.0373 -0.1274
 6251W        W22060  12.573   1.563   0.603  0.0431 -0.0319  0.0456
 6252W        W22061   7.443  11.797  12.000  0.1105 -0.2020 -0.2505
 6253W        W22062  15.868  13.150   4.207 -0.1175  0.2449  0.2519
 6254W        W22063   4.186   4.168   4.333 -0.3263  0.2838  0.0179
 6255W        W22064  17.223  16.612  13.260 -0.1824 -0.4114 -0.0981
 6256W        W22065  11.573   0.197  13.251  0.0043 -0.3125  0.1598
 6257W        W22066   3.602   6.520  10.946 -0.1807 -0.1185  0.1944
 6258W        W22067   1.498  12.130   2.396 -0.0347  0.1602 -0.0863
 6259W        W22068   2.975  18.888  14.074  0.1431 -0.1278 -0.1737
 6260W        W22069   4.062   8.802  11.815 -0.3162  0.3719 -0.2716
 6261W        W22070   1.779  12.458   2.111 -0.0763 -0.1714  0.1808
 6262W        W22071  11.430  11.578   5.285 -0.0189 -0.0838  0.0697
 6263W        W22072  12.010   9.484   2.783  0.0549 -0.0887  0.2741
 6264W        W22073  14.192   1.767   0.269  0.0732 -0.0773 -0.0064
 6265W        W22074  11.261   7.682  11.406  0.0741 -0.3621 -0.0958
 6266W        W22075  18.665  15.689  14.688 -0.3791 -0.3247  0.2011
 6267W        W22076   8.972  15.314   4.037  0.2524 -0.2022  0.0634
 6268W        W22077   0.049   9.082   3.694 -0.0687  0.2054  0.4076
 6269W        W22078  10.490   7.828   0.727  0.0206 -0.1174  0.0401
 6270W        W22079   1.635  10.379  11.044  0.1680  0.2609 -0.1134
 6271W        W22080   8.297   7.329   0.348 -0.2917 -0.1111 -0.0349
 6272W        W22081  11.809   9.911  12.781 -0.0238 -0.1876  0.1192
 6273W        W22082   7.498   2.437   3.551  0.2578  0.1761 -0.0352
 6274W        W22083  11.884  16.379  11.384 -0.0484  0.0876  0.1725
 6275W        W22084  17.376  14.673  11.566 -0.2226 -0.1145 -0.2775
 6276W        W22085  14.596  10.374   0.053 -0.1082 -0.2793  0.0663
 6277W        W22086  17.704   6.211   3.002  0.2410 -0.1068 -0.0378
 6278W        W22087   8.673   7.387  14.126 -0.1399  0.1857 -0.1747
 6279W        W22088  17.867  17.890  10.542 -0.1053 -0.3049  0.2072
 6280W        W22089  18.620  16.197   0.651 -0.4128  0.0889 -0.1086
 6281W        W22090   0.904  14.840  14.280  0.0840  0.2832 -0.2068
 6282W        W22091   5.095  16.687   0.811  0.0009  0.0924  0.0448
 6283W        W22092  12.705  16.661   1.329  0.2215 -0.2611 -0.2853
 6284W        W22093   3.286   5.233   2.966  0.1456 -0.1216  0.1669
 6285W        W22094   4.253   8.539   0.565 -0.1783 -0.0648 -0.1927
 6286W        W22095   1.297   9.174  13.772  0.0032  0.0536 -0.0341
 6287W        W22096   3.908   2.922   1.785 -0.2338 -0.2744 -0.1023
 6288W        W22097  16.590   6.338   5.610 -0.1008 -0.1247  0.2567
 6289W        W22098   5.470  18.290  14.364 -0.1157 -0.0576  0.3150
 6290W        W22099   3.512  12.357   4.532  0.0224  0.0953 -0.2193
 6291W        W22100  13.715  11.296   3.998 -0.2587 -0.2582 -0.1642
 6292W        W22101  11.468   9.870  15.130 -0.1620 -0.0653  0.2265
 6293W        W22102   1.269   6.031  13.529  0.1942 -0.2680  0.0647
 6294W        W22103  11.230  15.582  12.868  0.3120 -0.3095  0.1702
 6295W        W22104   4.254  14.222  12.550  0.1337  0.1589 -0.0087
 6296W        W22105  16.902   3.144   3.448 -0.0972  0.2523  0.1521
 6297W        W22106  10.322   7.749   4.163 -0.1572  0.1767  0.0748
 6298W        W22107  11.980  18.135  11.208  0.2124 -0.3683  0.1201
 6299W        W22108   1.632   0.950  11.772  0.1875 -0.1752 -0.2154
 6300W        W22109  18.258   4.196   4.691 -0.1887 -0.0896  0.0241
 6301W        W22110  18.462  17.415   0.244 -0.3125  0.4414  0.2190
 6302W        W22111  14.729   3.516   0.488  0.2808 -0.2020 -0.0555
 6303W        W22112   9.035   4.282   4.426  0.0369  0.2792  0.1645
 6304W        W22113   7.846  14.806  14.566  0.0647 -0.2492 -0.3835
 6305W        W22114  18.544  15.732  15.198  0.2322  0.1236 -0.1420
 6306W        W22115  17.835   6.363   3.845 -0.1492  0.1188 -0.1029
 6307W        W22116   6.916   8.288  13.949  0.0465  0.0823 -0.0276
 6308W        W22117  18.186   3.832   2.980  0.1291  0.0401 -0.1624
 6309W        W22118  17.523  18.888   0.874 -0.1204  0.1680 -0.3549
 6310W        W22119   9.050   8.921   3.733  0.2543 -0.0293 -0.0396
 6311W        W22120   9.856   7.611  13.849 -0.2319 -0.0491 -0.1220
 6312W        W22121  12.695  16.593  11.198 -0.2019  0.0339 -0.2841
 6313W        W22122   9.419  17.910  14.107 -0.1546  0.1540 -0.0851
 6314W        W22123   5.433  17.808  11.548 -0.1497  0.0512 -0.0935
 6315W        W22124  14.185   2.571  14.481  0.1044 -0.2546  0.0449
 6316W        W22125  14.842  12.045   2.451  0.1984 -0.1570 -0.4250
 6317W        W22126  14.950   3.069   2.894 -0.3674  0.0640 -0.1567
 6318W        W22127   9.556  16.689  10.799 -0.1426  0.1294 -0.0166
 6319W        W22128   2.344   4.254  13.412  0.1497 -0.1065 -0.0620
 6320W        W22129   5.441  17.480   1.043 -0.0182  0.3480 -0.1542
 6321W        W22130  11.681  15.606   3.663  0.5327  0.2989  0.1597
 6322W        W22131   5.106  18.903  13.363  0.2326 -0.0272  0.0947
 6323W        W22132  15.282   0.017  14.623  0.1215 -0.2902 -0.0494
 6324W        W22133   2.872   4.414  15.267 -0.0538 -0.0798  0.0800
 6325W        W22134   1.933   8.748  11.244 -0.0759 -0.0523 -0.1302
 6326W        W22135  16.721   6.751  13.631 -0.2386  0.0675 -0.2274
 6327W        W22136   2.296   0.285  13.406  0.1331  0.1724 -0.2575
 6328W        W22137   3.440  17.617   1.272  0.0754 -0.1403 -0.3964
 6329W        W22138   0.581   3.386   5.075  0.0737 -0.3057 -0.1777
 6330W        W22139  14.135  10.355  10.456  0.1246  0.1353  0.0040
 6331W        W22140   1.955   5.537   4.720 -0.2587 -0.2358 -0.0733
 6332W        W22141   8.393  12.475  14.055  0.2876 -0.0135  0.2736
 6333W        W22142   3.286  18.023   0.867 -0.2595 -0.1703 -0.0873
 6334W        W22143   4.640  14.608   2.938  0.0438  0.2091  0.0863
 6335W        W22144   6.907   2.936   4.872 -0.0882  0.2085 -0.1066
 6336W        W22145   3.421  18.787  10.875  0.1987  0.1055  0.3061
 6337W        W22146  13.389  12.036  14.770  0.3879 -0.1276 -0.1005
 6338W        W22147  10.645   4.936   4.485 -0.2176 -0.0273  0.2625
 6339W        W22148   2.908  13.461  10.315 -0.0684  0.0070  0.1067
 6340W        W22149   8.967   1.621   4.667  0.2562 -0.1085  0.0171
 6341W        W22150   2.864   2.102   3.491 -0.1439  0.0887 -0.4525
 6342W        W22151   6.047   7.022   4.991 -0.1172 -0.0131 -0.0343
 6343W        W22152  17.517   8.820   4.015 -0.2818  0.0307 -0.0046
 6344W        W22153  12.357  10.800   3.289 -0.0272 -0.1365  0.2449
 6345W        W22154   0.421  16.453  11.566 -0.3452  0.0694 -0.1664
 6346W        W22155   2.497   8.018   4.888 -0.1293 -0.0146  0.1529
 6347W        W22156   6.230   6.883  13.590  0.1813  0.2662 -0.0975
 6348W        W22157   8.239   6.479  13.948 -0.3754 -0.0465  0.1424
 6349W        W22158  13.507  17.465   3.419 -0.2499  0.1992  0.0540
 6350W        W22159  12.602  13.764  14.208  0.2026 -0.1387 -0.0806
 6351W        W22160  12.121   2.713  12.219  0.1158  0.1176 -0.0867
 6352W        W22161  18.451  18.354  11.454  0.1756  0.0754 -0.0154
 6353W        W22162  12.225   1.546   4.656  0.2341  0.1740  0.0559
 6354W        W22163   6.473   1.666   2.835 -0.2898  0.2148 -0.2413
 6355W        W22164   5.661  10.198  15.400  0.1840  0.2304 -0.0876
 6356W        W22165   2.788   5.801   0.541  0.0135 -0.1020 -0.2760
 6357W        W22166  10.978   0.759  12.487 -0.1115  0.2621 -0.1580
 6358W        W22167  16.281  14.603  13.793  0.0815  0.2884  0.0107
 6359W        W22168  13.017  18.588  14.166  0.0259 -0.0177 -0.0540
 6360W        W22169   6.753   6.365   1.250  0.3384 -0.4493  0.0159
 6361W        W22170  15.522   9.069   3.884 -0.2212 -0.2359 -0.2725
 6362W        W22171  17.440   4.558  12.583 -0.0950  0.1991  0.2219
 6363W        W22172  15.162  13.948  13.817  0.1103 -0.0469  0.1311
 6364W        W22173   2.506   6.900  12.346 -0.0107  0.1603 -0.1765
 6365W        W22174  18.426   5.304  12.131 -0.0613  0.1461  0.0015
 6366W        W22175   2.404  17.133   4.079 -0.0316  0.1508  0.2479
 6367W        W22176   6.132   4.405  11.876 -0.1303  0.5171  0.2173
 6368W        W22177  12.825  14.724  11.195  0.1228 -0.2289 -0.1733
 6369W        W22178   3.069   8.113   0.595 -0.0095 -0.1349  0.0119
 6370W        W22179  13.562   4.702  15.260 -0.0243 -0.4469  0.2037
 6371W        W22180  14.174   7.704   1.452 -0.0292  0.1057 -0.1536
 6372W        W22181  15.538   8.410   1.264  0.2480  0.2529 -0.0342
 6373W        W22182  12.714   2.407   0.917 -0.0227 -0.2856 -0.0187
 6374W        W22183   4.344  13.362  14.077 -0.2233 -0.1797  0.0873
 6375W        W22184  12.079   2.892   4.108 -0.1723  0.0565  0.0050
 6376W        W22185  10.196   3.627   3.156  0.1893  0.2981  0.2645
 6377W        W22186  15.964  14.124  11.221  0.1175 -0.3264  0.0105
 6378W        W22187  15.860   9.273   0.533  0.0945 -0.0746  0.3579
 6379W        W22188   6.687   9.041  13.041  0.0041 -0.2744 -0.0765
 6380W        W22189  18.362  17.899   2.639 -0.1107 -0.2969  0.2745
 6381W        W22190  12.014   9.833  13.242 -0.0325 -0.2835 -0.0309
 6382W        W22191   8.673  16.418   0.123 -0.0621 -0.0213 -0.3599
 6383W        W22192   8.614  15.737   1.845 -0.3158  0.2481  0.0579
 6384W        W22193  11.213  13.772   1.048 -0.0304 -0.2209  0.2559
 6385W        W22194  13.195  12.559  14.874 -0.2268 -0.1414 -0.2184
 6386W        W22195  14.003  11.338   4.831  0.1231 -0.0101  0.1725
 6387W        W22196   9.945   8.837  12.259 -0.0030 -0.0280  0.0273
 6388W        W22197  14.893   4.698  10.672  0.0397 -0.0094 -0.1219
 6389W        W22198  15.909  16.852  15.230 -0.0948 -0.2017  0.3125
 6390W        W22199  15.715   4.265   4.791  0.1592  0.2448  0.5142
 6391W        W22200   7.689   0.190   3.612 -0.1072 -0.2890 -0.0758
 6392W        W22201  14.212  11.280  12.310  0.2348 -0.0621  0.3759
 6393W        W22202  17.423  18.907  11.238 -0.0127 -0.1745  0.0300
 6394W        W22203   3.197   8.113   9.284 -0.2681 -0.1642  0.2728
 6395W        W22204   7.967   3.777  13.988 -0.0816 -0.0185 -0.0930
 6396W        W22205   9.862   5.328   4.240 -0.1708 -0.0454  0.3854
 6397W        W22206   6.949   3.855  11.814 -0.3315 -0.1792 -0.3056
 6398W        W22207   0.641   7.365  14.949 -0.1254  0.1050 -0.1451
 6399W        W22208  16.262  17.769   3.497 -0.3238 -0.1731  0.2429
 6400W        W22209  14.090  14.789   1.555 -0.0084  0.1358  0.5878
 6401W        W22210  13.280   9.289   1.942  0.2604  0.3208  0.1899
 6402W        W22211  11.881   4.724  10.654  0.0508 -0.2779 -0.2809
 6403W        W22212   6.528  18.743   1.352 -0.1849 -0.1275  0.0454
 6404W        W22213   6.526   2.679  14.340 -0.0864 -0.1034 -0.2265
 6405W        W22214  10.962  15.738  11.881 -0.2094  0.3365  0.0491
 6406W        W22215   9.062   4.097   2.996  0.1272  0.0758 -0.3450
 6407W        W22216  15.633  10.813  15.174  0.2510  0.0700 -0.0798
 6408W        W22217  16.601  14.105  12.334 -0.2790 -0.0339  0.1424
 6409W        W22218   7.715  11.770   3.530 -0.1617  0.2784 -0.1137
 6410W        W22219  16.432  11.642  12.078 -0.0234  0.0981  0.0023
 6411W        W22220   5.727   1.639  13.043  0.1158 -0.0886  0.1261
 6412W        W22221   7.774  15.450   5.328 -0.3647 -0.1600 -0.0253
 6413W        W22222   4.872   8.575  14.327 -0.0026  0.0160 -0.0442
 6414W        W22223   9.744   3.207  11.614  0.1541 -0.4300  0.0877
 6415W        W22224   9.242   4.341  13.856 -0.0155  0.2844 -0.1745
 6416W        W22225   0.985   1.904   4.828 -0.0223 -0.1915  0.2075
 6417W        W22226   1.405   3.048   4.688 -0.2476 -0.4901  0.1565
 6418W        W22227   7.783   8.287   0.656  0.0390  0.0369 -0.2496
 6419W        W22228  12.109  13.182  13.430  0.2708  0.1018 -0.1280
 6420W        W22229   0.097   7.539   1.404  0.0588  0.1743  0.0924
 6421W        W22230   6.261  15.317  13.853  0.3041  0.0967 -0.2657
 6422W        W22231  14.817   3.071  15.220 -0.2769  0.1656 -0.2637
 6423W        W22232  10.471  10.824   3.191  0.1723 -0.0635 -0.0121
 6424W        W22233  10.692  14.830   2.237 -0.0524 -0.0875 -0.2376
 6425W        W22234   8.434   0.140   9.546  0.0700  0.0176  0.1221
 6426W        W22235  14.056   2.628   4.873 -0.0911  0.0692  0.0722
 6427W        W22236   3.606  11.826   3.120 -0.0412  0.0018  0.2802
 6428W        W22237  16.054  11.893  13.954 -0.1737 -0.0854  0.0405
 6429W        W22238  12.354  11.133  10.820  0.0217  0.3823 -0.2964
 6430W        W22239   9.578  18.778   2.887 -0.1168 -0.1114 -0.2067
 6431W        W22240   4.015   3.272  14.050  0.0097 -0.3407 -0.0938
 6432W        W22241   9.041  15.700  10.543  0.0926 -0.3284 -0.0465
 6433W        W22242   6.580   6.586   2.983 -0.1011 -0.1570  0.1386
 6434W        W22243   9.911   3.606   2.073  0.0905  0.0852  0.1634
 6435W        W22244   7.470   7.180   4.639 -0.2163 -0.2514 -0.2191
 6436W        W22245  17.166   9.957   3.357 -0.1862 -0.3057  0.2221
 6437W        W22246  12.054   5.403   0.866 -0.2893  0.0732 -0.1772
 6438W        W22247  18.613   2.892   4.168  0.1676 -0.0828 -0.2047
 6439W        W22248   4.273  12.035  12.641  0.1832  0.1490 -0.0412
 6440W        W22249   0.227   3.511   5.403  0.1189  0.2030  0.2861
 6441W        W22250   2.687  18.426  12.809  0.0052  0.1381  0.1804
 6442W        W22251   2.124   0.964   4.293 -0.0803 -0.0197 -0.2432
 6443W        W22252   7.784  16.823   1.585 -0.0779 -0.0280  0.2542
 6444W        W22253  14.745  18.784   3.621 -0.3205  0.2238  0.2642
 6445W        W22254  11.523   5.592  14.614  0.2036 -0.0977  0.1943
 6446W        W22255   3.302  11.963   2.721  0.1139 -0.2744  0.1415
 6447W        W22256   4.592   4.270   0.401 -0.1317  0.0554  0.2027
 6448W        W22257  10.732  13.933   0.904 -0.2379  0.0722 -0.0229
 6449W        W22258   0.048  14.486   3.450  0.2349 -0.1984  0.2565
 6450W        W22259  13.332   6.857  12.142  0.0105 -0.1238 -0.3456
 6451W        W22260   9.233   2.272   2.750  0.1271  0.0322 -0.1066
 6452W        W22261   3.177  13.551   4.679  0.2356  0.3480 -0.1321
 6453W        W22262   9.380   3.478  11.342  0.0085  0.0431  0.4803
 6454W        W22263   3.697  14.540   2.231 -0.2815  0.1712  0.0619
 6455W        W22264   3.535  12.414  12.882  0.4215  0.1021 -0.0617
 6456W        W22265  14.617  15.295   0.366 -0.1971  0.0490  0.1112
 6457W        W22266   2.854  11.671   1.834 -0.1799  0.0270  0.1712
 6458W        W22267   3.844   5.274   1.961  0.1355  0.0868  0.1616
 6459W        W22268   9.966   8.850   4.819  0.1258 -0.2305 -0.0022
 6460W        W22269  10.875   5.411   1.783  0.0924 -0.0348  0.1461
 6461W        W22270   3.940   7.360   4.944  0.1849 -0.2644 -0.1149
 6462W        W22271   3.419   0.196  14.775  0.1142  0.0256 -0.0137
 6463W        W22272  14.377  14.916  12.922  0.2145  0.0876 -0.0130
 6464W        W22273  17.574  16.924  12.378  0.2169 -0.1109  0.0812
 6465W        W22274   5.699   0.786  11.748 -0.0654  0.1200 -0.2603
 6466W        W22275  18.367   9.371  11.995  0.0272  0.0574  0.2035
 6467W        W22276   4.260  16.322  13.351  0.1295  0.0016  0.2822
 6468W        W22277  13.232  17.509   4.531 -0.0026  0.0109 -0.1022
 6469W        W22278  18.150  18.748  13.999  0.0781 -0.1096  0.2031
 6470W        W22279   7.589   1.550  12.512 -0.0580  0.0360 -0.1620
 6471W        W22280  15.964   6.687  12.281  0.5259  0.0032 -0.3815
 6472W        W22281  10.959   3.591  13.862  0.0162 -0.2490  0.0033
 6473W        W22282  14.443   8.935  13.833 -0.0806 -0.2097  0.2752
 6474W        W22283   2.452  11.384   1.772 -0.0013 -0.2264 -0.4454
 6475W        W22284   5.882   6.695  12.389 -0.4150  0.0190  0.1011
 6476W        W22285   9.400   6.964  13.726  0.1257 -0.0180  0.2459
 6477W        W22286  13.231   6.257  14.203 -0.0945  0.1702 -0.0945
 6478W        W22287  11.252  11.514  11.925 -0.0164 -0.1698 -0.1605
 6479W        W22288  11.973  17.465  14.905 -0.1033 -0.0981 -0.3221
 6480W        W22289  15.291  18.780   1.561  0.3315 -0.0442  0.2388
 6481W        W22290  16.670  12.773   0.013 -0.2321 -0.0038 -0.0699
 6482W        W22291   8.659  11.940   1.965 -0.0956  0.0674 -0.0983
 6483W        W22292   1.171   8.344   1.196 -0.1244  0.1693 -0.3108
 6484W        W22293   4.055   3.791  12.816  0.1194 -0.1412  0.1088
 6485W        W22294  10.775  12.737   4.528  0.0057  0.0245 -0.0947
 6486W        W22295   3.464   1.386   1.499 -0.0047 -0.0003 -0.0709
 6487W        W22296   9.636  10.694  14.205  0.1318 -0.2272 -0.1465
 6488W        W22297   6.732   9.591  13.467  0.3233 -0.1741 -0.0837
 6489W        W22298  12.714  17.630   4.637 -0.3967 -0.0461 -0.0960
 6490W        W22299   5.390   4.733  13.267  0.0757 -0.0725  0.2887
 6491W        W22300   1.098   4.683   4.593 -0.1333  0.0093 -0.1624
 6492W        W22301  10.157   3.354   2.534  0.1007 -0.2071 -0.1858
 6493W        W22302  13.225   4.781   1.935  0.1329  0.5376  0.0823
 6494W        W22303   6.467   3.298  11.041  0.0082 -0.1428 -0.0672
 6495W        W22304  10.049   5.412  11.651  0.3445 -0.0062  0.1051
 6496W        W22305   2.253   1.544   3.884 -0.1706  0.1922  0.3340
 6497W        W22306   7.430  10.967  11.838  0.1842  0.0200  0.5125
 6498W        W22307  11.576  11.151  12.689  0.1235  0.0005 -0.2611
 6499W        W22308   5.637   4.684   0.241  0.4067 -0.1901 -0.3369
 6500W        W22309  15.070  17.210   2.394  0.1388  0.2404 -0.0831
 6501W        W22310   3.617   1.936  11.485 -0.2000 -0.0690  0.0967
 6502W        W22311   3.327   9.101   0.110 -0.3102 -0.0845  0.4824
 6503W        W22312   5.354   4.523  15.299 -0.1063 -0.0859 -0.2041
 6504W        W22313   8.908  14.153  11.079 -0.3850 -0.0898 -0.0952
 6505W        W22314   4.379  10.628   2.173 -0.0788  0.1205 -0.2535
 6506W        W22315  11.838   4.824   0.730 -0.0796 -0.0162 -0.1027
 6507W        W22316  13.610  15.488  13.069  0.0386  0.0157 -0.0606
 6508W        W22317   4.931  17.470  15.099  0.1535  0.0313 -0.0169
 6509W        W22318   8.825  10.866   1.426 -0.0440 -0.1079  0.1900
 6510W        W22319  13.148   5.851  11.278 -0.1323 -0.0011  0.1567
 6511W        W22320  17.516  18.539   5.767  0.0253 -0.1173  0.0935
 6512W        W22321  12.648  15.081   1.275 -0.2942 -0.2345  0.0155
 6513W        W22322  18.393   4.972  15.361  0.2914 -0.0140 -0.1781
 6514W        W22323   7.366   6.337  14.845  0.0146 -0.1650  0.1578
 6515W        W22324  12.579  16.068   0.559  0.0009 -0.1305  0.0317
 6516W        W22325  13.800  12.764  14.799  0.0133 -0.2516 -0.0697
 6517W        W22326  16.998   2.919  15.034  0.2765 -0.1344 -0.2135
 6518W        W22327  17.167  14.683   5.733 -0.0227 -0.0838 -0.0222
 6519W        W22328  14.763  15.213  13.466 -0.4269 -0.1397  0.0467
 6520W        W22329   0.691   5.472  13.266 -0.0174  0.1158 -0.0317
 6521W        W22330   0.240   0.621   0.913  0.3713  0.1619  0.2868
 6522W        W22331   8.331   7.007  12.724 -0.1775 -0.1385  0.0907
 6523W        W22332   9.322   3.890  13.408 -0.2121  0.0759 -0.0284
 6524W        W22333   9.749  15.616  15.331 -0.2547 -0.3963  0.0653
 6525W        W22334  16.635   2.344   5.790 -0.1076  0.2643 -0.2320
 6526W        W22335  13.724  17.182   4.541 -0.2183  0.3661  0.1211
 6527W        W22336   0.636   9.707   1.732 -0.0210 -0.2787 -0.2447
 6528W        W22337  13.065   8.866   5.045 -0.2734 -0.0369  0.0542
 6529W        W22338   3.647  17.236  12.352  0.2796 -0.1706  0.1599
 6530W        W22339  10.492  12.525   2.605  0.0410  0.1311 -0.1180
 6531W        W22340   7.689  15.207   2.614 -0.2737 -0.1002 -0.2141
 6532W        W22341   0.996   1.090   2.486  0.0348 -0.0232  0.2062
 6533W        W22342  17.033   6.151  12.994 -0.1624 -0.0468 -0.1907
 6534W        W22343   6.015  16.715  13.383 -0.2140 -0.0720 -0.0228
 6535W        W22344  12.077  16.439  13.218  0.1722  0.2116  0.4114
 6536W        W22345  11.411   0.579   3.272  0.1700 -0.1666  0.2423
 6537W        W22346  16.723  16.648  13.131  0.4772  0.2705 -0.0300
 6538W        W22347  15.925   1.348  14.878  0.0248  0.1610 -0.2203
 6539W        W22348  10.235   2.763   0.049  0.1815 -0.2044 -0.0564
 6540W        W22349   3.703  15.461   1.419 -0.0737  0.2065  0.2163
 6541W        W22350   1.392   4.595  13.331 -0.2421 -0.0198 -0.4326
 6542W        W22351   0.796  13.120  10.489 -0.0138  0.1384 -0.1596
 6543W        W22352  11.022  13.629  14.533 -0.2995 -0.2377  0.1354
 6544W        W22353   7.740  18.517   4.178 -0.0872  0.1790  0.2338
 6545W        W22354   9.182  15.665  13.590 -0.1232  0.2358  0.1520
 6546W        W22355  16.980   2.925   2.249  0.0129 -0.0292 -0.1319
 6547W        W22356   4.710   2.704   4.878 -0.0539  0.2129 -0.2290
 6548W        W22357   9.313  12.094  12.020 -0.1349 -0.1118  0.3573
 6549W        W22358   3.457   5.553   0.949 -0.0862  0.0202 -0.2820
 6550W        W22359  16.230   3.785   2.595 -0.3174 -0.1378 -0.1268
 6551W        W22360   5.496   4.201  10.805 -0.1037  0.3351  0.1019
 6552W        W22361   6.463  10.945   0.158  0.0328  0.0555  0.1699
 6553W        W22362  12.813  10.908  11.288 -0.1236  0.3752 -0.0885
 6554W        W22363   9.936  16.430   0.983  0.0863 -0.2008  0.2674
 6555W        W22364   4.719  14.605   0.150 -0.0447  0.2736 -0.0322
 6556W        W22365  10.537  18.784   1.129 -0.3757 -0.0797  0.1780
 6557W        W22366   5.128   8.726  12.859 -0.0818  0.0126  0.3657
 6558W        W22367  11.697  17.605   0.427 -0.0094  0.1891 -0.0041
 6559W        W22368   1.461  13.812  12.086 -0.1429  0.2052  0.1103
 6560W        W22369   1.151   3.956   3.963 -0.0701 -0.1105  0.0241
 6561W        W22370   4.260   4.050  11.624  0.0421 -0.0317 -0.3460
 6562W        W22371   4.793  11.884  14.027  0.1827  0.2395  0.1422
 6563W        W22372  18.611   7.800   4.636 -0.2006 -0.1478 -0.0292
 6564W        W22373   2.989  18.521  15.228 -0.1098 -0.2387 -0.1222
 6565W        W22374   5.334   7.137   1.217 -0.0356  0.0309 -0.4589
 6566W        W22375   9.120  14.081   1.605 -0.2544  0.2253 -0.1328
 6567W        W22376   2.534   7.179  13.151  0.2757 -0.2700  0.0274
 6568W        W22377  11.440   2.052   1.956 -0.0673 -0.2790 -0.1367
 6569W        W22378  12.277   7.762  11.784 -0.1960 -0.0829 -0.0356
 6570W        W22379   3.384   2.347  15.067 -0.0662  0.2058  0.0220
 6571W        W22380   9.610   3.763  13.816  0.1957  0.1412 -0.1544
 6572W        W22381   7.839   1.291   5.002 -0.3616  0.0451 -0.0517
 6573W        W22382  17.849   0.880  15.269  0.0009 -0.0388 -0.0385
 6574W        W22383  14.785   0.554   1.757  0.2616  0.0476  0.1583
 6575W        W22384  15.429  10.912  12.146 -0.0685 -0.1933 -0.0639
 6576W        W22385  15.976   5.146   5.214  0.2014 -0.1907  0.4007
 6577W        W22386   0.188   2.961   2.862  0.1427  0.0826 -0.1753
 6578W        W22387   4.871   6.905  15.209  0.1410 -0.1736 -0.0019
 6579W        W22388  12.914  18.570   1.512 -0.0252  0.1414 -0.0220
 6580W        W22389  10.375   3.235  14.153 -0.0768  0.4139 -0.0778
 6581W        W22390   4.677   5.043   2.570 -0.0647  0.1767  0.0552
 6582W        W22391   6.791   5.107   1.693 -0.1881 -0.0354  0.0216
 6583W        W22392   4.977   9.275   0.325 -0.1438 -0.0868  0.0834
 6584W        W22393   1.355   8.771   1.044  0.0350  0.0518  0.0699
 6585W        W22394  17.353   3.406   2.564  0.1560  0.1278  0.1232
 6586W        W22395   1.789  14.349   3.023  0.0912  0.0383 -0.1840
 6587W        W22396  14.774  12.073  11.384 -0.1716  0.1906 -0.0591
 6588W        W22397  11.270  18.272   4.987  0.1845  0.1580  0.0611
 6589W        W22398   1.572   1.917  11.723 -0.0300  0.0011  0.0121
 6590W        W22399   4.810   6.149  12.917 -0.2612 -0.0478 -0.0982
 6591W        W22400  16.036   9.870   2.319 -0.1433  0.0028 -0.0480
 6592W        W22401  18.527   9.393   3.497  0.2220  0.2095  0.1208
 6593W        W22402   4.611  13.128  15.264  0.0868  0.2035  0.3494
 6594W        W22403  12.147  12.003   3.737 -0.1119  0.0956 -0.0928
 6595W        W22404  17.653  13.727   1.230  0.0601 -0.0636  0.0263
 6596W        W22405  16.827   3.531   0.253 -0.3605 -0.1722 -0.3071
 6597W        W22406  11.569  12.919  12.121  0.3586 -0.0901 -0.1571
 6598W        W22407  16.815   4.420  11.882 -0.1652  0.0067  0.0557
 6599W        W22408  10.977   3.592   2.133  0.1803  0.1612 -0.1193
 6600W        W22409  14.600   0.494  11.378 -0.0118  0.3103  0.0773
 6601W        W22410  18.422   5.740   0.740  0.1007  0.0433 -0.0733
 6602W        W22411   3.657   9.254   2.139 -0.0702  0.4828 -0.3249
 6603W        W22412  15.942   2.496   1.889 -0.1532  0.0140  0.0812
 6604W        W22413  13.333   9.056   0.504 -0.0126  0.1983 -0.3456
 6605W        W22414   1.035   9.592  13.730  0.1783  0.1936 -0.0891
 6606W        W22415   0.161   9.039  12.353  0.2611 -0.0210 -0.1575
 6607W        W22416   3.730  13.414   4.022  0.0584 -0.3055  0.1209
 6608W        W22417  17.093  12.380  10.998  0.1594  0.1609 -0.0593
 6609W        W22418   6.605  16.979  11.501 -0.0134  0.1742  0.0749
 6610W        W22419  17.613   9.540  11.508 -0.0693  0.0779 -0.1698
 6611W        W22420   7.999   7.269  12.438 -0.1311  0.2329 -0.4846
 6612W        W22421  12.647   6.025  14.917  0.0256  0.1146  0.0554
 6613W        W22422  15.374   6.531  12.261 -0.2651 -0.0434 -0.0793
 6614W        W22423   5.743  11.406   1.897  0.3565 -0.0968 -0.3808
 6615W        W22424  18.436  10.993  14.124  0.0338  0.3484 -0.1360
 6616W        W22425   9.947   9.839  12.291 -0.1946  0.0391 -0.0898
 6617W        W22426   1.699   4.050   0.710 -0.1932  0.0277  0.3122
 6618W        W22427  12.526   1.902  14.959  0.2916  0.0985  0.2916
 6619W        W22428   5.235  10.324  13.567  0.1431 -0.0357 -0.1064
 6620W        W22429   2.608  10.388   1.962  0.2834  0.1735  0.1236
 6621W        W22430   8.564   3.020   2.847  0.3893  0.1008 -0.0988
 6622W        W22431   7.611  18.626   0.183 -0.4792 -0.0407  0.1027
 6623W        W22432   3.356   7.451  12.663 -0.2202 -0.0144 -0.2843
 6624W        W22433   6.706  10.071   2.292  0.4033 -0.1628  0.2459
 6625W        W22434   5.343   6.675   4.092  0.0135  0.1043 -0.1575
 6626W        W22435   4.839   0.763   0.408 -0.2128 -0.2806 -0.1702
 6627W        W22436  13.008   1.035   5.012 -0.0927  0.3706  0.3013
 6628W        W22437  11.102  18.331   2.229  0.0578  0.2076 -0.1220
 6629W        W22438   9.910  17.116   4.946  0.1675 -0.1127  0.2072
 6630W        W22439   4.873  16.132   1.459 -0.1737  0.1091  0.1004
 6631W        W22440   3.355   6.646  12.335  0.1019 -0.0518  0.3949
 6632W        W22441   4.145   7.186  11.255  0.3881 -0.1472 -0.2758
 6633W        W22442  11.156  12.946  13.349  0.0941 -0.0288  0.0935
 6634W        W22443   7.866   1.819   4.949 -0.2917 -0.0125  0.1832
 6635W        W22444  10.678  12.885  12.582 -0.3947 -0.0490 -0.1268
 6636W        W22445   8.847  12.425   2.117  0.0395  0.1103 -0.1895
 6637W        W22446   6.969   1.338  15.258 -0.1693 -0.0368 -0.0139
 6638W        W22447  17.413   4.879  13.094  0.0516 -0.1011  0.1317
 6639W        W22448   1.193   9.079  15.318  0.1726  0.1528  0.1843
 6640W        W22449  14.488   7.584   4.851  0.0508 -0.0711 -0.1008
 6641W        W22450  15.877   0.037   0.063 -0.0856  0.1818 -0.0572
 6642W        W22451   0.159  13.553   1.847 -0.1252 -0.0283  0.1462
 6643W        W22452   4.308  12.803  15.096 -0.0569  0.2093 -0.1040
 6644W        W22453  12.216  16.214   4.206  0.1667  0.0593 -0.1833
 6645W        W22454   1.383   9.409  11.106 -0.2404  0.1122  0.3381
 6646W        W22455  10.574  11.952   5.625  0.0092 -0.3913  0.1614
 6647W        W22456   0.367  17.006  11.120  0.1059  0.0693  0.1785
 6648W        W22457   0.589   6.991  11.670  0.0593 -0.0805  0.1833
 6649W        W22458  16.001  16.849   0.454  0.0386  0.0716  0.2830
 6650W        W22459  17.925  14.967   3.868 -0.3847  0.0714 -0.0281
 6651W        W22460   4.792  15.071  11.423  0.0286 -0.0497 -0.1061
 6652W        W22461   8.633   6.967   0.151  0.3051 -0.0144 -0.1408
 6653W        W22462   4.635   8.506  13.803 -0.1174 -0.0338  0.0501
 6654W        W22463  10.250  17.450   2.081  0.3076  0.0798 -0.0820
 6655W        W22464   1.245  15.475   0.433  0.0611 -0.2343  0.0394
 6656W        W22465  10.200   2.385   3.342 -0.1047  0.1636  0.4150
 6657W        W22466  13.511  16.200   0.900 -0.1432 -0.0285 -0.2793
 6658W        W22467  11.509  14.322   1.251  0.1576 -0.0612  0.0804
 6659W        W22468   9.699  16.598  14.127  0.1711  0.1723 -0.0977
 6660W        W22469  10.440   8.190   5.134 -0.1657 -0.0797  0.0799
 6661W        W22470   3.182  16.516  13.265  0.2314 -0.1378  0.3935
 6662W        W22471  14.633  13.592   3.868  0.0062 -0.1166  0.1943
 6663W        W22472  10.042  12.813   4.812  0.1534  0.0765  0.1881
 6664W        W22473   1.472  10.377  12.501 -0.3438  0.0728  0.1243
 6665W        W22474  18.811   9.324  13.152 -0.1889  0.3797  0.3404
 6666W        W22475   3.459  18.173   3.994 -0.0767 -0.1176  0.1648
 6667W        W22476   5.600   0.228  13.421  0.1584 -0.1380  0.0322
 6668W        W22477   3.695   4.885   4.160  0.1712 -0.3187 -0.2931
 6669W        W22478  17.563  13.631   1.767 -0.0003 -0.3033  0.1962
 6670W        W22479   6.828   4.082  10.841  0.1531  0.1203 -0.0311
 6671W        W22480   7.919   4.730  10.772  0.3001 -0.2905  0.0393
 6672W        W22481   8.321   4.556  10.013 -0.4220  0.1550 -0.2808
 6673W        W22482  16.001   9.347   2.306 -0.2371  0.2076  0.1968
 6674W        W22483  12.219   4.643   5.067  0.5134  0.1818 -0.2303
 6675W        W22484   0.987   0.682   1.533 -0.1999 -0.0338 -0.0470
 6676W        W22485   8.296   0.816   1.465 -0.2333  0.1797  0.2412
 6677W        W22486   1.628  12.918   1.754 -0.1227 -0.0924 -0.0667
 6678W        W22487  10.401   9.046  15.054 -0.0533 -0.1130  0.2164
 6679W        W22488  18.472   5.592   4.619  0.3562  0.2020  0.0963
 6680W        W22489   9.384   8.714   4.706  0.0128 -0.0796  0.0977
 6681W        W22490   7.457   7.667   4.870  0.1801  0.0168 -0.0356
 6682W        W22491   5.074   3.253  15.095 -0.1458 -0.2536 -0.1399
 6683W        W22492  17.730   3.888  15.167 -0.2721 -0.1920  0.2568
 6684W        W22493   4.249   2.888   1.232 -0.0282 -0.2519  0.0235
 6685W        W22494  11.273   2.065   9.490 -0.1183 -0.2827 -0.0824
 6686W        W22495  17.497   5.502  13.662  0.1971  0.1649 -0.3048
 6687W        W22496   4.285  10.855  12.200 -0.0911  0.3005 -0.3296
 6688W        W22497   2.761   9.202   5.169 -0.0357 -0.1313 -0.3108
 6689W        W22498   7.161  16.135  15.311  0.1217  0.1633  0.1221
 6690W        W22499   8.254  17.912  14.504  0.2137  0.1406  0.1578
 6691W        W22500   3.095  10.823   4.864 -0.2342 -0.0047  0.1232
 6692W        W22501  17.251  10.672  12.659  0.1558  0.2585  0.2610
 6693W        W22502  13.383  13.009   4.785 -0.1240  0.1503  0.0055
 6694W        W22503   7.510  16.552  11.671  0.1697  0.3657 -0.1479
 6695W        W22504  12.401   3.002   5.016 -0.2730  0.0031 -0.1016
 6696W        W22505   4.654   3.312   1.094  0.0772 -0.0391  0.3844
 6697W        W22506   2.671  12.191   3.595 -0.5080  0.1236  0.0024
 6698W        W22507   9.951  13.928   4.027  0.1543 -0.3678 -0.0134
 6699W        W22508   2.885   1.797   4.968  0.1030 -0.1168  0.0128
 6700W        W22509   4.038  13.703  12.212  0.1202  0.4487 -0.2433
 6701W        W22510  10.475   1.477   3.719 -0.1700 -0.0709 -0.2103
 6702W        W22511  12.661  12.889  14.049 -0.1752 -0.3793 -0.2650
 6703W        W22512   0.266   3.003   4.500  0.1566 -0.0040  0.1135
 6704W        W22513   8.441  12.741   0.796 -0.0089  0.2268 -0.3437
 6705W        W22514  14.252   6.752   2.975 -0.0241  0.1444  0.1352
 6706W        W22515   4.705   5.945   1.115 -0.0025  0.0440  0.1146
 6707W        W22516   9.984  17.554   0.624  0.3381 -0.0478 -0.0252
 6708W        W22517  16.609   6.878   0.555 -0.0325  0.0455 -0.2367
 6709W        W22518   9.739  13.905   4.624  0.4971  0.3652  0.1602
 6710W        W22519   2.263  10.313   3.150  0.2815  0.0878 -0.0108
 6711W        W22520  16.032   1.815   3.467 -0.2034  0.0995 -0.0579
 6712W        W22521  11.356  13.718  13.233 -0.1793 -0.4425 -0.1691
 6713W        W22522   1.753   5.483   4.120 -0.0158 -0.0086  0.0166
 6714W        W22523  14.358   1.849   4.427 -0.0540  0.2161 -0.2137
 6715W        W22524  17.603   0.551   3.485  0.0270 -0.1257  0.0804
 6716W        W22525   8.211  16.017   1.476 -0.2265 -0.3337 -0.0436
 6717W        W22526  13.743   7.078  11.467  0.2290 -0.2114  0.0229
 6718W        W22527   3.007   4.591   2.526 -0.0632 -0.2574  0.1858
 6719W        W22528  18.192   4.976   5.352  0.1780  0.3985 -0.0376
 6720W        W22529  15.342   8.464  10.434  0.3189  0.2323 -0.0578
 6721W        W22530  12.245  14.744   1.209  0.0729 -0.0730 -0.3312
 6722W        W22531   7.220   4.908  15.249 -0.0719  0.0980  0.0119
 6723W        W22532  12.716   3.884  12.423  0.0887  0.1109  0.1979
 6724W        W22533   8.291   6.527   1.557 -0.1252  0.1011  0.0573
 6725W        W22534  17.034  11.941   1.815 -0.0730 -0.1488  0.1148
 6726W        W22535  18.111  15.919  15.268  0.3903 -0.1110  0.2410
 6727W        W22536   1.698   2.466  14.198  0.0757  0.1420 -0.0413
 6728W        W22537  15.119  10.615   1.338 -0.0954 -0.2369  0.1011
 6729W        W22538  17.101   7.120   5.415  0.3660 -0.0899  0.2525
 6730W        W22539  18.715  10.279   2.687 -0.1626  0.0877 -0.0547
 6731W        W22540  13.329   5.467  14.711 -0.0312  0.3352 -0.2178
 6732W        W22541   1.659   7.917   3.145 -0.1764  0.0943  0.3048
 6733W        W22542   5.094   9.552   3.150  0.1529  0.2028 -0.1933
 6734W        W22543   6.927  13.758   3.589  0.1830  0.0842 -0.0718
 6735W        W22544   1.609  13.065   2.708  0.1607 -0.0522  0.0331
 6736W        W22545  12.268  10.522   1.815 -0.1727  0.0776  0.0710
 6737W        W22546  10.086   5.279  13.068 -0.3531  0.1327 -0.0981
 6738W        W22547   2.022   4.994  15.029 -0.1238  0.1686  0.3327
 6739W        W22548   5.616   8.367   3.573 -0.1385 -0.0295 -0.0491
 6740W        W22549   2.323   5.802  12.844 -0.1011  0.4655 -0.2714
 6741W        W22550  14.286   4.228  11.938  0.2162 -0.1825  0.1292
 6742W        W22551   7.655  14.204   4.106  0.2789 -0.0639 -0.1258
 6743W        W22552   3.113   7.680   2.873  0.0354 -0.1127  0.0460
 6744W        W22553  10.998  14.314  15.147  0.1388  0.1934  0.3190
 6745W        W22554  12.005  12.522  12.673 -0.0740  0.1502 -0.0386
 6746W        W22555   4.088   2.382   0.562  0.0955  0.1580  0.0030
 6747W        W22556  14.686   7.157   3.596  0.0023  0.2610  0.0957
 6748W        W22557  18.768  13.056  11.641  0.0875  0.2935  0.3644
 6749W        W22558  14.909   0.926   5.105 -0.0668 -0.1294 -0.1861
 6750W        W22559  10.513   0.413   5.065 -0.1428 -0.3967 -0.2047
 6751W        W22560   6.680   1.680   1.780  0.0371 -0.0731  0.0965
 6752W        W22561  14.439   4.705   1.970  0.1897 -0.0047  0.2902
 6753W        W22562  15.715   0.956  13.069 -0.2133 -0.0964  0.0698
 6754W        W22563  13.037  13.102   0.548  0.0787 -0.1267  0.0758
 6755W        W22564  13.034   3.268  11.152 -0.1647 -0.1617 -0.2082
 6756W        W22565  16.442  15.731  12.259 -0.2269 -0.1179  0.0751
 6757W        W22566  15.738   2.673  11.971 -0.0629 -0.0666  0.2138
 6758W        W22567   2.641   1.897   4.535 -0.4120 -0.0471  0.0271
 6759W        W22568  12.439  11.342   0.542  0.0406  0.2821  0.1912
 6760W        W22569   4.670   2.634  11.856  0.0039  0.0988  0.2719
 6761W        W22570   3.817  12.895   0.976  0.2897  0.0864 -0.2933
 6762W        W22571  14.069  14.810   2.485 -0.0561 -0.0625 -0.1005
 6763W        W22572  16.114  11.032   3.574 -0.0270  0.3849 -0.3064
 6764W        W22573  11.032   8.741  15.230  0.0917  0.0472 -0.0106
 6765W        W22574   8.926  14.105   3.969 -0.0798 -0.0010  0.1030
 6766W        W22575   1.675  13.476   1.959 -0.0790 -0.0923 -0.2204
 6767W        W22576   4.334  14.515   3.688  0.1701  0.0816  0.1409
 6768W        W22577   1.709  14.127   0.869 -0.0805 -0.0875  0.1675
 6769W        W22578   8.084   0.525   3.709 -0.2798 -0.0278 -0.3207
 6770W        W22579   2.577   4.803  15.036  0.1134  0.2227 -0.0995
 6771W        W22580  16.101   5.833   1.479 -0.2374 -0.3316  0.1544
 6772W        W22581   3.041   5.921   2.454  0.0183  0.1166  0.1196
 6773W        W22582   0.945   3.081   1.295  0.0519  0.1504  0.1707
 6774W        W22583   6.418   1.038  11.637  0.0245 -0.1171  0.1519
 6775W        W22584  17.731   4.138   2.313 -0.1932 -0.0273 -0.1716
 6776W        W22585   2.050  17.651  12.277 -0.0257 -0.4299  0.0991
 6777W        W22586   7.815   6.148  10.901 -0.3132  0.1039  0.3365
 6778W        W22587  12.407   7.224  12.088  0.1406  0.0346 -0.1136
 6779W        W22588  11.061  16.730  11.805  0.0206 -0.3122 -0.0638
 6780W        W22589  14.235   5.019  13.109  0.0631  0.1734  0.0854
 6781W        W22590   2.257   8.851  15.318 -0.0683  0.2803 -0.1107
 6782W        W22591   1.395   1.364   1.901 -0.4361 -0.2952 -0.1389
 6783W        W22592  10.579   9.685   0.873  0.4099 -0.1070 -0.1781
 6784W        W22593   6.791  18.156  10.821 -0.4979 -0.0908 -0.3743
 6785W        W22594  16.551  10.380   1.609  0.1524  0.0994 -0.2001
 6786W        W22595  14.546  12.518   4.493  0.1151 -0.1942 -0.2739
 6787W        W22596   0.846  11.818  13.032 -0.0628 -0.0035 -0.0118
 6788W        W22597   0.580  12.206  12.086  0.1276 -0.0710  0.0550
 6789W        W22598   5.318   8.814  15.177 -0.3044  0.2173 -0.1120
 6790W        W22599   7.755   8.318  10.109  0.0391 -0.0990 -0.0906
 6791W        W22600   1.319   6.193  15.020 -0.3540 -0.0768  0.0021
 6792W        W22601  14.515   9.520  10.488  0.0766 -0.0789 -0.2218
 6793W        W22602  17.203  11.030  11.382 -0.1364  0.1595 -0.0354
 6794W        W22603   1.731  18.359  10.788 -0.1782 -0.0284  0.0872
 6795W        W22604  15.535  17.750  13.890  0.0135 -0.0438  0.1571
 6796W        W22605  17.452   1.416   0.525 -0.3338  0.0443 -0.1219
 6797W        W22606   6.453   6.459  14.873 -0.2203 -0.2721  0.1154
 6798W        W22607   6.484  14.638   2.153  0.1749 -0.1054 -0.3406
 6799W        W22608   3.440  13.920   0.408 -0.2698 -0.3536 -0.0108
 6800W        W22609  18.242   3.747  14.042  0.0881  0.1224  0.0777
 6801W        W22610  13.394   4.093   5.361  0.2387  0.0715  0.3077
 6802W        W22611  16.668  12.459  12.922  0.1255 -0.1013  0.1488
 6803W        W22612  18.380  11.003  15.084 -0.0470  0.1865  0.2716
 6804W        W22613  18.090   3.103   4.845  0.4546  0.2119 -0.3030
 6805W        W22614   0.118   5.010  14.060  0.1770 -0.1238  0.2608
 6806W        W22615   4.669   0.995   0.956  0.1627  0.0397 -0.0155
 6807W        W22616   7.548   3.180  14.773 -0.0110 -0.0533  0.1457
 6808W        W22617  10.803   9.501   2.551 -0.0895  0.1405  0.0496
 6809W        W22618   7.481   8.345  13.299  0.1157 -0.2670 -0.0937
 6810W        W22619   7.480   3.842  14.035 -0.1676 -0.2574  0.2251
 6811W        W22620   7.742   8.413   3.886 -0.0559  0.0149  0.1295
 6812W        W22621  17.257  10.068  14.170  0.1486 -0.1535  0.0927
 6813W        W22622  12.911  18.060  14.105  0.0657 -0.1268 -0.0737
 6814W        W22623  17.659   7.520  12.851 -0.2176  0.1955 -0.0833
 6815W        W22624  12.894  13.936  10.733  0.0659  0.0459  0.1350
 6816W        W22625   5.039   1.921  11.240  0.2375  0.0640 -0.1124
 6817W        W22626  16.602  14.278  14.201 -0.1020 -0.3155  0.1900
 6818W        W22627  17.645  18.291   2.425  0.1016  0.1390  0.4250
 6819W        W22628  18.483  16.538  10.683 -0.1375  0.0711 -0.0652
 6820W        W22629   1.909  12.683   3.607 -0.0153  0.1615 -0.1462
 6821W        W22630   2.060   6.115  12.545  0.0147  0.0855  0.0955
 6822W        W22631   7.355   1.138   1.374 -0.0685 -0.2201  0.1343
 6823W        W22632   5.615  16.813   0.667  0.0109  0.2570 -0.3418
 6824W        W22633   5.787   3.225  11.534  0.0719  0.2790 -0.1363
 6825W        W22634   8.070   4.866  13.620 -0.0288 -0.0428  0.1399
 6826W        W22635   6.444   7.447   3.266 -0.0124 -0.0100 -0.0978
 6827W        W22636  13.394   0.151  14.809 -0.1408 -0.3345  0.2526
 6828W        W22637   2.935  10.955   2.636  0.1001  0.2413 -0.3229
 6829W        W22638   0.909  12.866   3.429  0.0490  0.3755  0.3299
 6830W        W22639   4.164   4.791   9.544  0.2524  0.1744 -0.4102
 6831W        W22640   6.350   6.047   3.114  0.2010  0.0045 -0.1257
 6832W        W22641  16.712   6.875   0.049  0.1309  0.3968 -0.2176
 6833W        W22642   7.299  11.348   1.799 -0.2028 -0.2117  0.5189
 6834W        W22643  17.078   9.707   3.727 -0.0234  0.1175  0.1634
 6835W        W22644   4.599   8.715   4.439  0.4175  0.0594  0.1091
 6836W        W22645  14.206   3.502  10.471 -0.0685 -0.3960  0.1536
 6837W        W22646   4.165  17.518  13.310  0.1139 -0.0350 -0.1943
 6838W        W22647  18.919   5.809  11.052  0.1910 -0.3321 -0.2666
 6839W        W22648  10.853  11.688   3.406  0.0482 -0.2563  0.0201
 6840W        W22649  11.570  10.172  13.133 -0.1043  0.1723 -0.1216
 6841W        W22650  17.605   1.962   0.057  0.1387 -0.0645  0.3068
 6842W        W22651  10.244   7.436  10.510 -0.2159  0.0841 -0.3758
 6843W        W22652  14.295   3.050  10.698  0.0629 -0.1652  0.0300
 6844W        W22653   5.958  14.335   2.313 -0.0838  0.2110 -0.0639
 6845W        W22654   0.759  15.451  13.741 -0.1878 -0.0229  0.1467
 6846W        W22655  12.071  15.933   1.401 -0.0084 -0.0803 -0.0405
 6847W        W22656   9.323   1.873   2.391  0.0752 -0.0381 -0.2874
 6848W        W22657  14.320   1.172  11.937  0.1697  0.2277 -0.0895
 6849W        W22658  14.036   9.313  13.288  0.0705  0.0635 -0.1616
 6850W        W22659   4.165   7.373   9.710 -0.1306 -0.0759  0.1960
 6851W        W22660  12.484  14.715   3.349 -0.3885 -0.0436  0.0773
 6852W        W22661  15.264   7.740  14.101 -0.0583 -0.4506 -0.0155
 6853W        W22662   8.445   7.615   0.847 -0.2851 -0.0485 -0.0390
 6854W        W22663  18.408  18.120   3.722 -0.2571 -0.0408 -0.0378
 6855W        W22664  13.126   4.575   5.848  0.2059  0.0802 -0.0259
 6856W        W22665   4.163  15.247  10.737  0.1450 -0.1632 -0.0812
 6857W        W22666  12.189  11.346   2.350 -0.3022  0.3290  0.2550
 6858W        W22667  18.017  16.982   1.136  0.2659  0.1278 -0.2380
 6859W        W22668  12.699   3.536  11.358 -0.2165 -0.1696  0.3788
 6860W        W22669   0.934  10.946   3.201  0.3528  0.2451  0.0996
 6861W        W22670  10.877   4.645  12.119 -0.0464 -0.0400 -0.2201
 6862W        W22671   6.156  18.098  13.693 -0.1216 -0.0578 -0.2821
 6863W        W22672  11.977   8.246   1.505  0.0609  0.2663  0.0540
 6864W        W22673   4.699   4.058   1.760 -0.3918  0.0956  0.0006
 6865W        W22674  12.466  15.428   1.687  0.0673 -0.0870 -0.1935
 6866W        W22675   1.170   3.866   0.793  0.0182  0.3036 -0.2886
 6867W        W22676  18.502   8.452  12.846  0.1400  0.0480  0.1280
 6868W        W22677  11.758   7.923   2.918  0.3230 -0.0388  0.1706
 6869W        W22678  14.171  13.255  11.981  0.0827  0.1790  0.1194
 6870W        W22679  17.833  18.700  14.468  0.1507 -0.0790  0.0336
 6871W        W22680  18.613   6.001   1.662 -0.2375 -0.0682 -0.2298
 6872W        W22681  13.908  12.400  13.513  0.1630 -0.0265 -0.4233
 6873W        W22682  15.734   9.321  13.226  0.2501  0.1622  0.1929
 6874W        W22683  11.960   3.757   1.786 -0.1545 -0.1667  0.3964
 6875W        W22684  17.268  12.080   3.813 -0.0555  0.1862  0.0228
 6876W        W22685   6.499  14.707   2.660  0.0049 -0.2490 -0.1708
 6877W        W22686  14.937   1.188   0.824  0.1767 -0.0167 -0.0598
 6878W        W22687   6.432   0.181   1.697 -0.3481 -0.0656 -0.0829
 6879W        W22688   5.632  16.894   4.513  0.1339  0.1891  0.0624
 6880W        W22689  15.875   0.427  11.130  0.0831 -0.1862  0.0632
 6881W        W22690   5.842  17.420  10.367  0.1183 -0.2658  0.0982
 6882W        W22691   2.933  18.131   4.701  0.1722  0.2686  0.0701
 6883W        W22692  11.784   7.725  12.595 -0.1424 -0.1464  0.0567
 6884W        W22693  13.189  12.468  10.641 -0.0598  0.1349 -0.0514
 6885W        W22694   5.173  17.361  14.005 -0.1259  0.0564 -0.1070
 6886W        W22695   3.311  12.653  10.950  0.1851  0.0620 -0.4197
 6887W        W22696   4.064  15.235   1.657 -0.0828  0.0120 -0.0498
 6888W        W22697   3.056  16.385  11.954  0.2086 -0.1992 -0.1166
 6889W        W22698   6.592  15.306  15.275  0.2548 -0.2240 -0.0395
 6890W        W22699   2.395   3.493   1.874 -0.1048 -0.0536 -0.2183
 6891W        W22700  11.640   2.834   2.128  0.1115 -0.1564 -0.2115
 6892W        W22701  17.114   7.769   2.479  0.0053 -0.1867  0.1295
 6893W        W22702   5.809  15.959   1.877  0.1192 -0.1220  0.0002
 6894W        W22703   5.510  14.717  12.085  0.1639  0.2882  0.0148
 6895W        W22704   9.371   0.849   0.625 -0.0709  0.0756 -0.0691
 6896W        W22705  17.430  18.138   2.913  0.2507 -0.1941  0.2669
 6897W        W22706   3.895   0.439   1.321  0.1398 -0.3228 -0.0894
 6898W        W22707   6.780   2.812   3.639  0.1596  0.1347  0.1215
 6899W        W22708  11.873   5.275   4.503  0.1929  0.2394 -0.1267
 6900W        W22709   3.285   6.611  13.360 -0.1790  0.0356 -0.1461
 6901W        W22710   0.396   2.056   0.599  0.0678 -0.4232  0.2095
 6902W        W22711  14.129   9.535  14.960  0.2166  0.4005 -0.0934
 6903W        W22712   6.849  13.174  13.411  0.0483  0.2020  0.3676
 6904W        W22713   8.385  15.098  10.994 -0.0643 -0.1045  0.1372
 6905W        W22714   7.462   1.243   4.660  0.0934  0.3582 -0.0069
 6906W        W22715   5.420  16.752  10.497 -0.0485  0.0735  0.0248
 6907W        W22716   2.072  11.168  10.623  0.3239  0.0869 -0.0549
 6908W        W22717   7.382  10.972   4.765  0.3774 -0.1167 -0.1032
 6909W        W22718   0.762   8.567   0.463  0.1569 -0.0801 -0.1388
 6910W        W22719  17.439   8.921   0.674  0.3286 -0.0094  0.0670
 6911W        W22720   1.621   4.068  11.624 -0.3452  0.2191  0.1483
 6912W        W22721   1.145  10.075   3.424 -0.0440 -0.1531 -0.0186
 6913W        W22722   2.511   7.000   1.102  0.0467  0.1357 -0.1470
 6914W        W22723   4.077  12.221   0.495 -0.1133 -0.0605 -0.1328
 6915W        W22724   8.594   8.054   4.957 -0.3006 -0.3107  0.1720
 6916W        W22725   9.980  18.720   3.499 -0.2301  0.5885  0.0740
 6917W        W22726   8.240  13.261   4.227  0.1392  0.1901  0.1755
 6918W        W22727  13.333  12.850  12.057 -0.0743  0.3059  0.1408
 6919W        W22728  15.395  17.331   4.762  0.0330  0.0617 -0.6868
 6920W        W22729   1.286   6.163  14.398  0.3214 -0.0533 -0.1577
 6921W        W22730   8.886  16.949   0.339 -0.1655  0.1993  0.0949
 6922W        W22731  15.251  12.100  13.377  0.0618 -0.0217  0.2849
 6923W        W22732   1.794  17.660   4.268  0.1053  0.0403  0.1265
 6924W        W22733   2.261   7.231   2.609 -0.0539 -0.3349 -0.0336
 6925W        W22734   9.863   0.586  13.732 -0.1123 -0.2336 -0.1395
 6926W        W22735  16.837  18.879  13.991  0.4888 -0.0195  0.0483
 6927W        W22736  10.245  11.841  12.265 -0.1857  0.1941  0.1891
 6928W        W22737   8.339   6.686   5.939 -0.0192  0.3270  0.2911
 6929W        W22738   1.379  13.932   1.707 -0.3585 -0.0037 -0.0569
 6930W        W22739   5.682  14.752   1.667  0.0943  0.4254 -0.1251
 6931W        W22740  12.038  18.046   2.403 -0.2700  0.0871 -0.1842
 6932W        W22741   6.231   5.870   4.619  0.0442 -0.0475 -0.3669
 6933W        W22742   4.557   8.955  11.703  0.0493 -0.0903  0.1256
 6934W        W22743   9.661   6.953   0.448  0.0559  0.0755 -0.3312
 6935W        W22744  13.254  13.865  12.900  0.0221  0.1970 -0.0624
 6936W        W22745   8.117  13.856  12.064 -0.1528 -0.0440 -0.1900
 6937W        W22746  12.349  17.025  12.302 -0.1334  0.0354 -0.1301
 6938W        W22747  12.154  12.782  13.057 -0.0729  0.2853  0.1086
 6939W        W22748  14.224  13.541  11.194  0.0889  0.0336 -0.1904
 6940W        W22749  12.170   4.120  10.123  0.4310 -0.2891 -0.2061
 6941W        W22750  12.580  17.019  10.943  0.2995 -0.1092  0.1592
 6942W        W22751   3.461   1.407  13.183  0.1862  0.1454  0.1245
 6943W        W22752   8.286   1.573  12.357  0.1482  0.2079 -0.0643
 6944W        W22753  18.190   8.186  13.147  0.1365  0.0447  0.0734
 6945W        W22754  13.324   0.413   1.242  0.3269 -0.0093 -0.2654
 6946W        W22755   3.636  16.841  12.651  0.0211  0.0089  0.1632
 6947W        W22756  18.762  11.094  12.730  0.0225  0.0092 -0.0554
 6948W        W22757   4.144   0.763  10.626 -0.2901 -0.0958 -0.0429
 6949W        W22758   2.721   4.777   3.390  0.2660  0.3209 -0.0026
 6950W        W22759   7.669   4.010   3.085 -0.4029  0.1743 -0.0139
 6951W        W22760   4.861   9.218  15.249 -0.0207 -0.3088  0.2686
 6952W        W22761  15.772  16.004   5.556  0.0284  0.3369 -0.2018
 6953W        W22762   7.874   6.707  12.588  0.1087  0.3691 -0.0600
 6954W        W22763  16.953   2.584   4.920 -0.0737  0.2946 -0.0479
 6955W        W22764   4.282  11.695   4.434 -0.0489  0.0330  0.1361
 6956W        W22765  13.031   4.319   1.898  0.4445  0.1173  0.4361
 6957W        W22766   2.375  10.128   3.699  0.1401  0.0366 -0.0858
 6958W        W22767   1.296  13.058   4.387  0.3604 -0.3873  0.0762
 6959W        W22768  15.771  16.860   5.213 -0.0998  0.2664  0.0440
 6960W        W22769  16.438  18.499   4.838  0.0155  0.0687 -0.2068
 6961W        W22770  17.854   4.549   3.201 -0.0281  0.0917 -0.1318
 6962W        W22771  10.748  15.490   5.168  0.0246 -0.1289  0.0296
 6963W        W22772  17.966   3.502  13.149 -0.2553  0.0727 -0.1146
 6964W        W22773  14.595   5.394   1.084  0.0230 -0.0246  0.1352
 6965W        W22774   7.138   8.747  13.108 -0.5062  0.4436 -0.1022
 6966W        W22775   3.488  13.925  12.449 -0.0265  0.0542  0.1544
 6967W        W22776   1.271   0.953  14.348 -0.3091 -0.0942 -0.0014
 6968W        W22777   2.922   1.574  15.158  0.1116  0.3324 -0.0588
 6969W        W22778   0.666  13.303  11.879 -0.0376 -0.0218 -0.0662
 6970W        W22779   1.936  12.611  11.838  0.2445  0.1782  0.0953
 6971W        W22780   5.038  12.303   0.951 -0.0213 -0.2931  0.0405
 6972W        W22781   0.709   4.694   5.138  0.1146  0.0399  0.0321
 6973W        W22782  12.212   1.456   2.360  0.0359 -0.0891  0.1331
 6974W        W22783   4.458  16.314   0.173 -0.0553 -0.0211  0.0516
 6975W        W22784   8.742   9.630   5.816  0.1597 -0.1640  0.2460
 6976W        W22785  14.728   6.129   3.674 -0.0002  0.0333 -0.0526
 6977W        W22786  14.768  18.459   5.155 -0.3291  0.1513 -0.1178
 6978W        W22787   1.280  14.704   3.720  0.2984 -0.1159 -0.1693
 6979W        W22788   3.641   9.182  14.646 -0.1315  0.2764 -0.3307
 6980W        W22789  12.458  17.025   1.627 -0.1439  0.1235  0.1160
 6981W        W22790  14.672   0.688  12.023 -0.2246 -0.1060  0.0058
 6982W        W22791  12.575  14.444   1.501 -0.1438 -0.3743 -0.0217
 6983W        W22792   1.383   9.105   3.995  0.0116  0.0863 -0.1057
 6984W        W22793  12.130   5.050   0.095 -0.1943 -0.1781  0.1722
 6985W        W22794  16.473  11.546  13.032  0.0512 -0.0482  0.3161
 6986W        W22795   4.260  17.841   2.955 -0.0985  0.0779 -0.2297
 6987W        W22796   9.502   3.339  10.768  0.2302 -0.3592  0.0912
 6988W        W22797   7.574  13.433   4.984  0.2272  0.1736  0.0481
 6989W        W22798   4.543   9.395   4.267  0.1736  0.0821 -0.2306
 6990W        W22799  17.653  13.413   0.830  0.0156  0.0990  0.3632
 6991W        W22800   4.056   4.516  13.864 -0.1915 -0.0921 -0.2106
 6992W        W22801   2.921  11.176   3.919  0.1993 -0.4089  0.1566
 6993W        W22802  12.930   6.585  13.891  0.3024  0.1992 -0.2036
 6994W        W22803   8.635   7.742  10.889  0.3136 -0.0696  0.1117
 6995W        W22804  17.234  12.524   1.932  0.0402 -0.0467 -0.0821
 6996W        W22805   1.009   3.338   4.861 -0.0004 -0.0495  0.1698
 6997W        W22806  17.758   8.088  12.919  0.4220  0.2406  0.2598
 6998W        W22807  16.297   5.262   2.547 -0.2042  0.1530 -0.0814
 6999W        W22808   1.548  12.629  15.059  0.1442 -0.1218  0.2066
 7000W        W22809  18.683   7.500   1.778 -0.0926  0.3427 -0.0125
 7001W        W22810  15.041   0.649  11.623 -0.0570 -0.1196 -0.0314
 7002W        W22811   4.684   4.510   2.487  0.0456  0.0247 -0.1167
 7003W        W22812  11.866   0.536   4.591 -0.2115 -0.3150 -0.3127
 7004W        W22813   5.458   0.266   2.121  0.0879  0.4664  0.0290
 7005W        W22814   0.159   3.161   3.378  0.2450 -0.3561 -0.2683
 7006W        W22815   8.033  16.301  14.985  0.1298  0.1024  0.0120
 7007W        W22816  14.070  11.467   2.778 -0.2241 -0.0023 -0.1457
 7008W        W22817   9.460   4.286  11.396  0.1026  0.0785  0.0299
 7009W        W22818  14.391  16.419   4.492  0.1096 -0.3289 -0.0370
 7010W        W22819  17.137  13.499  11.011  0.0453  0.0532 -0.2411
 7011W        W22820  13.919  11.577   4.369  0.2195 -0.4206 -0.1107
 7012W        W22821   5.788  16.727   3.565 -0.3361 -0.0546 -0.0282
 7013W        W22822   6.422  12.768   5.575 -0.0046 -0.0733 -0.1839
 7014W        W22823  18.005   9.067   1.573 -0.0146 -0.4244  0.3294
 7015W        W22824   6.033  15.227   3.613  0.2089 -0.3342 -0.1426
 7016W        W22825   6.283   7.726   1.264  0.0894 -0.0614 -0.0967
 7017W        W22826   6.640   0.845   2.442 -0.0355 -0.2339  0.1051
 7018W        W22827  11.870   6.858   0.763 -0.2153  0.0418 -0.1175
 7019W        W22828  18.088   3.914  12.153 -0.0450 -0.0886  0.0029
 7020W        W22829   0.994   6.824  12.761 -0.0192 -0.2454 -0.2986
 7021W        W22830   9.025  11.866  11.008 -0.0754  0.2601 -0.4394
 7022W        W22831   8.168  12.574  13.434 -0.3526  0.2226 -0.1135
 7023W        W22832   3.810  17.631   2.739  0.1398 -0.1480  0.2185
 7024W        W22833   5.589  12.657   4.448 -0.2218 -0.0055 -0.1580
 7025W        W22834  12.144  17.853   1.497  0.0106  0.2687  0.3945
 7026W        W22835  13.743   1.712  14.267  0.0952 -0.0796  0.1367
 7027W        W22836  18.766   1.150  14.337 -0.2951 -0.4220  0.1228
 7028W        W22837   3.508  15.686  10.271 -0.2178  0.0567 -0.0926
 7029W        W22838   3.669  18.378   0.733  0.2266  0.1765  0.0301
 7030W        W22839  17.850  14.157  13.813 -0.2403  0.2910  0.0507
 7031W        W22840  14.799  11.033   3.804  0.1144  0.0968  0.1365
 7032W        W22841   5.159  11.637  10.860  0.0320  0.2865 -0.2553
 7033W        W22842   3.255   3.325  15.177  0.0342 -0.3634  0.1780
 7034W        W22843   8.584   2.141   0.566  0.3168  0.0363  0.1975
 7035W        W22844   4.486  13.978  10.827 -0.0147  0.3480 -0.0707
 7036W        W22845   2.186  12.238  12.221  0.0852  0.3025  0.1647
 7037W        W22846   5.113  14.799   1.890 -0.1775 -0.0159 -0.1796
 7038W        W22847  17.257   8.326  10.595 -0.3599 -0.1616 -0.0337
 7039W        W22848   3.688   4.524   5.164  0.1164 -0.2795  0.1243
 7040W        W22849  16.199   3.400   0.698 -0.2733  0.1436  0.3307
 7041W        W22850  10.875  17.942   2.448 -0.1079  0.1194 -0.4124
 7042W        W22851  10.435  15.123   4.723  0.1355 -0.0643 -0.1117
 7043W        W22852  12.744   7.699  14.296  0.3735 -0.1700  0.0308
 7044W        W22853  17.617   8.105   4.344  0.2949  0.2091 -0.0400
 7045W        W22854  18.888  14.005   9.719  0.0504 -0.1371  0.1313
 7046W        W22855   9.705  16.996   3.920 -0.2039 -0.1892 -0.0205
 7047W        W22856  16.096  13.443  14.384 -0.1910  0.2275 -0.0101
 7048W        W22857  12.177   3.088   1.279 -0.1463  0.3639  0.4474
 7049W        W22858  14.943   6.341  14.294 -0.2833 -0.0464 -0.1069
 7050W        W22859  16.779  16.165  12.254 -0.1397  0.2698  0.1786
 7051W        W22860  14.986  15.462  11.362 -0.1007  0.1050 -0.0544
 7052W        W22861   8.725   5.985   0.838 -0.0740 -0.2448  0.1232
 7053W        W22862  18.133  13.285  11.186 -0.0148  0.2009 -0.2907
 7054W        W22863   3.770  11.966  12.776 -0.0065 -0.0791  0.0600
 7055W        W22864   9.638  10.714   4.865  0.1308 -0.0773 -0.1237
 7056W        W22865  17.519   8.552   1.739  0.0978 -0.1272 -0.0330
 7057W        W22866  13.723   8.085   5.694  0.2265 -0.2952  0.0338
 7058W        W22867   5.609   7.873   2.903  0.0466  0.1012 -0.1199
 7059W        W22868  13.138   6.053  15.054 -0.0219  0.0540 -0.4094
 7060W        W22869   1.342   9.605   2.179  0.5176  0.2081  0.3886
 7061W        W22870   1.217   8.764  13.983  0.0625  0.1527  0.2286
 7062W        W22871  14.815  16.610  10.705  0.0725 -0.0964 -0.0689
 7063W        W22872  17.990   4.199   9.972 -0.1857 -0.1110  0.2409
 7064W        W22873  17.673  18.561   1.926 -0.1036  0.4028 -0.2697
 7065W        W22874   2.859  10.016   5.133 -0.2888  0.2258  0.2190
 7066W        W22875  17.338   0.013  13.815 -0.2161  0.0045 -0.0515
 7067W        W22876  10.666  17.415  10.931 -0.1226  0.0306  0.2762
 7068W        W22877   4.074   3.389   1.524  0.1509 -0.1416 -0.0327
 7069W        W22878   6.289   0.245   9.730 -0.0993  0.2425  0.0291
 7070W        W22879  17.158   8.227  13.763  0.0864  0.0488 -0.0904
 7071W        W22880  12.645   8.519  11.546  0.2794 -0.1511 -0.5532
 7072W        W22881  18.705  13.984  14.689 -0.2773  0.1906  0.1492
 7073W        W22882  12.755  12.013  13.613 -0.4297  0.0416  0.0287
 7074W        W22883  14.701   6.297   4.162  0.0523 -0.4102  0.1001
 7075W        W22884  10.891  14.777  15.140  0.2737 -0.0264 -0.1206
 7076W        W22885   9.102   9.750   0.792 -0.0343 -0.0305  0.1917
 7077W        W22886   2.788  17.032  11.129 -0.2512  0.1572 -0.2516
 7078W        W22887   7.434  13.532   0.360 -0.0519  0.1442 -0.1461
 7079W        W22888   2.504  15.331   2.041  0.2521  0.1597 -0.0325
 7080W        W22889   5.998  17.717   4.166 -0.2253 -0.1901 -0.0599
 7081W        W22890   4.471  15.094   2.787 -0.3156 -0.0515 -0.0132
 7082W        W22891   7.717   5.616  13.816 -0.1266  0.1365 -0.1348
 7083W        W22892   7.608  16.792  13.649 -0.1766 -0.3350 -0.0859
 7084W        W22893   8.798  12.428  12.190 -0.1729 -0.0675 -0.1171
 7085W        W22894   9.950  13.302  11.181  0.2561 -0.0680  0.2910
 7086W        W22895  11.090  18.509  11.599  0.1745  0.2066  0.3187
 7087W        W22896   1.442  15.160   4.124  0.3498  0.1904  0.0542
 7088W        W22897  14.826   6.609  12.730 -0.0922  0.0020  0.0426
 7089W        W22898  11.389   9.630  13.130  0.1997 -0.1503 -0.0686
 7090W        W22899  12.900  18.628  12.065 -0.2747  0.2358  0.0137
 7091W        W22900   9.538  17.837   5.085  0.1525  0.0741 -0.0281
 7092W        W22901  14.463   3.939  10.481  0.0888 -0.2340  0.2068
 7093W        W22902   8.394   2.492  11.150  0.0979  0.1356  0.2342
 7094W        W22903  16.357  18.183   3.877  0.2735  0.2669  0.2914
 7095W        W22904  15.767   4.848   1.993 -0.1666 -0.1305  0.0873
 7096W        W22905  17.021  12.192   1.052  0.2575 -0.1166 -0.0821
 7097W        W22906   8.966   0.265  12.855  0.0564 -0.2863  0.1153
 7098W        W22907  10.696  15.222  10.613 -0.0927  0.1850  0.0211
 7099W        W22908   9.217  11.273   1.086 -0.1259 -0.2730  0.2801
 7100W        W22909   6.739   3.986  15.114  0.0229  0.0991 -0.0447
 7101W        W22910   8.035   2.959   0.869  0.2015  0.0015  0.1311
 7102W        W22911   4.351   4.544   4.780 -0.0689 -0.1748  0.2992
 7103W        W22912   6.283  17.206   1.589 -0.1999 -0.1749 -0.0271
 7104W        W22913  13.779  10.356   0.997  0.1689 -0.1411 -0.3662
 7105W        W22914  11.597  18.092   2.182  0.0885 -0.1766 -0.1433
 7106W        W22915   9.179  13.244  15.139 -0.0461 -0.1292  0.0826
 7107W        W22916   8.855  11.586  14.366  0.0556  0.0975 -0.0851
 7108W        W22917   4.711   5.491  10.884 -0.2066 -0.1967  0.2543
 7109W        W22918  12.202  16.802   1.263 -0.4774 -0.0928 -0.1476
 7110W        W22919   2.390   4.123   2.842 -0.2187  0.1563 -0.2124
 7111W        W22920  16.757  12.197   2.109 -0.3630 -0.0117  0.2154
 7112W        W22921   3.899   7.419   3.510 -0.1412 -0.1320  0.5279
 7113W        W22922   9.875   9.221  14.379  0.2098 -0.0557  0.3891
 7114W        W22923   4.788   1.160   1.425  0.1657 -0.0575 -0.0841
 7115W        W22924  15.853   3.804   0.580 -0.0904  0.1123  0.0283
 7116W        W22925   9.138   4.881   1.975  0.1836  0.1379  0.0099
 7117W        W22926   9.887   1.998   2.257  0.1454 -0.0350 -0.4672
 7118W        W22927   7.614   8.037   5.113 -0.0482 -0.1289  0.3093
 7119W        W22928   6.856   6.160  14.849 -0.1549  0.2656 -0.1479
 7120W        W22929  15.296   9.210   1.265  0.0852  0.1260 -0.3294
 7121W        W22930  14.253  18.892  13.178 -0.0006 -0.1852 -0.2167
 7122W        W22931   4.071   7.268   4.019 -0.1139  0.3793  0.0171
 7123W        W22932   7.073   0.809  15.250 -0.0644  0.0694  0.0941
 7124W        W22933   6.660  16.543   4.771  0.5330 -0.0443  0.1580
 7125W        W22934   7.146  16.258  11.426 -0.0277  0.0278  0.2064
 7126W        W22935  10.327  13.273  12.811  0.2041 -0.1884  0.1557
 7127W        W22936  12.885   4.740  14.127 -0.1634  0.1388  0.2755
 7128W        W22937  10.481   1.765   0.683  0.0780 -0.0996  0.1218
 7129W        W22938   8.296  17.129   2.039  0.1664 -0.1227 -0.3450
 7130W        W22939   3.445  15.226   1.006  0.1354  0.2555  0.0132
 7131W        W22940   0.048   3.235  13.057  0.2658 -0.0188 -0.0249
 7132W        W22941  16.269   0.635  10.451  0.0688  0.0398 -0.3048
 7133W        W22942   9.112  14.854   5.254 -0.3829  0.0524  0.4916
 7134W        W22943  18.474   2.776   5.111  0.0579  0.0500 -0.2003
 7135W        W22944   8.834  16.647   0.803  0.0212 -0.1415 -0.0313
 7136W        W22945   3.940  15.293  15.376 -0.1622  0.2759  0.0401
 7137W        W22946  12.443  17.342  13.821 -0.0516  0.3252 -0.1453
 7138W        W22947   0.889   9.949   5.029 -0.1018 -0.0550  0.1738
 7139W        W22948   5.369   0.537   0.447  0.4492  0.1815 -0.0699
 7140W        W22949   8.634   7.842   1.964  0.0545 -0.3239  0.1816
 7141W        W22950   0.425   7.521  11.490  0.0261 -0.0664 -0.1527
 7142W        W22951  15.493  14.455   5.247  0.1211 -0.1904 -0.2294
 7143W        W22952   9.583  13.346  12.430 -0.1099 -0.0960  0.1326
 7144W        W22953   7.802   2.195  10.096  0.0599  0.0146  0.0401
 7145W        W22954   3.744   4.415  10.882 -0.0128  0.2244 -0.3389
 7146W        W22955   9.783  10.103   0.449 -0.0148  0.1073  0.1228
 7147W        W22956   8.232   8.667   2.785 -0.1578  0.0337 -0.1755
 7148W        W22957   9.100  16.203  13.638  0.2234  0.4204 -0.1482
 7149W        W22958   0.569   6.202   0.375  0.0752 -0.1861  0.1909
 7150W        W22959  10.874   5.393   3.192 -0.2435  0.2035 -0.1744
 7151W        W22960  10.804   9.149  10.580 -0.2412  0.1299  0.0952
 7152W        W22961  13.559   8.943   9.969 -0.1001  0.2417 -0.0187
 7153W        W22962   6.722   7.158   1.627 -0.0238  0.3115 -0.0235
 7154W        W22963  18.089   2.983   4.347 -0.1439 -0.0031 -0.3007
 7155W        W22964  18.108   7.425   2.335 -0.0689  0.0577  0.1629
 7156W        W22965  11.145   1.137   3.098  0.0656 -0.2166 -0.2105
 7157W        W22966  10.202   8.529   3.221 -0.0046  0.0792 -0.3443
 7158W        W22967  10.816   6.090   3.084  0.1256  0.0259 -0.0513
 7159W        W22968   2.423  14.236   3.686  0.1537 -0.1151 -0.0276
 7160W        W22969   3.445   8.781  14.897 -0.0957  0.1065 -0.3379
 7161W        W22970  16.728   8.208   1.832  0.1104 -0.3785 -0.1338
 7162W        W22971   2.699   0.968  14.402  0.0397 -0.0345  0.3349
 7163W        W22972   5.282  16.146  11.024 -0.0011  0.4159  0.0797
 7164W        W22973   3.333   7.240   2.654 -0.1062 -0.0994  0.0606
 7165W        W22974  13.253   9.960  13.114  0.1560 -0.2523 -0.0482
 7166W        W22975  17.922  15.023   2.110 -0.1939 -0.0676 -0.0643
 7167W        W22976   2.422   4.994   1.386 -0.0253 -0.0477 -0.1742
 7168W        W22977  14.785   9.875   2.032 -0.0899 -0.0023  0.0781
 7169W        W22978  14.747  13.167  11.253 -0.0987  0.0135  0.0846
 7170W        W22979  14.823  18.658   2.187 -0.2162 -0.1862 -0.0098
 7171W        W22980  15.615  13.481  14.555 -0.1381  0.5073 -0.3257
 7172W        W22981   8.502   1.049   0.916  0.2702 -0.0419 -0.1273
 7173W        W22982  18.396  17.290  11.075 -0.2678 -0.1581  0.0694
 7174W        W22983  15.195  14.262   2.635  0.0509  0.1574 -0.1447
 7175W        W22984   9.753  13.479   3.922  0.0991  0.2983 -0.1611
 7176W        W22985  16.109  12.870  11.058 -0.1925  0.1199  0.0337
 7177W        W22986   1.646  13.369   1.459  0.2144 -0.0577 -0.1358
 7178W        W22987   2.721   5.091   4.134 -0.2822  0.1306  0.3470
 7179W        W22988   7.240   8.978  10.906 -0.1122  0.1102 -0.2439
 7180W        W22989  14.988  14.309   5.320 -0.0984 -0.1751  0.0401
 7181W        W22990   8.013   2.007  14.120  0.2331  0.0514 -0.0128
 7182W        W22991  18.217   2.880   1.496 -0.0852 -0.3141  0.3311
 7183W        W22992  17.641  17.193  11.364 -0.0500 -0.0607  0.0551
 7184W        W22993  15.951   2.280   1.448 -0.2205 -0.2069  0.1760
 7185W        W22994   9.155   5.856   0.907 -0.0845  0.0744 -0.2861
 7186W        W22995  10.095   7.226  12.519 -0.3082 -0.1790  0.0714
 7187W        W22996  11.660   2.399   4.668  0.0108  0.0069 -0.0791
 7188W        W22997   5.320   8.266   2.638  0.0436  0.1747  0.0440
 7189W        W22998  14.976  14.077  11.438  0.2222 -0.0703  0.0755
 7190W        W22999  11.125  13.476   5.110  0.0300 -0.1567 -0.1108
 7191W        W23000  16.991  13.246   1.004 -0.0115  0.1865  0.2892
 7192W        W23001   9.080  10.438  13.021  0.2289 -0.1320  0.1457
 7193W        W23002   0.205   1.616   0.996  0.2557 -0.1332  0.1315
 7194W        W23003  16.988   7.756   1.027 -0.1330  0.1752 -0.2959
 7195W        W23004  12.491  12.595   0.606 -0.2799  0.1453 -0.0841
 7196W        W23005   0.899   3.578  15.176  0.6160  0.0469 -0.2358
 7197W        W23006  15.417   9.375   3.410 -0.0967 -0.1214 -0.0990
 7198W        W23007   5.535  14.059  11.980  0.0006  0.0047 -0.1164
 7199W        W23008  15.239   2.144  12.211 -0.1955  0.2066  0.1892
 7200W        W23009   3.816   6.640  11.992 -0.2696  0.1257  0.3265
 7201W        W23010  10.986  13.976  12.914  0.1487 -0.2019 -0.1374
 7202W        W23011   3.921   8.381  12.064  0.3506 -0.0370 -0.2512
 7203W        W23012  15.723   3.569   3.393 -0.1647 -0.1183  0.3322
 7204W        W23013  13.769  12.511   1.242  0.1740 -0.1230  0.0875
 7205W        W23014   9.662   7.261   2.494 -0.2735 -0.1312 -0.0767
 7206W        W23015   6.526   0.931   5.049  0.3102  0.0138  0.0481
 7207W        W23016   6.569  17.291   3.626  0.0546  0.1700  0.2989
 7208W        W23017   5.652  17.670  12.122  0.0215  0.3662 -0.0465
 7209W        W23018   6.781   6.017  12.060  0.0603  0.2700 -0.1543
 7210W        W23019  15.059   6.503  13.131  0.1951  0.0002  0.3243
 7211W        W23020   4.518  18.542   1.210 -0.1571  0.3082 -0.1264
 7212W        W23021   3.272  14.207   1.153  0.0012  0.0124  0.0768
 7213W        W23022  12.807   4.086   0.562  0.0736  0.2980  0.0293
 7214W        W23023  16.919  12.339  13.957  0.1562 -0.0944 -0.3565
 7215W        W23024   5.116   3.114   0.890  0.0218  0.4494 -0.1922
 7216W        W23025   1.215  10.680  11.195  0.1701  0.0429 -0.1404
 7217W        W23026  11.125   5.986   3.941  0.0361 -0.2020  0.0556
 7218W        W23027  15.505  17.470   1.703 -0.2197  0.1148 -0.2298
 7219W        W23028   1.709  11.199   1.512 -0.1258 -0.0173  0.3152
 7220W        W23029  18.265   8.639   4.031  0.0090 -0.0063  0.2190
 7221W        W23030  18.258  18.137  13.189  0.3264 -0.1910 -0.0068
 7222W        W23031  16.266   8.954   0.427 -0.0533  0.1473  0.0223
 7223W        W23032   8.655   7.188   5.147 -0.1729 -0.3553  0.0825
 7224W        W23033  17.826   0.601  11.769 -0.0347  0.1975  0.3113
 7225W        W23034   4.668  14.400   3.375 -0.1234 -0.0888 -0.0643
 7226W        W23035   0.118  15.367  13.063  0.0544 -0.2083  0.4565
 7227W        W23036   7.817   2.999  12.727 -0.0484 -0.0524 -0.0891
 7228W        W23037   4.947   3.111   4.776 -0.3096 -0.1078  0.2215
 7229W        W23038   8.373   0.238   0.124 -0.0341  0.1417 -0.0792
 7230W        W23039   4.105  17.156  11.231  0.1121 -0.1454  0.0281
 7231W        W23040   5.801   8.529   2.524 -0.0476 -0.2083  0.0800
 7232W        W23041   8.838   5.671   1.749  0.1215 -0.2001 -0.0076
 7233W        W23042   1.799   0.688   0.166 -0.0379  0.1373  0.1350
 7234W        W23043  12.110  13.546   0.742  0.0360  0.0194  0.4315
 7235W        W23044   5.960  18.080  13.259  0.5386 -0.1951 -0.1961
 7236W        W23045  16.145   6.011  11.500  0.0615 -0.1564  0.0578
 7237W        W23046   1.577   6.379   4.241 -0.3678 -0.0646 -0.0181
 7238W        W23047   1.777  13.556  11.756  0.0486 -0.0551 -0.0939
 7239W        W23048   3.153  17.506   0.038 -0.2240  0.0386 -0.0566
 7240W        W23049  17.934   9.187  12.645  0.1747 -0.1817 -0.0726
 7241W        W23050   0.406  15.829  11.662  0.0513 -0.0161 -0.0427
 7242W        W23051   6.787   2.765   2.290  0.1996  0.0932 -0.1375
 7243W        W23052   2.645  17.934  11.665 -0.2929  0.0042  0.0687
 7244W        W23053  11.323  14.805  14.024  0.2676 -0.1694 -0.0736
 7245W        W23054   2.512   8.889  11.906  0.0740 -0.1976 -0.0218
 7246W        W23055   4.332  13.456   1.289 -0.0788  0.0255  0.1624
 7247W        W23056   1.647  12.870  14.076 -0.0094 -0.2001 -0.2263
 7248W        W23057   4.675   9.224   3.201 -0.0277  0.3171  0.0878
 7249W        W23058   7.768   6.328  11.409 -0.0548  0.0691  0.3456
 7250W        W23059   0.898   9.414   4.760 -0.1050 -0.0370 -0.0494
 7251W        W23060   9.562  15.103  12.143 -0.2388 -0.1097 -0.4758
 7252W        W23061  11.234   6.236   2.278 -0.1646 -0.1384 -0.1126
 7253W        W23062  17.900   8.794   5.163  0.4148  0.0333 -0.0892
 7254W        W23063  12.078  10.320   0.372 -0.3274  0.1314 -0.2111
 7255W        W23064  13.915   2.245  14.201  0.1623  0.2242  0.1022
 7256W        W23065  14.781   3.689  11.149  0.3600 -0.1627 -0.3073
 7257W        W23066  18.073   4.793  11.890  0.0932  0.1259 -0.0037
 7258W        W23067   3.319  11.044  12.247 -0.1332  0.3945 -0.1098
 7259W        W23068  15.883  18.256  14.549 -0.0106 -0.0550 -0.2708
 7260W        W23069  17.155  10.694   4.764 -0.0750  0.1100 -0.0885
 7261W        W23070  14.908   0.963   1.285 -0.1263 -0.1074  0.0914
 7262W        W23071  14.880   4.976   3.314 -0.0140 -0.3322 -0.1750
 7263W        W23072  10.855   0.921  14.536 -0.1183  0.0432  0.0476
 7264W        W23073   7.739  17.425   4.867 -0.2473  0.2108 -0.1105
 7265W        W23074   5.678  10.430  13.142 -0.1225  0.0815  0.1302
 7266W        W23075   0.430   8.980  11.169  0.3434 -0.0822  0.0802
 7267W        W23076   3.568  14.676   3.548  0.3615  0.3248 -0.1825
 7268W        W23077   9.651  14.338   4.078  0.0207  0.1350  0.0578
 7269W        W23078   1.934  15.089   4.196 -0.0226  0.0017  0.1653
 7270W        W23079   0.152  10.068   0.242  0.0918  0.1920  0.2163
 7271W        W23080  14.014  17.958   2.033  0.0001  0.0010 -0.1998
 7272W        W23081  11.788  18.594  14.951 -0.1684 -0.3978  0.1737
 7273W        W23082  15.988  10.065  12.065 -0.2181  0.1808 -0.0625
 7274W        W23083   7.265   8.481   2.895  0.1594 -0.0425  0.2478
 7275W        W23084  17.328  15.588   4.682 -0.2883 -0.0863 -0.0526
 7276W        W23085  10.266   5.259  12.144  0.0776  0.1351 -0.0245
 7277W        W23086  10.059   2.354  10.096 -0.2320  0.1216 -0.0584
 7278W        W23087   2.103  10.892   4.821 -0.2590 -0.1872  0.3670
 7279W        W23088   8.412   9.646  13.273  0.1835  0.0461 -0.2056
 7280W        W23089  13.537  12.816  13.706 -0.1441  0.0545  0.0133
 7281W        W23090  14.955   4.293   9.447 -0.0364 -0.1032  0.1321
 7282W        W23091   2.154  16.203   3.939  0.0023 -0.0244  0.2216
 7283W        W23092   2.755   4.859   0.070 -0.0595  0.0176 -0.0406
 7284W        W23093  15.409  16.824  12.827 -0.1402 -0.0460  0.1545
 7285W        W23094   5.198   7.551   4.664  0.0563 -0.0516 -0.0992
 7286W        W23095  16.633  14.902  11.804 -0.0462  0.0552 -0.2646
 7287W        W23096   5.080   0.676  15.072  0.0204  0.0459 -0.0736
 7288W        W23097  16.145  13.360   2.262  0.0196 -0.2432  0.0561
 7289W        W23098   6.686   2.377   3.491 -0.2023 -0.0858  0.2741
 7290W        W23099   7.402  16.668   1.839  0.1867 -0.1182  0.3174
 7291W        W23100  17.019   8.543  15.331  0.0248 -0.1203  0.4780
 7292W        W23101  18.310   2.731  13.415  0.0100 -0.0903 -0.3005
 7293W        W23102   9.241  16.241   4.771  0.3085  0.3663 -0.1059
 7294W        W23103  15.410   1.813   0.898 -0.1855 -0.0767  0.0686
 7295W        W23104   1.059  13.556   5.122 -0.3145 -0.1758 -0.0493
 7296W        W23105  17.613  15.108  12.939 -0.0557  0.1471 -0.0550
 7297W        W23106  15.253  15.814   3.751  0.1267  0.2409  0.1751
 7298W        W23107  14.070  12.083   1.840 -0.1520  0.0491  0.0803
 7299W        W23108  15.260   6.922  14.764  0.1831  0.0553  0.0772
 7300W        W23109  14.220   3.312   3.806  0.0453  0.2000  0.1122
 7301W        W23110  10.484  17.783  14.066 -0.2460  0.1018 -0.2034
 7302W        W23111   7.302  15.041  13.839  0.1573  0.1379  0.2371
 7303W        W23112  11.623   0.693  11.251 -0.1855 -0.0074 -0.1481
 7304W        W23113  13.970  12.655  11.573 -0.0963  0.3834  0.2997
 7305W        W23114   9.507  11.247   4.932  0.0772  0.4032  0.0213
 7306W        W23115   6.075  11.159   2.559  0.0718  0.0063 -0.0250
 7307W        W23116   9.099   0.668  13.293  0.1672  0.2164  0.0875
 7308W        W23117   3.365   7.582   4.723 -0.0054  0.0209  0.0650
 7309W        W23118  16.323  14.299   2.540 -0.0708 -0.0637 -0.0034
 7310W        W23119  15.725   5.523  14.056  0.1979 -0.2358  0.2456
 7311W        W23120  13.161  12.445   4.057 -0.2776  0.1315 -0.1693
 7312W        W23121   1.284   3.778   5.038  0.4326  0.1656  0.0032
 7313W        W23122   2.649   6.049  13.232 -0.0555  0.1681 -0.2103
 7314W        W23123  14.908  12.542   1.512  0.1473  0.0212 -0.0291
 7315W        W23124   5.361   7.100   4.518  0.1607 -0.2216 -0.0200
 7316W        W23125  14.845   7.661  10.198  0.1855  0.0519 -0.0059
 7317W        W23126  18.117  13.109   3.249  0.0729  0.1664 -0.1528
 7318W        W23127   1.552   3.203  13.324 -0.1670 -0.0711 -0.1929
 7319W        W23128   3.711   4.403   9.596  0.0490  0.1006 -0.0468
 7320W        W23129   8.884  16.947   2.798 -0.1484  0.3233 -0.0132
 7321W        W23130   9.196   9.277   0.960  0.1340 -0.0467 -0.0147
 7322W        W23131  13.512  12.552   4.570 -0.2070  0.0244  0.2222
 7323W        W23132   8.227  14.918   3.776  0.0251 -0.2499 -0.0601
 7324W        W23133  12.438   9.225   1.704  0.2007  0.1393  0.1920
 7325W        W23134   6.151  18.641   2.471  0.1930  0.2656 -0.1036
 7326W        W23135  11.483   4.807   2.125  0.2124 -0.1526  0.1684
 7327W        W23136  12.597  13.598   2.187 -0.0322  0.1866  0.0871
 7328W        W23137   9.585   3.607  15.240  0.0691 -0.1263  0.1526
 7329W        W23138  13.873   3.844   1.264  0.1961 -0.0462 -0.0017
 7330W        W23139  11.576   7.244  15.200  0.1655  0.0358  0.0548
 7331W        W23140  15.393  14.893   0.733  0.0605 -0.3177 -0.0402
 7332W        W23141  15.748   4.789  14.797 -0.0061  0.0501 -0.2383
 7333W        W23142  17.472  11.448  13.998 -0.3334 -0.0848 -0.1079
 7334W        W23143  16.439  15.876  11.308  0.0632 -0.0010  0.3006
 7335W        W23144   3.699   9.879   0.159  0.1497 -0.0822  0.3002
 7336W        W23145  15.149  11.525   2.615 -0.0618  0.0867 -0.2868
 7337W        W23146   4.138   0.068  11.707  0.0926 -0.0026 -0.2037
 7338W        W23147  10.397  11.998   2.672 -0.2341 -0.1679 -0.2267
 7339W        W23148  16.102   4.611  11.924  0.0195  0.0859  0.4617
 7340W        W23149   9.605   3.702   1.703 -0.1613  0.2347 -0.0281
 7341W        W23150  11.538   7.783  14.861  0.0159  0.0365  0.1580
 7342W        W23151  12.171  16.029   1.978  0.1586 -0.3546 -0.1527
 7343W        W23152   8.895  11.469  11.243 -0.3209  0.0094  0.3805
 7344W        W23153   7.474  17.201   1.287 -0.1038 -0.2215  0.2299
 7345W        W23154  10.927   2.312   1.449  0.0153 -0.0173  0.0239
 7346W        W23155  12.459  16.265  13.512  0.1353  0.1206  0.0179
 7347W        W23156  13.010  18.519   4.434 -0.0689  0.0201 -0.0527
 7348W        W23157   7.303   0.765   1.744  0.0333 -0.1658  0.0675
 7349W        W23158   5.870  14.525  15.016  0.1388  0.0475 -0.0718
 7350W        W23159   7.279   8.917   1.133  0.0139 -0.1052  0.0763
 7351W        W23160  14.735  11.302  11.903  0.0305  0.2020  0.0661
 7352W        W23161   8.165   9.280   9.713 -0.0406  0.1403  0.0301
 7353W        W23162  13.126  18.310   3.057 -0.3024 -0.1903  0.0822
 7354W        W23163   6.485  14.560   4.218 -0.3933 -0.0652  0.0996
 7355W        W23164   3.807  16.715  13.520 -0.1328  0.0948 -0.1726
 7356W        W23165   5.448   8.727   1.041  0.1323  0.2503 -0.0269
 7357W        W23166   8.176  16.625  14.195  0.0754  0.2164  0.2574
 7358W        W23167   9.921   6.870  12.982 -0.0863  0.1676  0.0951
 7359W        W23168  15.108  16.421   0.831 -0.1587 -0.0531  0.1891
 7360W        W23169   2.691   9.214   1.723 -0.0621 -0.1414  0.0284
 7361W        W23170  10.991  17.742  13.920 -0.0989  0.0134 -0.0736
 7362W        W23171   0.602   1.985  10.220  0.1482 -0.2262  0.0059
 7363W        W23172  16.373   4.350  10.154 -0.2087 -0.1151 -0.1916
 7364W        W23173  13.534  14.802  12.692  0.0650  0.0834 -0.4210
 7365W        W23174  12.467   6.955  14.577 -0.1475 -0.0275 -0.0342
 7366W        W23175  15.672  16.266   4.405 -0.3299  0.1823  0.0731
 7367W        W23176   7.302   6.101   4.477 -0.3993  0.0084 -0.0429
 7368W        W23177   5.907  11.983   0.867 -0.2345 -0.1348  0.2305
 7369W        W23178  14.801  13.442   2.750 -0.0494  0.2396  0.0097
 7370W        W23179   0.519   4.999  13.195  0.3899 -0.0235 -0.5615
 7371W        W23180   1.569  15.944  11.188 -0.2237 -0.0108 -0.1541
 7372W        W23181  18.760   3.135  13.558  0.1164  0.0434 -0.2351
 7373W        W23182  16.938  11.549  11.352 -0.3101 -0.1556  0.1476
 7374W        W23183  10.842  18.107  12.035  0.2408  0.1644 -0.1280
 7375W        W23184   2.593  11.079  11.018  0.1045 -0.1493  0.4146
 7376W        W23185   8.906  12.713  13.986  0.0605 -0.2879 -0.1035
 7377W        W23186  16.652  11.518  10.902  0.0161 -0.4527  0.2861
 7378W        W23187   9.870  18.266  12.522  0.3902 -0.1858  0.1232
 7379W        W23188   7.765  11.217   3.448 -0.2258 -0.2791 -0.0750
 7380W        W23189   6.186  11.361   5.129 -0.1889  0.3298 -0.0536
 7381W        W23190  15.102  18.365   3.444  0.2825  0.2951 -0.0491
 7382W        W23191   3.094  10.789  12.641 -0.1550 -0.1296 -0.1483
 7383W        W23192   9.095  17.064  14.512  0.1868  0.0401 -0.1252
 7384W        W23193  13.037   6.568  11.935 -0.0020  0.2262  0.0369
 7385W        W23194   3.376   8.270  15.073 -0.0249 -0.2479 -0.2105
 7386W        W23195   0.767  16.659   4.612  0.1745  0.2047  0.0142
 7387W        W23196  16.573   7.251  15.199 -0.0904 -0.2360  0.1669
 7388W        W23197  12.664  15.277   3.755 -0.3147  0.0452  0.0697
 7389W        W23198  14.965   9.493   3.621  0.2565 -0.1485 -0.0136
 7390W        W23199  18.056  14.490   3.726 -0.0938  0.1109  0.3779
 7391W        W23200   6.686   7.167  10.831  0.1994 -0.1443  0.0995
 7392W        W23201   6.995   9.077   0.751  0.1994 -0.2027  0.0680
 7393W        W23202   3.985   0.210   3.297  0.0834  0.0953  0.2333
 7394W        W23203  14.950  18.725  14.177 -0.0003  0.2329 -0.1681
 7395W        W23204  17.738   8.963  11.246  0.0396 -0.0604  0.0917
 7396W        W23205  14.140  14.343   3.861  0.0517  0.0303  0.0710
 7397W        W23206   3.010   1.661  10.438 -0.1184  0.0378  0.1635
 7398W        W23207  16.175  13.611   0.535 -0.2050  0.3307  0.1919
 7399W        W23208  17.159  17.343  12.231 -0.2336 -0.0098 -0.2110
 7400W        W23209  13.123   8.327  11.555  0.1234 -0.6018  0.1258
 7401W        W23210   3.876   8.421  11.579 -0.0633  0.1867 -0.1427
 7402W        W23211  17.581   9.745   3.544 -0.4180  0.1870  0.2804
 7403W        W23212   4.966  12.397   1.954 -0.2637  0.2373  0.0672
 7404W        W23213   2.730  14.962  15.347 -0.2169 -0.1257  0.3660
 7405W        W23214   0.453   2.578   3.841 -0.1064  0.0434  0.0016
 7406W        W23215   4.835  14.792  13.106  0.1647  0.1282 -0.0609
 7407W        W23216  16.179   1.894  11.024  0.3108  0.1618 -0.1694
 7408W        W23217  15.285  16.749   1.717 -0.2198 -0.1417 -0.1706
 7409W        W23218   1.912  11.961   2.695 -0.0101  0.0198 -0.0873
 7410W        W23219   2.631  10.692  12.440 -0.1963  0.4238 -0.0949
 7411W        W23220   7.126   0.005  14.264  0.0335  0.0317 -0.3110
 7412W        W23221  13.204   8.021   0.670  0.0912  0.0059  0.1391
 7413W        W23222   8.184  15.046   4.769 -0.1650 -0.2494 -0.1739
 7414W        W23223   2.019  10.472  11.753 -0.7387  0.1485 -0.0305
 7415W        W23224  14.998  17.506   1.500 -0.0174  0.5508 -0.2001
 7416W        W23225   0.217   6.586  15.051 -0.4606  0.0660 -0.1381
 7417W        W23226   7.057  10.164  15.202 -0.0788 -0.1039  0.0979
 7418W        W23227  16.063  18.025   4.817  0.0137 -0.4272  0.1168
 7419W        W23228   6.144  18.334  10.405 -0.4003 -0.1151 -0.0079
 7420W        W23229  11.305   6.601   2.613  0.2299 -0.1404  0.0376
 7421W        W23230   9.258   2.874   5.127  0.0130  0.2334  0.0579
 7422W        W23231   8.777  12.935   2.601 -0.1869  0.3025 -0.1586
 7423W        W23232   0.237  12.618   4.075  0.2439 -0.2659 -0.1342
 7424W        W23233   9.953  11.743  14.191 -0.0352  0.0109  0.0376
 7425W        W23234   9.377  16.002   4.312 -0.1203  0.2450 -0.0473
 7426W        W23235  11.903  15.045   0.655  0.1477  0.0038 -0.1290
 7427W        W23236   7.577   1.575  13.064  0.0544 -0.0516 -0.0988
 7428W        W23237   2.227   6.529   2.903 -0.0801  0.0856  0.0554
 7429W        W23238   7.923   8.411   4.910  0.1999 -0.3207 -0.0875
 7430W        W23239  17.628   4.809  11.094  0.1366  0.0093 -0.3200
 7431W        W23240  14.394   4.482  10.538 -0.0443 -0.0176 -0.2833
 7432W        W23241  17.721   5.060   5.000  0.4505 -0.1253 -0.1294
 7433W        W23242   2.125  10.255   0.129  0.0294  0.1368  0.4840
 7434W        W23243   9.260  18.078  13.229 -0.1748 -0.1646 -0.0898
 7435W        W23244   7.463   4.449   0.755  0.1440  0.0822  0.0730
 7436W        W23245  18.267   4.638   4.118 -0.0676  0.1819 -0.0035
 7437W        W23246  17.514   9.080  11.708 -0.1508 -0.0352 -0.0243
 7438W        W23247   2.817   3.677   4.176  0.0253  0.0128 -0.3335
 7439W        W23248   6.521  11.337   1.499  0.1108  0.4570  0.0192
 7440W        W23249   3.582   7.225   0.423  0.1377  0.1457  0.2499
 7441W        W23250   9.582   7.305   4.108 -0.0464  0.0019 -0.1350
 7442W        W23251  12.998   2.626  10.336 -0.1028 -0.0813 -0.0065
 7443W        W23252   5.451  15.850   5.154 -0.2762 -0.1541 -0.2869
 7444W        W23253  12.298   7.668  13.136  0.1414  0.4515 -0.3834
 7445W        W23254   8.458  12.144   4.004  0.0576  0.0552 -0.1331
 7446W        W23255  16.492  13.509  14.779 -0.3114  0.0448  0.1564
 7447W        W23256  11.823  11.475   1.646  0.0768 -0.2846  0.1281
 7448W        W23257  10.761   1.833  12.444 -0.0001 -0.0916  0.0344
 7449W        W23258   6.944  17.629   3.433  0.2144 -0.1320  0.1482
 7450W        W23259   9.510  17.027  10.399 -0.1689 -0.2970  0.0798
 7451W        W23260   8.354  15.718  12.700  0.1177 -0.0559  0.2439
 7452W        W23261   8.075   4.387   1.023  0.1720  0.2124 -0.0507
 7453W        W23262  11.630  13.834  11.391  0.0688  0.1936 -0.4159
 7454W        W23263   4.040  17.532   4.054 -0.2802 -0.2151  0.0208
 7455W        W23264  14.021  14.084  13.604 -0.0307 -0.3990  0.3661
 7456W        W23265  12.024  11.214   5.869  0.1034  0.0753  0.0134
 7457W        W23266  10.997   1.809   0.609 -0.0030 -0.2729  0.1531
 7458W        W23267  18.854  12.396   4.512 -0.0519  0.0543  0.1061
 7459W        W23268   1.685   5.246  12.239 -0.0554 -0.0053  0.4412
 7460W        W23269  17.327  10.197   6.028 -0.2770 -0.1427 -0.0661
 7461W        W23270   5.506  12.126   1.105 -0.2370  0.1572 -0.5984
 7462W        W23271   0.985  14.617  15.234 -0.2993 -0.0965  0.1020
 7463W        W23272   9.189  17.328   0.361 -0.1239 -0.4882 -0.2472
 7464W        W23273  16.130   9.549   4.834  0.4171  0.3494  0.0920
 7465W        W23274  18.237   2.184  10.498 -0.2834 -0.1208 -0.1548
 7466W        W23275  15.615  18.906   1.175  0.1702 -0.1479  0.1573
 7467W        W23276  11.582  11.252  11.649  0.0618 -0.1078  0.0802
 7468W        W23277  12.825   4.156   1.430  0.1288  0.1830  0.0635
 7469W        W23278   4.472   5.259  14.387  0.0169  0.5201 -0.2161
 7470W        W23279   9.578   5.036  13.356 -0.3260  0.2006 -0.2576
 7471W        W23280  14.234  15.843  11.894 -0.1706 -0.1678  0.2306
 7472W        W23281  11.827   0.374  12.819 -0.2046  0.4864 -0.0698
 7473W        W23282   9.693   7.965  11.945  0.4253  0.1399  0.0003
 7474W        W23283   1.428   5.328   1.537 -0.1008 -0.1044 -0.0381
 7475W        W23284  13.099   1.971  12.771  0.1837  0.0017  0.0955
 7476W        W23285   1.792  12.089  11.775 -0.0699  0.1423 -0.0087
 7477W        W23286  15.866  17.210  10.097  0.1555  0.1086  0.1048
 7478W        W23287  16.054   1.390   3.300 -0.0317 -0.2910 -0.1366
 7479W        W23288   6.311  15.171   4.741  0.0508  0.3916  0.1404
 7480W        W23289  10.351   5.238   0.956  0.1082  0.1103 -0.0256
 7481W        W23290  17.678  11.145   3.624  0.2537 -0.1528  0.2761
 7482W        W23291  10.852  13.795   4.303  0.0680  0.0618 -0.2283
 7483W        W23292   0.197  18.848  12.627  0.2121  0.0919  0.2052
 7484W        W23293   7.268  12.197   4.334  0.0228 -0.0357 -0.1073
 7485W        W23294   3.734  16.909   1.889  0.0197 -0.1131  0.0882
 7486W        W23295  15.341   3.328  10.696 -0.0941 -0.0051  0.0679
 7487W        W23296   5.926   8.573  11.171  0.1922  0.1844 -0.1136
 7488W        W23297  17.917  16.944   3.523  0.0081 -0.1815  0.3402
 7489W        W23298   1.765  13.233  13.108 -0.0669  0.0241 -0.1440
 7490W        W23299   9.589   0.408   1.943  0.1079 -0.1446  0.3013
 7491W        W23300  12.805  17.318  14.669  0.2132 -0.0791  0.1371
 7492W        W23301  17.344  14.568  15.300 -0.1608  0.1223 -0.1946
 7493W        W23302   5.608   5.309  10.553 -0.1044  0.2403  0.0082
 7494W        W23303  15.117   3.503   1.810 -0.1137 -0.2275 -0.1952
 7495W        W23304  15.313   4.427   1.807  0.0137  0.0185  0.0554
 7496W        W23305  11.289  10.318  15.318  0.0087 -0.1253  0.0292
 7497W        W23306   0.730  15.960   3.788  0.2027 -0.2120 -0.0422
 7498W        W23307  17.451  11.079   4.526  0.0546 -0.1424  0.0238
 7499W        W23308  10.098  15.712   5.179  0.0458  0.1108 -0.1072
 7500W        W23309   8.178  15.984   1.945 -0.0992 -0.1565 -0.0151
 7501W        W23310  17.680   0.156   2.408  0.3129  0.1872 -0.0555
 7502W        W23311  13.596   9.245   2.342  0.2480  0.1095  0.1811
 7503W        W23312   3.553  18.358   2.544  0.2475 -0.0376  0.2501
 7504W        W23313   7.882   1.574  10.814 -0.2284  0.0575 -0.3440
 7505W        W23314   1.545  12.250  12.291 -0.0413  0.2087  0.1341
 7506W        W23315  17.208  15.574  10.674  0.1020 -0.0295 -0.0725
 7507W        W23316  13.295   8.896  14.620 -0.2898  0.0704 -0.1390
 7508W        W23317   8.015  13.698   5.099  0.2209  0.1658 -0.1045
 7509W        W23318   9.422  17.023   2.845 -0.2181  0.3588 -0.0154
 7510W        W23319   9.051   3.678  13.050 -0.1286  0.3723 -0.0391
 7511W        W23320   0.810  14.783  10.904 -0.0034 -0.0559 -0.0109
 7512W        W23321  13.075   2.577   3.392  0.0448  0.0065 -0.2891
 7513W        W23322   5.129  15.107  12.381  0.0163 -0.2923  0.0083
 7514W        W23323   6.414   4.237  14.827 -0.0338 -0.0431 -0.0961
 7515W        W23324   6.864  14.687   3.833 -0.1101 -0.0022 -0.0843
 7516W        W23325  12.491   4.764   9.713  0.1376 -0.3393  0.1816
 7517W        W23326   8.402   5.030   3.940  0.1699  0.2647  0.1133
 7518W        W23327  13.576   1.947   0.718  0.0305 -0.1824  0.1494
 7519W        W23328   7.104   4.706  14.295  0.1558  0.1576  0.2112
 7520W        W23329   5.191  10.063   3.361 -0.1678  0.2348  0.0396
 7521W        W23330   4.926  14.366   3.975  0.0787 -0.0912  0.3450
 7522W        W23331   3.821  18.632  13.537 -0.0417 -0.0848 -0.0108
 7523W        W23332   8.281   2.790  12.662 -0.3190 -0.0473 -0.0915
 7524W        W23333  16.729  18.826   0.772 -0.0986 -0.1351 -0.1122
 7525W        W23334   2.435   8.820   0.454  0.0232  0.0293 -0.0847
 7526W        W23335   4.564   4.071   2.250  0.1124 -0.0918  0.0347
 7527W        W23336   2.072   7.276   1.355 -0.0745  0.1998 -0.2868
 7528W        W23337   8.612   1.121   2.755  0.0480 -0.2403 -0.2794
 7529W        W23338  13.605  10.922   4.852 -0.0763 -0.0245  0.1696
 7530W        W23339  11.205  14.289   4.036  0.2572 -0.2592 -0.0807
 7531W        W23340  10.202  17.235  11.140  0.0925  0.3300 -0.0273
 7532W        W23341   6.056   7.342   0.416  0.0647  0.0070  0.3802
 7533W        W23342  17.846   7.126  12.377  0.3028 -0.0507  0.3875
 7534W        W23343  11.197  12.698   2.713 -0.1390 -0.0322  0.0829
 7535W        W23344  10.418  12.013  10.940 -0.1759 -0.1584  0.2147
 7536W        W23345   8.818   3.756  14.289  0.0960 -0.0458  0.3969
 7537W        W23346  14.198   5.947  12.268  0.2537  0.3257 -0.0812
 7538W        W23347  11.814   4.400  14.748  0.1278  0.0798 -0.2019
 7539W        W23348   4.794  11.858   4.385  0.2713  0.2054 -0.2034
 7540W        W23349   9.404   6.098   1.765 -0.0031  0.1649 -0.3984
 7541W        W23350  13.101   0.650   1.617 -0.1180 -0.2491  0.1884
 7542W        W23351  12.454   5.463  13.679  0.1611  0.0291 -0.2945
 7543W        W23352   8.559  18.637   1.724 -0.2783 -0.0363 -0.0387
 7544W        W23353   8.736  11.461  11.742  0.0611  0.0225  0.2621
 7545W        W23354   3.215   5.173  13.348 -0.3644 -0.1637  0.0523
 7546W        W23355   1.617  13.836   1.290 -0.2626  0.0794  0.3791
 7547W        W23356   1.524   5.007  14.967  0.0084 -0.1514 -0.1383
 7548W        W23357  14.321   4.928   0.230  0.1642  0.5400  0.1676
 7549W        W23358   4.226   2.559  13.498 -0.2497  0.0911 -0.0479
 7550W        W23359   6.852  14.278  13.279  0.0531  0.2014 -0.1419
 7551W        W23360  13.070   2.461  12.471  0.3949 -0.2448  0.0346
 7552W        W23361   3.914   6.112  10.584  0.1064 -0.0725 -0.1805
 7553W        W23362  13.156   0.035   2.499 -0.0902 -0.1412  0.2557
 7554W        W23363   2.065   9.158   0.199 -0.0640  0.2008 -0.3938
 7555W        W23364   7.831  13.243  12.212 -0.0432 -0.1737  0.0801
 7556W        W23365   8.675   3.943  12.736  0.0226  0.0472  0.0836
 7557W        W23366  15.237   6.922   5.495 -0.0889  0.0744  0.1496
 7558W        W23367  14.249  14.917   3.371  0.2277 -0.1107 -0.0514
 7559W        W23368  14.341   7.762   4.383 -0.1552  0.2708 -0.1695
 7560W        W23369  12.425  16.623  12.694  0.2806  0.1256  0.0023
 7561W        W23370   4.211   4.874   2.707 -0.1526  0.1387  0.2232
 7562W        W23371  15.047  16.038   1.631 -0.2149  0.4008 -0.0990
 7563W        W23372   1.020  17.289  12.855 -0.1105  0.0341 -0.1313
 7564W        W23373   4.395   8.743  14.145 -0.2242  0.0476 -0.0070
 7565W        W23374  18.099  15.553   3.908  0.2438  0.1668 -0.2811
 7566W        W23375   6.314  13.327   1.473  0.0326 -0.0638 -0.0923
 7567W        W23376   5.617  11.381   4.681  0.0807 -0.3642 -0.0664
 7568W        W23377   1.535  16.971  13.092  0.1694 -0.3898  0.2173
 7569W        W23378  12.977  13.818   4.713 -0.2461  0.1053 -0.3669
 7570W        W23379   2.347  15.944  13.468 -0.1214  0.0913  0.0391
 7571W        W23380   6.902  15.319   0.217  0.4505  0.2319  0.2567
 7572W        W23381  15.263   6.277   3.493  0.1134 -0.2576 -0.0882
 7573W        W23382  16.905   4.545   9.829 -0.2679  0.1830 -0.2859
 7574W        W23383  15.544  16.382   9.859  0.0816 -0.2695 -0.2009
 7575W        W23384   9.390  12.434  12.798  0.2743  0.1433  0.0429
 7576W        W23385   2.992  17.325   0.663 -0.0052 -0.0775  0.0752
 7577W        W23386  11.373  11.488   0.878 -0.0949 -0.0067  0.1459
 7578W        W23387   6.384   8.346   2.418  0.0543  0.0700  0.0684
 7579W        W23388  12.591   9.283   0.796  0.0348  0.2898  0.0131
 7580W        W23389   3.009   9.191   2.661 -0.3215  0.1487 -0.1980
 7581W        W23390  17.022  11.044   0.324  0.1659  0.3098 -0.0708
 7582W        W23391   6.043  10.754  13.222  0.0004  0.0653  0.2786
 7583W        W23392   1.767   5.418   2.584 -0.2025  0.1373 -0.2352
 7584W        W23393  13.213   1.807  14.338 -0.0606  0.3252  0.4138
 7585W        W23394   0.836  13.849  14.532  0.0508 -0.0316 -0.0325
 7586W        W23395  11.654  12.535   2.887 -0.0869 -0.0923  0.1486
 7587W        W23396   5.160   9.832   1.122  0.1437 -0.5438  0.2481
 7588W        W23397  10.174   7.225  13.271 -0.4090  0.1677  0.0272
 7589W        W23398  16.755  14.439  13.657  0.0679  0.1053  0.0510
 7590W        W23399  14.606  14.718  15.255  0.0397 -0.2599  0.1094
 7591W        W23400  12.263   1.365   1.846  0.1605  0.0945  0.0033
 7592W        W23401   8.572  13.189   5.807 -0.1341  0.2740  0.0573
 7593W        W23402   4.845   4.937  14.514  0.3886 -0.0151  0.0009
 7594W        W23403   4.924  11.018   1.633 -0.1541  0.0648  0.0780
 7595W        W23404  13.609   1.429   0.816 -0.0579 -0.3809 -0.1235
 7596W        W23405   1.233   0.340   0.727  0.2048  0.0672 -0.0981
 7597W        W23406   3.407   6.930  11.942 -0.0637  0.1925 -0.1758
 7598W        W23407  12.715   7.540   2.165 -0.3836  0.2034  0.0671
 7599W        W23408   0.709  15.451   4.516 -0.0693 -0.1874 -0.3034
 7600W        W23409  14.863  10.977  12.934 -0.1795  0.2902  0.3593
 7601W        W23410   5.300   7.038  10.917  0.0529  0.2299 -0.0921
 7602W        W23411  14.218   5.999  14.949 -0.0204  0.0322 -0.1312
 7603W        W23412   5.870   2.193   2.249  0.1795  0.1723  0.1074
 7604W        W23413   3.762   4.113  13.686  0.1113  0.0096  0.0424
 7605W        W23414   9.442   3.357   3.251  0.0152 -0.3123 -0.2796
 7606W        W23415  16.167  17.309   3.162 -0.0227 -0.0153 -0.0434
 7607W        W23416   5.311  18.239  13.793  0.1359 -0.0133  0.1611
 7608W        W23417  16.000   9.489   0.091  0.0907  0.3407  0.2642
 7609W        W23418   5.286   7.257  12.945  0.1519  0.1939 -0.0482
 7610W        W23419   2.017  18.090   4.478  0.0765  0.1591 -0.3344
 7611W        W23420  15.796  13.394   4.650 -0.1199  0.1703 -0.1096
 7612W        W23421   6.318  12.856  13.269  0.1765 -0.1384 -0.2109
 7613W        W23422  13.900  10.433   3.061 -0.2016  0.1130  0.0420
 7614W        W23423   0.958   6.707   3.609  0.1289 -0.2309 -0.5100
 7615W        W23424  11.384  10.313   3.554 -0.4103  0.2378  0.0039
 7616W        W23425   0.587   7.705  12.991 -0.2039 -0.1992 -0.3281
 7617W        W23426   9.703  15.410   5.048 -0.0131  0.0540  0.0177
 7618W        W23427   2.475  12.195  14.006 -0.0942 -0.0941  0.0186
 7619W        W23428   1.615  11.705  14.851 -0.2214  0.0153  0.0847
 7620W        W23429   2.617  18.411   2.222  0.3308  0.1439  0.0673
 7621W        W23430   4.981   5.910  11.897  0.0187  0.0431  0.0961
 7622W        W23431   0.741  10.884   9.696  0.0391 -0.2054 -0.3109
 7623W        W23432  18.226   4.875  13.173 -0.0739  0.1738 -0.0632
 7624W        W23433  13.105  14.426   1.439 -0.2518  0.0389  0.2585
 7625W        W23434  13.062   2.533   3.912  0.2208 -0.1600  0.1544
 7626W        W23435   7.596   7.047   4.080  0.1628 -0.2069  0.0560
 7627W        W23436  11.844  14.067  15.009 -0.0174 -0.0237  0.0933
 7628W        W23437   4.013   7.124   0.143 -0.0180  0.1477  0.1359
 7629W        W23438  12.205   2.410   3.226  0.0666  0.0794  0.1467
 7630W        W23439  18.291   3.395  13.595  0.2052  0.4631 -0.1600
 7631W        W23440   6.281  10.876   2.223 -0.1166 -0.2493  0.1126
 7632W        W23441   4.539  18.648   0.317  0.3453  0.1212 -0.1495
 7633W        W23442   6.812   2.495  13.959  0.4047  0.5170 -0.0024
 7634W        W23443   0.962   7.532   4.494 -0.3269 -0.0702 -0.2763
 7635W        W23444  10.518  14.828   5.284 -0.1225  0.3249  0.0804
 7636W        W23445   4.047  15.698  15.112  0.0447  0.2373 -0.1095
 7637W        W23446   7.782   3.707   0.648  0.3215 -0.0214 -0.2285
 7638W        W23447   0.124  12.391  13.670 -0.2128 -0.0149 -0.2402
 7639W        W23448  18.894   5.759   1.968  0.0243 -0.1823  0.0179
 7640W        W23449  14.209   1.393   4.525 -0.0786 -0.0919 -0.1214
 7641W        W23450  17.550   9.067   1.653 -0.1552  0.5947  0.1714
 7642W        W23451  13.886   6.472   4.346  0.0120 -0.1430  0.2248
 7643W        W23452  13.406   5.115  12.498 -0.1897 -0.0325 -0.2907
 7644W        W23453  13.149   3.682   0.567 -0.1006  0.1723  0.1897
 7645W        W23454   5.882   3.386  13.415  0.2469  0.3226 -0.3081
 7646W        W23455   9.431   6.581   2.022 -0.1505  0.0816 -0.1857
 7647W        W23456   0.974  13.849  10.677  0.0296 -0.3165 -0.1148
 7648W        W23457  13.997  13.059   3.439 -0.2743 -0.2179  0.1197
 7649W        W23458  14.654   6.708  14.507 -0.0331 -0.0725 -0.4273
 7650W        W23459  14.649  11.608  12.249  0.1295  0.0268  0.0820
 7651W        W23460  16.712  17.494   4.488 -0.0089  0.0176  0.1875
 7652W        W23461  17.921  14.937  10.877  0.3525 -0.1310  0.0544
 7653W        W23462   6.703  14.222  11.106 -0.2316  0.1637  0.1996
 7654W        W23463   2.940  12.765   2.807  0.0533  0.3292  0.2660
 7655W        W23464  11.211  10.233  14.836 -0.0283  0.3644 -0.3160
 7656W        W23465   4.154  16.921   0.828 -0.3091 -0.1591  0.0156
 7657W        W23466   0.466   9.474  13.590  0.0123  0.2889 -0.0158
 7658W        W23467  16.616   9.576   4.903  0.1073  0.0146 -0.0565
 7659W        W23468   0.018   8.886   1.651 -0.0426  0.1423  0.3225
 7660W        W23469  17.455   2.585   4.832 -0.2356  0.3765 -0.1539
 7661W        W23470   8.385  17.596  11.598 -0.0473  0.0538  0.1665
 7662W        W23471   5.420   0.715   4.030 -0.0634 -0.5906 -0.0795
 7663W        W23472   0.956  14.037   4.826 -0.0186 -0.1178  0.2175
 7664W        W23473  15.819   3.567  11.902  0.3716  0.2677  0.0388
 7665W        W23474  13.777  16.549   5.191  0.1482 -0.1535 -0.2682
 7666W        W23475  13.491  11.670   1.487  0.1401 -0.0922 -0.3498
 7667W        W23476   6.442   6.208   4.994  0.0004  0.3495 -0.1210
 7668W        W23477   5.258  11.512  12.027  0.0914  0.4267 -0.0531
 7669W        W23478  16.005   3.065   5.457  0.2173 -0.0098  0.2030
 7670W        W23479  11.575   7.476  10.702 -0.2244 -0.1594 -0.2988
 7671W        W23480  13.738   7.500   0.028 -0.0299  0.2153  0.0460
 7672W        W23481  14.647   1.224  10.740  0.2229  0.1335 -0.1837
 7673W        W23482  13.052   1.407   4.656  0.1127  0.0239 -0.1801
 7674W        W23483   0.387   8.667  11.541  0.3021 -0.4886  0.3071
 7675W        W23484  17.577   7.834   0.526  0.0418 -0.0596 -0.1150
 7676W        W23485   6.169   1.940  13.065  0.3056  0.2353 -0.1145
 7677W        W23486   1.301   4.456  14.181  0.4241 -0.0611  0.0911
 7678W        W23487  18.869  15.066   2.664 -0.3504  0.1020  0.4081
 7679W        W23488  17.256  17.795  12.751  0.2138 -0.2214  0.1971
 7680W        W23489  12.254  13.086   1.943 -0.0206 -0.3619 -0.1239
 7681W        W23490  11.460  18.453  11.967 -0.1529 -0.1160  0.0818
 7682W        W23491   1.453  17.036  12.020  0.1095 -0.2997 -0.1346
 7683W        W23492  17.948  11.844  12.269  0.1179 -0.0805  0.2072
 7684W        W23493   3.930   7.018  12.870 -0.0641  0.1322 -0.1998
 7685W        W23494  17.183   1.481  10.844  0.1089 -0.1434 -0.0022
 7686W        W23495  14.698  13.343   4.768 -0.0009  0.0555 -0.0904
 7687W        W23496   8.780   7.572   4.761 -0.1926  0.0355  0.0251
 7688W        W23497  18.814   9.554  13.730  0.2033  0.2625  0.1436
 7689W        W23498   9.047   4.093   5.140  0.0642 -0.1513 -0.1151
 7690W        W23499  10.227  18.754  14.761 -0.4804 -0.2398  0.3871
 7691W        W23500  16.313   0.655   0.896  0.1205  0.3547  0.0424
 7692W        W23501  18.357   1.577   3.103 -0.0018  0.1548 -0.1019
 7693W        W23502   9.544  13.081  11.033 -0.3199  0.4602  0.2089
 7694W        W23503  14.542  12.414   0.250 -0.3364  0.1930 -0.1025
 7695W        W23504  15.470  15.598  14.621  0.1319 -0.0101 -0.1452
 7696W        W23505   6.797   8.566  15.360 -0.1581  0.0579  0.2338
 7697W        W23506  15.341  10.411   1.835 -0.0501 -0.0865  0.1667
 7698W        W23507   7.920   5.832   0.209 -0.2174 -0.2331 -0.1029
 7699W        W23508   5.779  18.046   2.386  0.0750  0.4036  0.0866
 7700W        W23509   8.723  10.584  12.125 -0.0052  0.0267 -0.2517
 7701W        W23510  16.400   5.322   1.955  0.5616  0.1762 -0.0185
 7702W        W23511  13.536   5.411   3.049  0.1590  0.0892  0.1319
 7703W        W23512   4.252   8.086  14.887 -0.2757 -0.0305 -0.1919
 7704W        W23513   5.027   4.012   0.689  0.0974 -0.2331  0.2175
 7705W        W23514   5.415   0.703   4.567  0.1497  0.0738  0.2433
 7706W        W23515   0.162   0.150   4.031  0.0518 -0.1192  0.1106
 7707W        W23516  15.163  14.899  15.033  0.4866 -0.2848  0.4549
 7708W        W23517   5.880  14.369   3.558 -0.0306  0.1938 -0.1011
 7709W        W23518   4.866   1.721   0.587 -0.0362 -0.2965  0.0470
 7710W        W23519   6.777   5.145  14.991 -0.4263 -0.1271  0.1404
 7711W        W23520  15.181  13.238   4.662 -0.2397  0.0308  0.0734
 7712W        W23521  18.561   0.668   4.666 -0.2641  0.0695  0.0410
 7713W        W23522  17.979   8.213   1.983 -0.0223 -0.0241  0.0653
 7714W        W23523  12.693   0.832   2.932 -0.2206  0.1652  0.0226
 7715W        W23524  13.111  10.079   3.380  0.2619  0.0913  0.0828
 7716W        W23525   2.124  16.916  13.262 -0.2063 -0.0889 -0.0366
 7717W        W23526   9.416   6.633   0.735 -0.2435  0.2211  0.2722
 7718W        W23527  10.563  11.568  13.633 -0.2787  0.2107 -0.1833
 7719W        W23528   7.040   9.241  12.691 -0.0049  0.0670 -0.1909
 7720W        W23529  13.962   1.396   4.953 -0.2271 -0.0380 -0.0913
 7721W        W23530  13.002   7.570   0.584 -0.0683 -0.0413  0.1219
 7722W        W23531  11.703   1.554  11.618 -0.3666  0.0480 -0.2303
 7723W        W23532  12.626   6.121   3.076  0.3319  0.1878  0.0351
 7724W        W23533  16.080   7.768  11.882  0.2572 -0.1410 -0.2388
 7725W        W23534   7.817   9.944  12.743  0.0797 -0.0915  0.3507
 7726W        W23535   6.030   9.593  13.495  0.1435 -0.0707  0.4351
 7727W        W23536   1.288   5.581   5.376 -0.2118  0.0474  0.4488
 7728W        W23537  12.012  11.657   2.771  0.1194 -0.0291 -0.0818
 7729W        W23538  14.020   6.317  11.954  0.2624  0.0893  0.0912
 7730W        W23539  10.485  17.029  13.433 -0.0341  0.4576 -0.0598
 7731W        W23540   7.504   2.342   1.133  0.1446  0.2126 -0.0786
 7732W        W23541   4.161  13.884  13.097 -0.1185 -0.2394 -0.3985
 7733W        W23542   9.709  13.568   2.018 -0.0734  0.1423 -0.1412
 7734W        W23543  17.834  18.589  11.293 -0.0642  0.0985 -0.0913
 7735W        W23544  16.083   8.732   5.121  0.0203 -0.0763  0.1671
 7736W        W23545   9.814  10.976  13.707  0.2433  0.1008 -0.4982
 7737W        W23546  15.949   0.726  10.081  0.0926  0.3755 -0.1289
 7738W        W23547  14.323   5.332  11.597 -0.1803 -0.1949  0.2261
 7739W        W23548   2.746  17.472  14.470  0.0993 -0.1600  0.0995
 7740W        W23549  17.230   1.085   0.976  0.0631 -0.1591  0.1286
 7741W        W23550  12.552   2.404  11.649 -0.4025  0.0540 -0.2527
 7742W        W23551   1.408  13.127   2.249 -0.1947 -0.0562 -0.0365
 7743W        W23552   4.044   7.319   1.724  0.0866  0.1276  0.1472
 7744W        W23553   8.533  10.766  11.736 -0.1462 -0.1361 -0.0407
 7745W        W23554   8.239  11.758  13.248 -0.0850 -0.0679  0.2538
 7746W        W23555   1.295   3.777  10.677  0.2118 -0.0188 -0.2909
 7747W        W23556  16.196  16.785  12.548 -0.2721  0.0385  0.0365
 7748W        W23557   2.362  13.466   3.040  0.4668  0.0128 -0.0865
 7749W        W23558   0.622  18.109   0.882  0.1173  0.0438 -0.0660
 7750W        W23559   4.756  16.809   3.384 -0.0519  0.2596 -0.0240
 7751W        W23560   2.499  14.870   2.826  0.2676 -0.0780  0.2160
 7752W        W23561   6.850   6.447   5.145  0.1169 -0.0934  0.0726
 7753W        W23562   3.482   3.103   3.088  0.3574  0.1475  0.0218
 7754W        W23563  16.482   8.857  12.790  0.0862 -0.1135 -0.0428
 7755W        W23564  15.268  12.571   0.581 -0.1529  0.3359 -0.3057
 7756W        W23565  14.497  11.206   1.780  0.1342 -0.0253  0.0171
 7757W        W23566  11.661   7.502   2.131 -0.0386 -0.2846  0.1136
 7758W        W23567   5.380   3.250  11.236 -0.0132 -0.2070  0.0390
 7759W        W23568   2.957   2.462   3.827  0.0362  0.3398  0.2100
 7760W        W23569  11.789   7.480   4.601  0.0121 -0.0085 -0.0340
 7761W        W23570  10.753   5.517   5.138  0.1571  0.0185  0.3047
 7762W        W23571   0.410   0.478  12.437 -0.0094 -0.0419  0.3230
 7763W        W23572   0.509   6.580   1.160  0.2775 -0.0378 -0.0394
 7764W        W23573  12.881  15.794   5.525 -0.3863 -0.1817  0.1793
 7765W        W23574  18.876  10.488   3.589  0.0758  0.0421  0.0043
 7766W        W23575  11.723   6.385   0.395 -0.0877  0.1030  0.3796
 7767W        W23576   5.323   1.682   4.851 -0.0156 -0.0605  0.0080
 7768W        W23577   6.337  16.517   0.406  0.2201  0.1220 -0.0894
 7769W        W23578  13.521   4.728   0.702  0.0471 -0.2968 -0.0454
 7770W        W23579  17.741   2.103   4.859 -0.1191 -0.1208 -0.1501
 7771W        W23580  11.466  13.431   1.950  0.0837  0.2928 -0.1531
 7772W        W23581  13.904   5.846   3.808 -0.2328 -0.0173 -0.4914
 7773W        W23582  17.013  17.951   3.047  0.0039 -0.1002  0.0496
 7774W        W23583  16.086  14.461   0.523 -0.0745 -0.0090 -0.1231
 7775W        W23584   9.266   8.203  13.277  0.0687 -0.2213 -0.2448
 7776W        W23585  18.504  11.754   3.163  0.0567  0.2912  0.1749
 7777W        W23586   9.933  13.049   4.248 -0.0114  0.3404 -0.4208
 7778W        W23587  10.640  18.351   2.034  0.0610  0.0545  0.2030
 7779W        W23588  13.301  16.647  14.944  0.1586  0.0970 -0.2629
 7780W        W23589  17.262   5.502  12.785  0.1181 -0.1735  0.2247
 7781W        W23590  13.930   4.625  13.964  0.0660 -0.4409 -0.1965
 7782W        W23591   6.903  11.127   0.342 -0.2370  0.0657  0.2479
 7783W        W23592  14.196  11.550  12.779 -0.2822  0.1013  0.0803
 7784W        W23593   5.952  17.570   1.055  0.0629  0.1620 -0.1019
 7785W        W23594  16.557   3.057   3.813 -0.0174 -0.4203 -0.0958
 7786W        W23595   3.696  16.452   0.119 -0.0367 -0.3236 -0.0393
 7787W        W23596  12.699  18.226   4.699 -0.1628  0.0433 -0.0251
 7788W        W23597   1.009   1.971  13.486 -0.1642 -0.0294 -0.0553
 7789W        W23598   0.954   4.669   1.286 -0.1784 -0.1258 -0.0934
 7790W        W23599   8.847   6.181   4.423  0.2603 -0.1112 -0.0478
 7791W        W23600   5.766   5.455  12.561 -0.1937  0.0826 -0.0590
 7792W        W23601   2.501   9.321   2.782 -0.4705 -0.1368  0.0372
 7793W        W23602  10.933  11.354   5.057 -0.2109 -0.1532 -0.1383
 7794W        W23603   4.202   9.523   0.921 -0.0483  0.0051  0.0438
 7795W        W23604  17.971   6.160  11.085 -0.1350  0.2871 -0.2287
 7796W        W23605  13.464  13.236  12.378  0.2981 -0.1287  0.1218
 7797W        W23606   2.861   4.662   5.030 -0.3087  0.0083  0.3471
 7798W        W23607   9.088  17.672   0.836 -0.1004  0.4830 -0.0868
 7799W        W23608   3.148  17.282  14.687  0.4849 -0.0183  0.2188
 7800W        W23609  10.125   0.675  14.256 -0.1279 -0.4297  0.0542
 7801W        W23610   1.007   2.039  11.735 -0.0107  0.0086 -0.3414
 7802W        W23611  13.169   6.452   0.727  0.2720 -0.3300  0.0507
 7803W        W23612   3.497  17.862  15.358  0.1071 -0.0286  0.0943
 7804W        W23613   6.829  11.635   1.774  0.2017  0.2037  0.0198
 7805W        W23614   8.910   6.503   0.093  0.1350  0.0170 -0.1614
 7806W        W23615   0.139  17.428   3.232 -0.2561  0.0229 -0.2058
 7807W        W23616  14.303   3.286   2.239  0.0723  0.0382 -0.0043
 7808W        W23617  17.587   9.726   0.856  0.0743 -0.1331  0.1781
 7809W        W23618  15.472   5.327  13.534  0.2877  0.3441 -0.0950
 7810W        W23619  15.770  16.098  13.175 -0.1794  0.0688 -0.3095
 7811W        W23620   1.913  18.756  11.632  0.1544 -0.3342  0.1494
 7812W        W23621  14.647  18.747   0.790  0.1892  0.1505 -0.2333
 7813W        W23622  17.359  13.032   2.171  0.1441  0.0816  0.1758
 7814W        W23623   1.801  13.375   0.868 -0.0529 -0.0095  0.0132
 7815W        W23624  17.264   4.725   1.884 -0.1529  0.0889  0.0180
 7816W        W23625   3.732  17.089   0.661 -0.0474  0.1062  0.2316
 7817W        W23626  11.380   7.265   4.441  0.0170  0.2217 -0.0001
 7818W        W23627  12.277   2.127   1.875 -0.2002  0.1605 -0.1674
 7819W        W23628   0.476   0.698  11.322 -0.2700  0.3089 -0.1654
 7820W        W23629   2.349  15.589  12.700  0.1149  0.2176  0.0675
 7821W        W23630  16.037  16.007  13.735  0.3003  0.1858 -0.2062
 7822W        W23631   6.190   2.231  12.594  0.0828  0.3365  0.1231
 7823W        W23632  12.322   4.345  11.707 -0.2867 -0.1519 -0.1999
 7824W        W23633   7.168  12.493  12.559 -0.1241 -0.0115 -0.1520
 7825W        W23634  12.668   5.967   0.358 -0.0922 -0.2669  0.2917
 7826W        W23635   5.948   3.676  10.605 -0.3591  0.0295  0.0815
 7827W        W23636  13.115  11.725   0.864 -0.1038  0.1073  0.3029
 7828W        W23637   5.246   8.171   3.149 -0.2004  0.0999  0.0842
 7829W        W23638  13.149  16.922   1.214  0.1602  0.0463  0.2424
 7830W        W23639   8.570  15.853  15.333  0.0966 -0.1339  0.2062
 7831W        W23640  14.092  17.580  13.766  0.1976 -0.0319 -0.1058
 7832W        W23641   4.996  16.775  11.833 -0.1207  0.0578  0.0672
 7833W        W23642   7.404   9.772  12.589  0.1493  0.2398 -0.0410
 7834W        W23643   1.636   8.823   0.010  0.0914  0.2060  0.0336
 7835W        W23644   7.313   6.523  13.863 -0.5128 -0.2543  0.0251
 7836W        W23645   5.753   4.931   3.217  0.1051 -0.1705  0.2039
 7837W        W23646  17.590   1.639  12.930  0.1896 -0.2735 -0.1925
 7838W        W23647  14.536  15.838   3.142 -0.2745 -0.1413  0.3997
 7839W        W23648   1.486  12.505   1.265  0.1992  0.2371  0.1529
 7840W        W23649   6.632   5.555   0.610  0.1783  0.0905 -0.1963
 7841W        W23650   9.588   8.666  11.386 -0.0931 -0.1709  0.1535
 7842W        W23651  13.441  16.886  12.266  0.2067  0.0552 -0.2515
 7843W        W23652  12.808   4.400  10.924  0.0087  0.0114  0.0718
 7844W        W23653  18.390  17.628  14.764 -0.1025  0.1484  0.0046
 7845W        W23654   5.738   3.010  12.461  0.1061 -0.2034 -0.1909
 7846W        W23655   9.250  12.689  10.852  0.2956 -0.0642 -0.2543
 7847W        W23656  15.793  15.134   3.380  0.0216 -0.2676  0.0117
 7848W        W23657  13.745   7.983   4.162 -0.0040  0.1231 -0.0928
 7849W        W23658   6.004  16.086   1.444 -0.3085  0.1122  0.1222
 7850W        W23659  15.856   7.231  11.326  0.1204  0.0709 -0.0746
 7851W        W23660  14.613  10.014   4.719  0.0308 -0.1843  0.3311
 7852W        W23661  13.857   4.311  15.075 -0.0264  0.1045 -0.0006
 7853W        W23662  10.342  10.167   2.589  0.0761 -0.0823 -0.1727
 7854W        W23663  16.179  11.003   1.358  0.0011 -0.0103  0.1459
 7855W        W23664  13.943  15.635   5.722  0.0715  0.2312 -0.0993
 7856W        W23665  13.527   8.706  13.936  0.1856 -0.3265  0.0912
 7857W        W23666   0.395  16.009  13.842  0.4505 -0.0157  0.0716
 7858W        W23667   7.888  14.616   4.683 -0.3294  0.0780  0.0045
 7859W        W23668  13.178   6.804   1.171  0.0210 -0.2340 -0.0860
 7860W        W23669   6.628  16.815  14.888  0.1444 -0.3424 -0.2156
 7861W        W23670   9.946   2.775  12.897  0.1493  0.4105  0.0655
 7862W        W23671  17.071   5.631  13.984  0.1043 -0.2824 -0.2183
 7863W        W23672  17.989  16.682  10.792 -0.2018  0.2096 -0.0050
 7864W        W23673  13.873   3.921  12.012  0.1786  0.0692  0.0045
 7865W        W23674   1.164   1.295  14.689 -0.1752 -0.1322 -0.1665
 7866W        W23675   9.329  15.258  10.813 -0.2789 -0.1383 -0.1839
 7867W        W23676  16.304  10.335  15.425  0.1052 -0.3625 -0.1462
 7868W        W23677   6.010   3.208   1.174 -0.0273  0.1279 -0.0969
 7869W        W23678   0.100  16.232   3.831  0.1253  0.0258  0.0841
 7870W        W23679   3.413   1.175   3.336 -0.0532 -0.3122  0.3604
 7871W        W23680  13.815   2.184   0.324  0.4039 -0.3223  0.0918
 7872W        W23681   7.042  15.998   5.502 -0.1636  0.2540  0.0209
 7873W        W23682   3.699   1.487  14.670  0.0035  0.0813  0.3183
 7874W        W23683   0.233  16.682   5.831  0.2156  0.4045 -0.1001
 7875W        W23684   5.684  13.703   2.530  0.0738 -0.1623  0.0575
 7876W        W23685  17.038   0.670   0.485  0.1121 -0.2373  0.0209
 7877W        W23686   9.544  17.410   4.233  0.0320 -0.1698 -0.1003
 7878W        W23687   8.060  15.107   1.596 -0.2457 -0.1910 -0.0847
 7879W        W23688  11.180  12.647  13.880 -0.2081  0.1158 -0.1065
 7880W        W23689   9.147  15.867  14.108 -0.2731 -0.0329  0.2892
 7881W        W23690  13.823  18.905  10.977  0.2025  0.2258  0.1116
 7882W        W23691   6.519   2.569  10.500  0.0194  0.0224 -0.0862
 7883W        W23692   5.256  13.099   5.225 -0.0324  0.1099 -0.2064
 7884W        W23693  14.230  10.934   5.057 -0.0044  0.1326  0.2611
 7885W        W23694   0.586   5.338  12.220  0.0730  0.1549 -0.2272
 7886W        W23695  16.948  14.185   1.246 -0.1313  0.1497  0.1737
 7887W        W23696   2.922  13.628  14.622 -0.0083  0.1170  0.0456
 7888W        W23697   7.509  11.748  12.469 -0.1891 -0.0813 -0.1631
 7889W        W23698  17.720  13.307  10.786  0.4065  0.0787 -0.3317
 7890W        W23699  10.185   0.298  12.094  0.2568  0.1577  0.3570
 7891W        W23700  17.468   4.156  12.147  0.2152 -0.0888 -0.2186
 7892W        W23701   7.763   8.308  10.835 -0.1688 -0.2203  0.0434
 7893W        W23702   1.793   9.763   1.987 -0.0707  0.2377  0.2658
 7894W        W23703   1.263   4.485   1.736  0.0101  0.0654 -0.1241
 7895W        W23704  15.157   0.506   1.395 -0.0801  0.1211 -0.0673
 7896W        W23705   5.135   9.835  13.596 -0.2975  0.0470  0.0148
 7897W        W23706   1.094  14.526  12.475 -0.1659 -0.2786 -0.0817
 7898W        W23707  15.462   6.892  11.490 -0.0486  0.0330  0.1024
 7899W        W23708   5.481   7.584  11.099 -0.0907  0.2053 -0.0061
 7900W        W23709   7.309   5.428  14.140 -0.1704 -0.0886  0.0525
 7901W        W23710   0.739  14.148  12.267 -0.0698 -0.2149  0.1190
 7902W        W23711   8.081  13.809   4.216  0.1881  0.2118  0.2441
 7903W        W23712   3.115   3.631   0.881 -0.0464 -0.0424  0.0583
 7904W        W23713   0.655   3.091   3.560 -0.2627  0.1698  0.1149
 7905W        W23714  12.193  17.775   0.634 -0.0416 -0.0978  0.1801
 7906W        W23715  18.451   7.587  14.896 -0.0892 -0.2502  0.3850
 7907W        W23716   6.306   4.085  11.489  0.1702  0.2652 -0.0226
 7908W        W23717   9.593  10.386  13.035  0.0071 -0.0528  0.1158
 7909W        W23718  15.985   3.251  11.199  0.0402  0.2314  0.0729
 7910W        W23719   6.406   8.066  12.895 -0.1183  0.0829  0.0991
 7911W        W23720  17.524  10.084   0.509 -0.1855  0.2785 -0.0986
 7912W        W23721  13.216  13.173   1.088  0.2954  0.1619 -0.0072
 7913W        W23722   4.402   6.321   2.567 -0.2926 -0.2404  0.0749
 7914W        W23723   7.314   1.182  13.336 -0.0800 -0.2757  0.0047
 7915W        W23724  11.196   2.364   4.500 -0.1977  0.4083  0.0771
 7916W        W23725  11.114  12.790  12.859 -0.2470  0.0478  0.1448
 7917W        W23726  18.053   0.705   0.293 -0.1389 -0.0294 -0.1748
 7918W        W23727   8.751   0.200  13.351 -0.2137 -0.1276 -0.1843
 7919W        W23728  16.021   2.423  12.316 -0.6224 -0.0622  0.0895
 7920W        W23729  16.753   9.652  10.251  0.0423 -0.2849 -0.0029
 7921W        W23730   5.870  12.441  11.133  0.0171  0.1267 -0.2509
 7922W        W23731  16.123  10.768  12.677  0.2035  0.0657  0.1238
 7923W        W23732   0.416  10.672   3.454 -0.3049 -0.1688 -0.2100
 7924W        W23733   5.449   7.716  11.568 -0.1184  0.3271  0.0088
 7925W        W23734   2.475   5.739   1.690 -0.5245 -0.1585 -0.1596
 7926W        W23735  15.418  12.754  15.413  0.0803 -0.0407  0.2064
 7927W        W23736   1.767  10.476   4.928 -0.0812  0.0876 -0.1575
 7928W        W23737   6.723  15.186  12.022  0.1170 -0.1304 -0.1034
 7929W        W23738   9.921  18.232   9.923  0.0071 -0.1102 -0.1460
 7930W        W23739  15.368  10.448  10.786  0.2261  0.1001 -0.0388
 7931W        W23740   8.007   7.842   4.770  0.2276 -0.0309 -0.4778
 7932W        W23741   5.460  16.219  14.805 -0.2870  0.1659  0.0656
 7933W        W23742   2.438   0.176   0.560  0.1637  0.1324 -0.0366
 7934W        W23743   2.994  17.425   3.113  0.2639 -0.3053  0.0477
 7935W        W23744   6.473   9.091  11.889  0.1395 -0.2933  0.0387
 7936W        W23745  17.615   2.640   4.320  0.0278 -0.2724  0.0815
 7937W        W23746   4.035  18.918   2.781 -0.0989 -0.1242 -0.1030
 7938W        W23747  12.556   3.013  11.364  0.2866 -0.3465 -0.1433
 7939W        W23748   0.349  14.324   3.903  0.3044  0.1138  0.2029
 7940W        W23749  11.723  14.445   4.047  0.2214  0.0843  0.2907
 7941W        W23750   7.866   4.343  13.637 -0.1042 -0.0089  0.1483
 7942W        W23751   3.819   2.526   2.556 -0.2340 -0.0149  0.1239
 7943W        W23752   4.733   8.907  11.215  0.0962  0.2342 -0.0310
 7944W        W23753  15.080  10.823   5.165  0.1466 -0.0607  0.0269
 7945W        W23754  17.843  12.154   3.660 -0.0033  0.4461 -0.0678
 7946W        W23755  14.747   9.289   1.929 -0.0431 -0.3800 -0.1749
 7947W        W23756   8.978   6.576   3.820  0.1547 -0.1295  0.0012
 7948W        W23757   2.427   9.417   0.398  0.0402  0.0604 -0.1525
 7949W        W23758  11.219   0.454   5.611 -0.1244  0.0165  0.1077
 7950W        W23759   9.094   1.023  13.728  0.1143 -0.0125  0.1019
 7951W        W23760  10.033   6.578   3.601 -0.2928 -0.1651  0.1589
 7952W        W23761  14.345  11.702   5.830  0.2061  0.0020  0.0782
 7953W        W23762  16.847  16.545  13.618 -0.0953  0.3029  0.5597
 7954W        W23763   1.891   4.410  12.571  0.0186 -0.0578 -0.0673
 7955W        W23764   1.324  10.729   4.166 -0.0524  0.0206  0.3797
 7956W        W23765  16.004  15.198   0.052 -0.0530  0.2275  0.2853
 7957W        W23766   0.056   4.712  13.354  0.0096  0.0466 -0.0820
 7958W        W23767  18.017   2.564  10.830 -0.0409 -0.0758 -0.4264
 7959W        W23768   0.843  11.424  15.188  0.0735 -0.2161 -0.3231
 7960W        W23769  14.544   9.736   3.700 -0.1787  0.0712 -0.3822
 7961W        W23770  18.546   1.091   1.539 -0.1445 -0.0739  0.0575
 7962W        W23771   0.089   7.959  13.673  0.0492  0.1344 -0.2200
 7963W        W23772   3.069   4.464   0.324 -0.1163  0.1060 -0.1495
 7964W        W23773  18.383   6.430  14.080 -0.0655 -0.1951  0.0659
 7965W        W23774   4.725  11.315  14.084 -0.0968  0.0092 -0.0013
 7966W        W23775   8.060  18.779  13.621 -0.2748  0.2360  0.0367
 7967W        W23776   5.890  15.540   1.123  0.0064  0.3221 -0.1210
 7968W        W23777   6.205  11.761   0.512 -0.0407  0.1076  0.1301
 7969W        W23778   1.045   4.635  15.185  0.0161 -0.2793  0.2756
 7970W        W23779   7.873  13.515  11.768  0.0965 -0.0838  0.0926
 7971W        W23780   1.635  12.044   0.440  0.4150 -0.2186  0.4607
 7972W        W23781   6.941  17.956   2.968  0.0007 -0.5783 -0.1767
 7973W        W23782   3.436   0.565  15.262  0.2253 -0.0344 -0.0020
 7974W        W23783  13.162   0.463   2.103 -0.0686 -0.2601  0.1236
 7975W        W23784  15.111  12.670  14.854 -0.0361 -0.0887 -0.4104
 7976W        W23785   8.120  17.279   4.087 -0.0180  0.1217 -0.0950
 7977W        W23786   3.210  13.730  15.433 -0.0580  0.1161  0.1903
 7978W        W23787  16.456   0.402   3.857  0.1855  0.0054 -0.2901
 7979W        W23788  10.484  11.805  14.383  0.0784  0.0734 -0.2333
 7980W        W23789  11.957  11.972  14.746 -0.1952  0.1716 -0.0728
 7981W        W23790   8.877   5.369   4.927 -0.1970 -0.0190  0.2829
 7982W        W23791  17.791  11.938   4.216  0.2173 -0.1173  0.1357
 7983W        W23792   5.393   2.011  13.962  0.1045 -0.0664  0.0403
 7984W        W23793   8.637  10.401  10.791  0.0777 -0.2317 -0.1662
 7985W        W23794   5.856  12.401   3.411  0.0379  0.0921  0.0582
 7986W        W23795  11.115   9.076  12.929  0.0921 -0.0748 -0.1359
 7987W        W23796   6.564  13.449   3.875 -0.2601 -0.0240 -0.0939
 7988W        W23797   4.954  16.033  14.986  0.2804  0.0452 -0.1552
 7989W        W23798   5.360   5.270  13.120  0.0380 -0.1252  0.2465
 7990W        W23799  17.482  12.786   0.672 -0.1493 -0.0217  0.0139
 7991W        W23800  14.998   7.351  14.939  0.0558  0.3700 -0.1379
 7992W        W23801   5.420  16.364  10.029 -0.0885  0.1005 -0.0087
 7993W        W23802   1.425  15.303  15.387  0.0376 -0.1675 -0.0340
 7994W        W23803  17.499  17.529   5.783 -0.0738  0.0872  0.1812
 7995W        W23804  15.216   1.189   3.592  0.2327 -0.1091  0.0868
 7996W        W23805  10.364  18.799  10.876 -0.1590 -0.2252 -0.0908
 7997W        W23806  17.422  14.444   2.681 -0.2245  0.4875 -0.0657
 7998W        W23807   0.838  10.363  14.110 -0.0426  0.0695 -0.1292
 7999W        W23808  17.374   0.821  13.110  0.3845  0.2289  0.4727
 8000W        W23809   9.146   5.555   0.039  0.1259  0.2725  0.2851
 8001W        W23810  10.360  10.615  11.869  0.0148 -0.0846 -0.0206
 8002W        W23811  18.716   6.857   4.713  0.0080 -0.1089  0.0607
 8003W        W23812   6.929  14.984   9.718 -0.1664 -0.0665  0.0140
 8004W        W23813   5.316   9.952  14.703 -0.1056  0.3449  0.0630
 8005W        W23814   9.916  14.743  11.998 -0.1490  0.2247  0.0215
 8006W        W23815  13.623  18.753   3.906 -0.1120  0.0520 -0.1430
 8007W        W23816  16.765   6.500   1.624  0.1264  0.2105  0.2749
 8008W        W23817  10.537   0.677   1.586 -0.1126 -0.1355 -0.2206
 8009W        W23818   0.991   8.703   3.089  0.0786  0.0113  0.0060
 8010W        W23819   0.098   8.851   4.927  0.0548 -0.0279  0.0026
 8011W        W23820   9.636  16.994  14.571 -0.2138  0.2222  0.1169
 8012W        W23821   4.438   7.671  14.024  0.1951  0.0568  0.1201
 8013W        W23822   3.303   9.675   0.380 -0.0665 -0.0817 -0.1484
 8014W        W23823  13.708   1.814   3.539 -0.2477 -0.0858  0.2140
 8015W        W23824  12.838   5.453   4.261 -0.0941  0.0830  0.2239
 8016W        W23825  16.502   2.254   3.150  0.1861 -0.2334  0.1838
 8017W        W23826  17.354  11.817   0.935  0.2359 -0.3438 -0.1157
 8018W        W23827  12.709   8.524  13.836  0.0817  0.2044 -0.0582
 8019W        W23828  12.258   1.824  14.408 -0.0381 -0.2416 -0.3465
 8020W        W23829  17.758   6.728  13.939 -0.1588  0.1077  0.0782
 8021W        W23830   1.626   8.718  14.282  0.2619 -0.1400  0.1217
 8022W        W23831  15.111   8.572  10.036  0.0219 -0.0135 -0.1318
 8023W        W23832  10.514   6.842   2.000 -0.3355 -0.0228  0.1079
 8024W        W23833   4.007  17.230  10.704 -0.1577 -0.1556  0.2528
 8025W        W23834   4.201  15.430  12.642  0.0283  0.0281  0.0686
 8026W        W23835  12.595   4.912   2.929  0.3014  0.1626  0.1073
 8027W        W23836  17.137   5.147   0.705 -0.1070  0.1563  0.0089
 8028W        W23837   5.476   0.825   5.593  0.0994  0.0764  0.5608
 8029W        W23838   6.847  10.409   2.698 -0.0058  0.0074 -0.2812
 8030W        W23839   8.283   7.778   0.093  0.0390  0.1912 -0.0378
 8031W        W23840   3.732   3.954  10.478 -0.0239 -0.0694 -0.1400
 8032W        W23841  10.290   2.680   1.840 -0.1465 -0.2204  0.2648
 8033W        W23842  14.258  16.947   1.747  0.0372  0.2058  0.1005
 8034W        W23843   4.660  15.590  12.898 -0.0552 -0.0539 -0.0698
 8035W        W23844  14.061  11.932   0.681  0.4328 -0.0084  0.0225
 8036W        W23845  18.611   3.200  12.042  0.0269 -0.2766  0.2064
 8037W        W23846   9.184   6.581  13.969 -0.0646  0.0637  0.0574
 8038W        W23847  12.961  12.915   2.537  0.0072 -0.1051 -0.1805
 8039W        W23848   1.901  11.833  12.237  0.3093 -0.0424 -0.1403
 8040W        W23849  13.555  10.225   2.682 -0.3231  0.0297  0.3494
 8041W        W23850   0.409  14.069   2.944  0.1803 -0.1309  0.0663
 8042W        W23851   2.055   4.193   4.602 -0.1478  0.0525  0.1695
 8043W        W23852   6.424  14.200   2.583 -0.0346 -0.0243  0.3340
 8044W        W23853   4.222   1.847   3.735  0.2213  0.1557  0.2481
 8045W        W23854  15.802  11.513  11.002  0.0420 -0.0004  0.0649
 8046W        W23855   9.253   6.148   5.147  0.0912 -0.2863 -0.1590
 8047W        W23856  13.288   5.072  15.354  0.2861 -0.1066 -0.0083
 8048W        W23857   4.676   4.268   9.803 -0.1174  0.3126 -0.0646
 8049W        W23858   3.960   2.047   2.688 -0.0611 -0.0460 -0.2218
 8050W        W23859   3.281   0.524  13.772 -0.2103 -0.1852  0.0282
 8051W        W23860  18.253  15.388   4.900 -0.1410  0.0753 -0.0094
 8052W        W23861  10.728   1.031   1.023 -0.1999 -0.0641  0.1043
 8053W        W23862  13.979  14.498  13.033  0.3576  0.1866  0.3534
 8054W        W23863   5.617  13.652  12.998  0.3027  0.4330  0.2100
 8055W        W23864   0.499  18.076  10.531 -0.2717 -0.1212 -0.3238
 8056W        W23865  15.608   4.804  13.690  0.0577 -0.1328  0.2427
 8057W        W23866   9.920  16.943   0.529 -0.1282 -0.4443 -0.2209
 8058W        W23867  18.866  18.206  13.552 -0.3322 -0.3024  0.4189
 8059W        W23868  13.574   5.454   0.065 -0.1036  0.4264 -0.1887
 8060W        W23869   9.070   6.900  15.106  0.1462  0.2957 -0.0639
 8061W        W23870   0.978   2.656   0.933 -0.0865 -0.1223  0.0695
 8062W        W23871   3.895  12.970   9.645  0.0077  0.2763  0.1373
 8063W        W23872   0.582  14.868   2.604 -0.0793  0.3810 -0.2296
 8064W        W23873   0.071   7.546   5.694  0.4983 -0.1689  0.2169
 8065W        W23874   5.296   2.634  11.069  0.2794  0.0262  0.0173
 8066W        W23875   5.970  10.776  12.059  0.1293 -0.1980 -0.0985
 8067W        W23876  10.547  14.491  13.911  0.2922  0.1433 -0.1409
 8068W        W23877   2.924  17.188   4.087  0.0289  0.0339  0.2361
 8069W        W23878  18.105   3.419  15.372 -0.2635 -0.1863  0.1794
 8070W        W23879  12.406  10.627   1.298  0.2233  0.0645  0.0473
 8071W        W23880   9.622   3.849  11.564  0.2345  0.0235  0.2528
 8072W        W23881   0.607  17.972   3.643 -0.0169  0.2421 -0.1739
 8073W        W23882  11.694  11.261  12.195 -0.0493  0.0373  0.1119
 8074W        W23883  14.704  12.289  13.233 -0.1294  0.0160 -0.0033
 8075W        W23884  18.864   8.766  14.272 -0.0834  0.2538  0.0064
 8076W        W23885  15.220  16.118  10.644  0.0075 -0.0508  0.3877
 8077W        W23886   9.201   3.666   2.770 -0.3732  0.2439  0.1529
 8078W        W23887   3.798   0.311  12.084  0.1150  0.2221  0.2148
 8079W        W23888   1.681  10.761   3.765  0.1142 -0.2224 -0.2085
 8080W        W23889   4.441  17.291   0.704  0.0672  0.1861  0.0421
 8081W        W23890  12.620   0.920  14.031  0.3651  0.1814 -0.1900
 8082W        W23891  18.687   1.755   0.173  0.2409  0.1401 -0.2375
 8083W        W23892  13.711  18.501  14.366 -0.1486  0.1312  0.0575
 8084W        W23893  14.323   1.134  14.970  0.1726 -0.1668 -0.0600
 8085W        W23894  16.521  18.833  14.378  0.0268  0.3977 -0.3894
 8086W        W23895   9.263  14.849   3.359 -0.1507  0.0031 -0.0582
 8087W        W23896   7.594   9.762  14.595 -0.0414  0.0382  0.1738
 8088W        W23897  17.504   6.759   5.928 -0.3699 -0.0552 -0.1855
 8089W        W23898   0.729  16.814   4.094  0.1577  0.0269  0.1209
 8090W        W23899   8.200   1.487  10.346 -0.0767  0.0249 -0.0072
 8091W        W23900   3.655  12.187   4.052 -0.1909 -0.0390 -0.2719
 8092W        W23901  11.269  15.687   2.350 -0.1397 -0.0970 -0.0667
 8093W        W23902   6.250  14.174  12.406 -0.3673  0.0578  0.2636
 8094W        W23903   9.789   7.747  11.084 -0.3937 -0.4700  0.1834
 8095W        W23904  16.867  15.025   0.787 -0.0690 -0.3570 -0.1690
 8096W        W23905  11.832  14.841   1.908  0.3676 -0.3033 -0.1431
 8097W        W23906  13.204  15.757   2.118 -0.3134 -0.1286  0.1598
 8098W        W23907  11.590   1.507   4.360 -0.0300 -0.0337 -0.2129
 8099W        W23908  17.301  12.859   4.502 -0.2246 -0.1819  0.0427
 8100W        W23909   6.267   9.602  11.692  0.0669  0.2242 -0.0395
 8101W        W23910  15.536   4.473   4.036 -0.0467  0.0981 -0.1019
 8102W        W23911   8.815   9.420   2.849 -0.0002 -0.0681 -0.0924
 8103W        W23912  15.901  15.484   2.059  0.1341  0.0079  0.0926
 8104W        W23913  10.523   2.381  14.646 -0.2127  0.3733 -0.0438
 8105W        W23914  18.108   3.205  11.303 -0.0061  0.1941  0.2058
 8106W        W23915  18.794   0.134  12.907 -0.2202  0.1139 -0.3755
 8107W        W23916   2.177  12.256   2.434  0.0570  0.2793  0.0884
 8108W        W23917   7.663  18.754   5.367  0.0087 -0.2963  0.4411
 8109W        W23918   9.959   1.282   1.237  0.1235 -0.0313 -0.1404
 8110W        W23919   6.657  13.809   4.898  0.1080 -0.1188  0.2827
 8111W        W23920   2.242  15.575  13.170 -0.0155 -0.0123 -0.1738
 8112W        W23921  18.270  14.823  14.815 -0.1693 -0.0815  0.1410
 8113W        W23922  18.740   8.449  12.324  0.1437 -0.1604  0.0208
 8114W        W23923  15.550   9.190   4.376  0.2084  0.0121 -0.3672
 8115W        W23924   7.757   4.372  11.871 -0.3289  0.1067  0.1710
 8116W        W23925  11.243   8.552   5.260  0.1574 -0.2725 -0.1090
 8117W        W23926  17.025   1.815   4.095  0.1254  0.0572  0.0736
 8118W        W23927   3.811   5.800  15.125  0.2167  0.0503 -0.0174
 8119W        W23928  18.619  15.060   4.895 -0.2348  0.1788  0.1658
 8120W        W23929   9.511  11.711  11.244  0.1990  0.0154  0.0630
 8121W        W23930   0.843  18.363  11.289 -0.2047 -0.0267 -0.0507
 8122W        W23931   6.302   1.829   1.353  0.2249 -0.0378 -0.0602
 8123W        W23932  14.621  15.974   4.298  0.3862  0.4102 -0.0760
 8124W        W23933  16.638  13.450  13.497  0.1632 -0.2437 -0.0959
 8125W        W23934   4.742   1.283   2.515 -0.2175 -0.3272  0.2758
 8126W        W23935  13.349   1.344  14.130 -0.1577  0.3170 -0.0515
 8127W        W23936   2.943  13.159  14.905 -0.0252 -0.1232 -0.1868
 8128W        W23937   1.898  12.361   3.106  0.1457 -0.1887 -0.0832
 8129W        W23938  14.136   1.775  13.972 -0.1747  0.0293 -0.2875
 8130W        W23939   7.785  15.424  12.874  0.2947  0.0512 -0.0220
 8131W        W23940  17.920   8.903  15.245 -0.1081  0.1015 -0.1193
 8132W        W23941  15.674   5.977  15.418 -0.1783 -0.0818 -0.1308
 8133W        W23942  17.858   6.018  14.958  0.3313  0.0791  0.1390
 8134W        W23943   8.197   4.190   3.868 -0.1681  0.0269 -0.1310
 8135W        W23944   9.177   8.128   3.159 -0.0414 -0.1560 -0.1754
 8136W        W23945  14.227   8.086   2.631 -0.0413 -0.1955  0.3020
 8137W        W23946   5.779  17.236   1.487  0.0775  0.2061  0.0164
 8138W        W23947   9.197  12.884   2.272 -0.0038 -0.1552 -0.2338
 8139W        W23948   6.778  15.111   0.659  0.5524 -0.1351  0.0346
 8140W        W23949   9.193  10.538  12.496  0.2083  0.0458 -0.0642
 8141W        W23950  13.491   0.398   3.770  0.0477 -0.1188 -0.1415
 8142W        W23951  13.205  13.162   2.916 -0.1703 -0.2977 -0.1381
 8143W        W23952   3.624   1.352   0.584  0.0781 -0.1697 -0.0030
 8144W        W23953  11.057   7.006  12.353  0.5034 -0.0021  0.0952
 8145W        W23954  17.329   2.383  15.268  0.0710  0.1617  0.0434
 8146W        W23955   4.133   0.797  13.312  0.1900  0.0971  0.1673
 8147W        W23956  15.613  14.008   3.927 -0.2515 -0.2502 -0.1710
 8148W        W23957  10.049  11.624   4.122  0.0663  0.1212 -0.3494
 8149W        W23958  10.300  13.188   9.672  0.0112  0.3186  0.1465
 8150W        W23959  14.132  18.198  12.966  0.1161 -0.0236  0.1876
 8151W        W23960  17.011   5.562  11.620  0.1552 -0.0175 -0.3081
 8152W        W23961  10.332  18.601   4.427  0.2674  0.1610  0.3153
 8153W        W23962   6.517   7.966   2.944 -0.0490  0.1463  0.0213
 8154W        W23963  13.925   5.151   3.147 -0.3883 -0.0451 -0.1699
 8155W        W23964   8.608  13.180   3.886  0.3490  0.1575  0.1657
 8156W        W23965   7.153   6.116   2.369  0.0287  0.3440  0.2108
 8157W        W23966  11.018   4.090  11.129 -0.1034 -0.0881 -0.4436
 8158W        W23967   9.999  12.190  13.413  0.2527 -0.2186  0.3671
 8159W        W23968  10.813   7.713  14.100  0.0325  0.1110 -0.1512
 8160W        W23969  12.584  18.883   1.626  0.1339  0.0478 -0.0562
 8161W        W23970   6.276   8.206   1.178 -0.0867 -0.0900  0.0162
 8162W        W23971  13.158  11.508  14.772  0.1672  0.0042  0.3029
 8163W        W23972   2.277   7.881   9.461  0.1698  0.0009 -0.2402
 8164W        W23973  10.204   8.483  10.421  0.1062  0.0998 -0.2041
 8165W        W23974  18.083   5.650  14.499 -0.2370  0.1429 -0.1328
 8166W        W23975  17.098   0.749  13.557 -0.2494 -0.0752  0.0195
 8167W        W23976   3.546   0.124  14.012 -0.1035 -0.0065 -0.3760
 8168W        W23977  18.894   7.380  14.263 -0.4199 -0.0797  0.2060
 8169W        W23978   5.799  13.856   3.667 -0.0438 -0.1696 -0.1853
 8170W        W23979  15.099  12.883  11.041  0.0571  0.2995 -0.2972
 8171W        W23980  13.928   7.542   4.143 -0.2436  0.3735  0.1130
 8172W        W23981  15.762  18.164   5.194 -0.2301  0.2692  0.0473
 8173W        W23982  11.377   3.354   2.472 -0.0846 -0.0959  0.1848
 8174W        W23983  13.476   7.847  15.133  0.1068 -0.1517 -0.0192
 8175W        W23984  13.178   6.158   2.207 -0.1511  0.4170 -0.1534
 8176W        W23985  16.089  17.766   5.311 -0.2753  0.2230 -0.4250
 8177W        W23986  16.293  17.083  15.357 -0.0358  0.0221 -0.0180
 8178W        W23987   6.515   1.215   2.852  0.0182 -0.2523 -0.2039
 8179W        W23988   5.545  18.191  15.341 -0.2524 -0.0954  0.1504
 8180W        W23989   0.766  16.487   0.030 -0.1245 -0.0247 -0.1748
 8181W        W23990  16.946   2.470  11.876  0.0276  0.2016  0.3485
 8182W        W23991  15.386  17.351   1.157 -0.0336  0.1202  0.4016
 8183W        W23992  17.000  11.683   0.650  0.3018  0.0788  0.0637
 8184W        W23993  17.192   7.600  12.978  0.2150  0.2317 -0.0981
 8185W        W23994  16.085   7.358  15.137 -0.1417 -0.0732 -0.0667
 8186W        W23995   8.931   6.721   2.060 -0.0747  0.0092 -0.2417
 8187W        W23996   5.469  10.936  10.307 -0.1972  0.4926  0.1519
 8188W        W23997   2.049   4.576   1.793  0.1062 -0.0435 -0.1870
 8189W        W23998  11.567  11.856   2.870  0.3243  0.1218  0.0485
 8190W        W23999  13.515   6.980   2.456 -0.0419 -0.1504  0.2842
 8191W        W24000   8.996  10.363   0.222 -0.0542 -0.2246 -0.1641
 8192W        W24001  10.674  15.956   4.949 -0.0032  0.1446 -0.2017
 8193W        W24002  14.267  11.220  14.332  0.2450 -0.2797  0.0962
 8194W        W24003   9.389   6.936  14.367  0.0909  0.0667 -0.0146
 8195W        W24004   5.988   4.041  14.914  0.0553 -0.1618 -0.3072
 8196W        W24005   8.893  18.526   0.458  0.0123 -0.1204 -0.3246
 8197W        W24006   0.439   0.756   3.725 -0.1231 -0.0659  0.0250
 8198W        W24007  17.483  16.788  14.330  0.0707 -0.3454  0.4296
 8199W        W24008  13.894   3.040   1.784  0.2092 -0.0388 -0.2544
 8200W        W24009   2.895  11.859   1.361  0.1684 -0.2487 -0.0231
 8201W        W24010  11.054   5.113   2.172 -0.2234  0.1404 -0.2519
 8202W        W24011   3.931  15.129   4.766 -0.1272  0.1023  0.0941
 8203W        W24012  15.808   3.690   2.400  0.2088 -0.1096 -0.0379
 8204W        W24013   5.316   5.731   1.066  0.1846  0.0358  0.1745
 8205W        W24014   4.254   9.059  10.962 -0.2509 -0.2534 -0.0618
 8206W        W24015  12.363  11.553  14.857 -0.0761 -0.0832  0.3093
 8207W        W24016   1.355  15.635   3.158 -0.3132 -0.2434  0.3994
 8208W        W24017   7.157   6.877   3.878 -0.0791 -0.1285  0.1265
 8209W        W24018  16.263   3.878   4.497  0.0068 -0.2849  0.2819
 8210W        W24019   4.760   3.032  14.765 -0.3069  0.2432  0.1667
 8211W        W24020  13.345  14.782  13.618  0.1327  0.0967 -0.1707
 8212W        W24021  16.987  16.626   4.868  0.1496 -0.0954 -0.1839
 8213W        W24022  10.188  12.914  13.196  0.2786 -0.1471  0.1991
 8214W        W24023   0.326  10.533  11.317 -0.3344 -0.0225  0.0333
 8215W        W24024   9.515  13.381  13.653 -0.1770  0.2342  0.0135
 8216W        W24025   5.994   7.008   2.268 -0.0853 -0.0027  0.1158
 8217W        W24026  11.643   3.461  10.568  0.0931 -0.0055  0.4026
 8218W        W24027  18.897   7.498   4.247 -0.0319  0.1519  0.1624
 8219W        W24028   9.500   4.234   5.331 -0.1870 -0.0295  0.1370
 8220W        W24029   3.067   3.826   4.564 -0.0052 -0.0511  0.1139
 8221W        W24030   7.175  15.472   0.563  0.0492 -0.0573 -0.1380
 8222W        W24031  11.072  17.130  10.885  0.2586 -0.1847 -0.3571
 8223W        W24032  17.402  13.361   4.581  0.1213  0.1652 -0.0623
 8224W        W24033   8.342   9.099   1.948 -0.2338  0.1460  0.0786
 8225W        W24034   2.802   5.271  15.223 -0.3745 -0.0406  0.1394
 8226W        W24035   0.256  11.984  12.401  0.1653  0.1988 -0.1368
 8227W        W24036  13.596   8.961  11.205 -0.2102  0.0400 -0.0394
 8228W        W24037  12.377   2.529  14.798  0.1471 -0.1370  0.1220
 8229W        W24038   4.904  14.306  11.112 -0.1695  0.3835  0.0862
 8230W        W24039   5.216   3.160   0.198  0.2421 -0.2077  0.3065
 8231W        W24040   0.426   9.587  10.989 -0.3631  0.2332  0.0942
 8232W        W24041   3.786  12.602   1.383  0.0134 -0.0462 -0.1991
 8233W        W24042  17.966  16.208   2.383 -0.0020  0.0360  0.3639
 8234W        W24043   3.795   5.741   0.618 -0.0864 -0.1259  0.0949
 8235W        W24044  16.931   0.685  11.357 -0.1207  0.4285  0.2562
 8236W        W24045  14.561   9.740  14.430  0.1709 -0.5148 -0.2177
 8237W        W24046  18.304   1.205  14.599  0.0904 -0.1135 -0.2129
 8238W        W24047   3.927  10.655   0.028 -0.4088  0.1385  0.1261
 8239W        W24048  18.016  15.898  12.073 -0.0049  0.2460 -0.3267
 8240W        W24049   2.837  18.095  10.706  0.0574  0.2552 -0.0038
 8241W        W24050  18.857   1.443   1.427  0.1832 -0.1746 -0.4073
 8242W        W24051   6.521   6.975   3.663  0.2447  0.3938  0.1036
 8243W        W24052  10.951  10.742   4.493  0.0707  0.0651 -0.2800
 8244W        W24053  11.482  16.112  10.918  0.0464 -0.1521  0.1642
 8245W        W24054   8.464  16.998  15.355 -0.3552  0.1759 -0.1228
 8246W        W24055  18.220  18.141  14.405 -0.4398 -0.2127 -0.1629
 8247W        W24056   7.932  12.424  12.450 -0.1548  0.0745  0.2302
 8248W        W24057   7.219   7.727   3.474 -0.1291 -0.2324 -0.2619
 8249W        W24058   2.058   0.259   0.893 -0.1713  0.1949  0.0062
 8250W        W24059   1.300   9.308  10.581  0.1881 -0.2138  0.3749
 8251W        W24060  13.623  15.939   1.895  0.2795  0.0593 -0.3471
 8252W        W24061   4.177   7.862  10.517 -0.0334 -0.5672  0.0250
 8253W        W24062   5.102   2.718   4.547  0.3656  0.0878 -0.1600
 8254W        W24063   5.793  12.879   3.261 -0.0433 -0.0245  0.4255
 8255W        W24064  17.574  16.188  13.644  0.0795  0.0775  0.1294
 8256W        W24065  10.867  16.760   4.455 -0.2198 -0.2888  0.3389
 8257W        W24066  15.123  14.599  12.832 -0.2803 -0.1632 -0.4292
 8258W        W24067  10.588  14.494   0.727 -0.0689  0.0151 -0.2434
 8259W        W24068  15.178  12.898   5.442 -0.3114 -0.2225 -0.3069
 8260W        W24069  16.571  15.672   5.136  0.0347 -0.2412  0.0818
 8261W        W24070   4.146   5.627  12.196 -0.2557 -0.2514 -0.0874
 8262W        W24071  13.645  12.249  15.150  0.0893 -0.0559 -0.1261
 8263W        W24072  17.920   6.379   4.327 -0.5413  0.0991  0.0861
 8264W        W24073   2.549  13.151   1.660 -0.1449  0.0366  0.0143
 8265W        W24074  14.584  17.079   2.224 -0.0481  0.2234 -0.3239
 8266W        W24075  11.569  13.810   0.322 -0.3085 -0.0130  0.0798
 8267W        W24076  16.501   8.964   4.213  0.0027  0.1223 -0.1140
 8268W        W24077  12.126  10.103   3.843  0.0366 -0.1353  0.1700
 8269W        W24078  18.414  11.365   0.784  0.2121 -0.2569  0.0187
 8270W        W24079   9.483   6.497  11.683  0.1420 -0.0401 -0.0817
 8271W        W24080  16.848  17.360  13.904 -0.1555 -0.2406  0.0911
 8272W        W24081   5.755   7.342   9.417 -0.1368 -0.2318  0.0793
 8273W        W24082   7.858   3.344  11.853 -0.1590  0.0850  0.2105
 8274W        W24083   1.122  15.899   4.510 -0.1638 -0.0998  0.0099
 8275W        W24084  10.412  14.265   2.246 -0.3246  0.0847  0.2304
 8276W        W24085  11.525   1.665  15.116  0.0213  0.1201 -0.2753
 8277W        W24086   6.327  14.297  14.985 -0.3598  0.4133 -0.0734
 8278W        W24087   1.951   7.084  11.262  0.0662  0.2560  0.0343
 8279W        W24088  13.940   9.798   3.870 -0.2557  0.1647 -0.1468
 8280W        W24089   4.976   2.544   9.920 -0.0108 -0.0780  0.2526
 8281W        W24090   2.904   4.934   2.099  0.1842  0.1096 -0.0296
 8282W        W24091   4.597   7.109   2.959  0.0984 -0.0089  0.0896
 8283W        W24092  15.469  11.469  13.861 -0.2306  0.2446  0.0329
 8284W        W24093  11.254  10.972   0.243 -0.0183  0.1230  0.0129
 8285W        W24094  10.666  12.509  13.916 -0.1540  0.0819 -0.3188
 8286W        W24095   7.156   9.815  11.709 -0.2850  0.2352  0.0146
 8287W        W24096  13.884  17.099  14.921  0.1204  0.2327  0.1004
 8288W        W24097  15.789   5.347  12.544 -0.2617 -0.0047  0.1047
 8289W        W24098   7.350   8.996   3.084 -0.0430  0.0760  0.0077
 8290W        W24099   5.645   1.474   1.479  0.1239 -0.1743  0.5131
 8291W        W24100   0.205   6.625   0.121 -0.1244  0.0245 -0.1919
 8292W        W24101  10.576   2.192   5.720 -0.2334 -0.1254  0.2767
 8293W        W24102  18.105  17.960  13.987 -0.0467 -0.4949 -0.1408
 8294W        W24103  16.204  13.721   4.807  0.2696 -0.0206 -0.0139
 8295W        W24104   0.544  17.608   0.996 -0.1953 -0.1708  0.0504
 8296W        W24105   7.565  11.976   0.249  0.3645 -0.1921  0.1924
 8297W        W24106  17.642  11.139   2.193 -0.0173 -0.2767 -0.1457
 8298W        W24107  17.604  16.233  13.181  0.1529  0.1037 -0.3626
 8299W        W24108   3.409   9.143  11.996 -0.0415  0.0971 -0.1973
 8300W        W24109   8.457   1.989   5.431  0.1653  0.0145  0.2873
 8301W        W24110   7.228   4.285   3.847 -0.0442 -0.1209  0.1101
 8302W        W24111   3.280  13.884  11.417 -0.0302  0.1267 -0.0873
 8303W        W24112   1.464   2.445   0.959 -0.0241  0.2008  0.0212
 8304W        W24113   3.728   4.991  14.960  0.3164  0.0863 -0.0299
 8305W        W24114  15.082  14.858  10.365 -0.0619  0.3950  0.0500
 8306W        W24115   7.330   6.578  12.472  0.0397  0.0527  0.3810
 8307W        W24116   7.865  14.436  13.334 -0.2596 -0.4803  0.0338
 8308W        W24117   5.556   6.031  12.442  0.0014 -0.0211 -0.1671
 8309W        W24118   5.727   0.873   1.623 -0.1162 -0.2297 -0.1977
 8310W        W24119   0.615  14.680   1.820 -0.0477 -0.0063 -0.1491
 8311W        W24120  16.531   1.045   1.421 -0.3073  0.1720 -0.0229
 8312W        W24121   8.822   0.540  13.778  0.1759  0.3161 -0.0948
 8313W        W24122  13.481   5.907   3.099  0.1882  0.0660  0.0131
 8314W        W24123   2.276   5.702   0.383 -0.1785 -0.1641  0.0257
 8315W        W24124   7.073  15.250  14.482  0.1165  0.0209  0.2274
 8316W        W24125   7.814  10.586   3.014  0.2838  0.0386  0.0939
 8317W        W24126   2.447   7.039  11.331  0.0080  0.0425 -0.1228
 8318W        W24127   4.201  16.798   1.334 -0.0957  0.0418 -0.0747
 8319W        W24128  17.315   6.879  12.321  0.2754  0.0503 -0.1535
 8320W        W24129   7.403   1.659   5.020  0.0481 -0.3785  0.0327
 8321W        W24130   4.891   3.003  10.988  0.3338  0.0298 -0.0058
 8322W        W24131  11.307   9.469  11.283  0.0963 -0.1078 -0.2283
 8323W        W24132  17.267   2.172  12.733 -0.0148 -0.1905  0.4322
 8324W        W24133   0.015  14.043  12.921  0.4283 -0.0072 -0.2892
 8325W        W24134   9.027  13.352   1.462 -0.0170  0.0336 -0.0003
 8326W        W24135  15.945   5.927   2.323 -0.2107 -0.1359  0.0128
 8327W        W24136   9.950   0.971   0.764 -0.1875  0.0996  0.1991
 8328W        W24137   7.207   0.444  11.655 -0.3508  0.1254  0.0104
 8329W        W24138  10.906  14.043  13.430 -0.1073  0.0536 -0.1332
 8330W        W24139  12.509  18.437   1.879 -0.3229 -0.1340  0.0823
 8331W        W24140   8.312   8.553   5.158  0.2400 -0.0095 -0.0779
 8332W        W24141   4.377  11.992   1.299 -0.1927 -0.1016  0.0494
 8333W        W24142   5.938   4.045  11.155  0.0827  0.0926 -0.0571
 8334W        W24143  16.515  17.725  10.991  0.1165  0.2978 -0.1956
 8335W        W24144  12.304  18.538  13.140 -0.2687  0.0333 -0.2158
 8336W        W24145   5.830  17.334  10.914 -0.5420 -0.3028  0.1819
 8337W        W24146   2.445  16.179  12.459 -0.0286  0.2934  0.4215
 8338W        W24147  15.004   0.443  11.104 -0.0733 -0.0358  0.0221
 8339W        W24148  14.723   7.578   2.686  0.0946 -0.2504 -0.1829
 8340W        W24149  16.124   6.042  13.648  0.1330  0.0427  0.0521
 8341W        W24150  11.521  14.795  14.531 -0.0097 -0.1222  0.2916
 8342W        W24151  15.254  10.072  13.156 -0.3242 -0.4834  0.1596
 8343W        W24152   2.358   2.572  12.521 -0.2084  0.1675  0.4069
 8344W        W24153  10.619  11.115  13.964 -0.2343 -0.2815  0.0166
 8345W        W24154   5.603   7.949   2.407  0.3176  0.1937 -0.0416
 8346W        W24155   1.872   8.663  15.008 -0.1485 -0.2099  0.0129
 8347W        W24156   1.106   0.317   2.818  0.0911  0.1259  0.2850
 8348W        W24157  17.859  14.546   0.091 -0.0983  0.1596 -0.0875
 8349W        W24158  13.633   9.521   1.293 -0.0536  0.4246 -0.0804
 8350W        W24159  10.765   2.557  10.483  0.1994  0.2524  0.1788
 8351W        W24160   9.303   2.931   0.453  0.1572  0.2805  0.4961
 8352W        W24161   6.613   8.720   4.623  0.3901  0.1783 -0.2687
 8353W        W24162  14.911  11.127   0.068  0.0675 -0.1043 -0.2993
 8354W        W24163  14.093   0.736  11.470 -0.1250  0.3790  0.2732
 8355W        W24164  10.016  14.340   1.883 -0.0357 -0.0682  0.0979
 8356W        W24165   1.926  18.684   3.547 -0.1270 -0.3870  0.0816
 8357W        W24166   2.649   0.521   0.153  0.3811 -0.2222 -0.5373
 8358W        W24167  15.569  11.622  12.687 -0.3849 -0.1331 -0.1575
 8359W        W24168   1.634   3.107  12.832  0.1032 -0.2480  0.0953
 8360W        W24169  14.101  14.105   2.402  0.1335 -0.2098 -0.0624
 8361W        W24170   7.690  15.162  12.017 -0.1155 -0.4561  0.1049
 8362W        W24171  16.719   1.456   2.640  0.0699  0.2659 -0.3897
 8363W        W24172  14.641   4.626   4.173  0.2845 -0.0865 -0.0897
 8364W        W24173  10.965  11.190  13.634  0.0352 -0.1312  0.3978
 8365W        W24174   5.106   5.394  11.819  0.1736 -0.2484  0.0068
 8366W        W24175  13.259   9.519  13.793 -0.1285  0.1679 -0.2661
 8367W        W24176   1.721  16.404   2.028  0.0723  0.1332 -0.1845
 8368W        W24177   0.918   6.435  11.651 -0.2411 -0.2150 -0.0853
 8369W        W24178  15.173  16.700   2.943 -0.0770 -0.1824  0.0693
 8370W        W24179   2.198   9.963   1.700 -0.2175 -0.0074  0.1301
 8371W        W24180   9.610  14.536   0.723 -0.2023 -0.0231  0.3708
 8372W        W24181   7.227  15.440  11.989 -0.1328  0.0486  0.3908
 8373W        W24182   5.405   0.431  13.925 -0.0586  0.1048  0.0785
 8374W        W24183   1.061  18.158   2.189 -0.1601 -0.1577 -0.2800
 8375W        W24184  16.324  12.637  14.610  0.1830 -0.1629  0.0017
 8376W        W24185   2.765   6.617   1.965 -0.3105 -0.3815  0.0818
 8377W        W24186  17.135   1.039  10.581  0.0811  0.2486 -0.3855
 8378W        W24187   5.493  10.432   1.702 -0.2882 -0.1561  0.0589
 8379W        W24188   0.673   5.615   6.066 -0.2054 -0.0472 -0.0262
 8380W        W24189   9.839   6.503  10.269  0.0110 -0.0363 -0.3083
 8381W        W24190  18.631   2.341  13.208 -0.0317  0.0585  0.5394
 8382W        W24191  11.149  18.724   0.101 -0.2180 -0.1648  0.0912
 8383W        W24192   8.973   2.688   1.259 -0.2378  0.1295 -0.0940
 8384W        W24193   2.104  10.322   0.892 -0.1875  0.4934 -0.0358
 8385W        W24194  12.498   5.154  12.771  0.0270 -0.2360  0.1006
 8386W        W24195   3.098  14.297   5.542 -0.1505 -0.0585 -0.0388
 8387W        W24196   9.288  18.736  11.278  0.1510  0.1191 -0.5008
 8388W        W24197  13.036   9.229   3.923  0.0966 -0.1664  0.3089
 8389W        W24198   8.947   3.406  14.607  0.0853  0.0350  0.1328
 8390W        W24199  17.492   7.278   3.204  0.2863  0.1013  0.3698
 8391W        W24200   6.876  10.904   3.426 -0.0848 -0.0342  0.1050
 8392W        W24201  15.806  17.064   4.238 -0.2770  0.2597 -0.2752
 8393W        W24202   5.993   1.731  12.644  0.1839 -0.0224  0.2692
 8394W        W24203   1.675  12.260   4.674 -0.1285  0.1380  0.0420
 8395W        W24204  15.532   7.768  14.493  0.1226 -0.1038 -0.1547
 8396W        W24205  16.606   3.207  14.806  0.0548 -0.0551 -0.3118
 8397W        W24206   1.078  10.823  15.008  0.0063  0.2525 -0.3497
 8398W        W24207  17.682  12.645  14.017  0.1162  0.0233  0.3646
 8399W        W24208   5.164  10.583  10.535  0.3396 -0.2071  0.2176
 8400W        W24209  16.365   6.507   3.808  0.0506  0.2227  0.5411
 8401W        W24210   5.908   5.188   1.076  0.1639 -0.4489 -0.1628
 8402W        W24211  14.099   9.032   1.824  0.0241 -0.4723 -0.0452
 8403W        W24212  15.277  12.459  14.036 -0.1632 -0.1637 -0.1142
 8404W        W24213   1.828  13.554  10.046 -0.2292  0.0673  0.2391
 8405W        W24214  12.618  18.713  10.656  0.2271 -0.1949 -0.0221
 8406W        W24215  14.358  15.457   2.556  0.1401 -0.4891  0.3264
 8407W        W24216   4.144   3.716   4.113 -0.1080 -0.2378  0.0194
 8408W        W24217   1.566   3.648   3.960  0.1225 -0.0919  0.1562
 8409W        W24218   0.880   0.348   1.959  0.2092  0.1254  0.0890
 8410W        W24219  11.517  10.423  11.394 -0.2206 -0.1595 -0.1954
 8411W        W24220   8.586   0.391  12.559  0.2709  0.1700 -0.0315
 8412W        W24221   0.469  18.404   5.473 -0.2087 -0.3977 -0.0402
 8413W        W24222   8.696   3.511   3.719 -0.3223 -0.1807 -0.2207
 8414W        W24223  16.266  15.099   5.862 -0.3629  0.1704  0.1743
 8415W        W24224   6.021   5.060  11.643 -0.2070  0.1521 -0.3014
 8416W        W24225   2.932   5.430  13.893 -0.3026  0.1054 -0.0132
 8417W        W24226  17.669  15.776   0.785 -0.2704 -0.0361 -0.1010
 8418W        W24227   9.916  17.875  14.546 -0.3262  0.1332 -0.0280
 8419W        W24228   4.328  16.213   1.394 -0.1495 -0.3190 -0.0533
 8420W        W24229   1.423  12.215   3.267 -0.0552  0.1825 -0.0496
 8421W        W24230  17.666  13.769   4.372  0.3177 -0.0267 -0.2260
 8422W        W24231   6.490   0.913   5.663  0.0516  0.1797 -0.3666
 8423W        W24232  16.185   3.344  14.327 -0.2655 -0.0681 -0.1283
 8424W        W24233   5.105   1.026   4.317 -0.2357  0.2609  0.1605
 8425W        W24234   8.069  13.870   2.211 -0.1770 -0.0300  0.0452
 8426W        W24235  17.391  18.655   2.739 -0.1588 -0.2288 -0.0188
 8427W        W24236   7.255  10.819  12.423  0.0913 -0.1011  0.2482
 8428W        W24237   0.029   0.106   0.182 -0.0005 -0.0548  0.1013
 8429W        W24238  14.129   8.591   2.587  0.0166 -0.2869 -0.2185
 8430W        W24239   3.204   7.681  13.635 -0.1435 -0.0382 -0.0393
 8431W        W24240  16.199   2.822   4.312  0.1276  0.0392 -0.3104
 8432W        W24241  15.402   0.436  12.423  0.0333 -0.2126  0.0327
 8433W        W24242   5.644   8.638  13.314 -0.1024  0.5165  0.0602
 8434W        W24243  16.704  16.540   1.949  0.3784 -0.1753  0.3184
 8435W        W24244  13.852   5.640   2.274  0.0123  0.1236  0.0280
 8436W        W24245  11.385   7.085   2.008 -0.0361  0.0559  0.0935
 8437W        W24246   0.506   5.070   2.569 -0.3089 -0.5025  0.2055
 8438W        W24247  12.653  10.505  11.548  0.1286 -0.2379  0.0479
 8439W        W24248  14.446  12.990   0.448 -0.0031  0.1168 -0.0790
 8440W        W24249  14.569  16.430   5.748  0.2897  0.1525  0.1496
 8441W        W24250   6.315  18.719  14.485 -0.0331  0.1867  0.0243
 8442W        W24251  15.988   0.528   0.300 -0.2742  0.2423  0.0723
 8443W        W24252  12.362  17.846  13.785  0.4057 -0.0227 -0.0177
 8444W        W24253  11.277   0.080  13.694  0.2197 -0.4538  0.0878
 8445W        W24254  14.283   0.493   0.205 -0.0907  0.4044 -0.0003
 8446W        W24255  18.419  16.267   1.679 -0.1044 -0.0228  0.1526
 8447W        W24256  12.146  13.361  11.107 -0.1284  0.1632 -0.0487
 8448W        W24257   1.942  13.276  11.403 -0.1938  0.0283  0.1006
 8449W        W24258   5.686   3.788  14.537  0.2075 -0.1189  0.0519
 8450W        W24259  10.944   9.864   1.390 -0.2326 -0.0391 -0.0635
 8451W        W24260   5.718   4.490  12.487  0.2685 -0.1813  0.0730
 8452W        W24261  13.197   7.117   4.387  0.0482  0.0023  0.2348
 8453W        W24262  12.545  14.393   2.303  0.2877  0.0174  0.0792
 8454W        W24263  12.987  17.377  12.979  0.0546  0.1024 -0.1072
 8455W        W24264   3.499   4.364   0.881 -0.3325 -0.2500 -0.0140
 8456W        W24265  12.090   9.393   0.860  0.2208  0.1139 -0.0346
 8457W        W24266  10.169  17.411  13.336  0.0771 -0.0719 -0.0645
 8458W        W24267   0.702   5.846  15.392  0.1283  0.0717  0.2017
 8459W        W24268   3.677  11.728   0.256  0.1238  0.0398 -0.1897
 8460W        W24269   9.120   2.937  14.404 -0.2377 -0.0409 -0.1744
 8461W        W24270   1.500  15.754   1.219 -0.0213 -0.2656  0.2149
 8462W        W24271  16.786  12.038   5.662  0.1241  0.0571  0.0339
 8463W        W24272   8.385   3.391   3.113  0.1483 -0.1774  0.1768
 8464W        W24273   6.276   9.416   1.252 -0.1647  0.1927 -0.2194
 8465W        W24274  17.293   2.084   1.934 -0.3895 -0.1661 -0.0495
 8466W        W24275   8.053   6.027  14.619 -0.0687  0.1959 -0.1693
 8467W        W24276  17.150  12.079  14.330  0.0846 -0.3157  0.3978
 8468W        W24277  13.757   1.095   1.814 -0.2093 -0.3838  0.2804
 8469W        W24278   4.774  15.053   2.214 -0.1502 -0.0532  0.0882
 8470W        W24279  13.488   2.903  12.428 -0.4304  0.2110  0.1242
 8471W        W24280   2.812   3.140  11.239 -0.3353 -0.1198  0.4512
 8472W        W24281  16.567   7.624  12.226 -0.0956  0.2382  0.1898
 8473W        W24282   3.371  17.547   4.261  0.0970  0.0823 -0.1120
 8474W        W24283  15.269   2.755  10.782  0.4259  0.0940 -0.4068
 8475W        W24284   7.965  16.843  15.161 -0.2645 -0.1967  0.1786
 8476W        W24285   8.438  12.244   1.618  0.1533  0.2205  0.1088
 8477W        W24286  12.113  11.974   9.790  0.1984  0.1015  0.0436
 8478W        W24287  12.666   9.074   1.310  0.0092  0.2018  0.0646
 8479W        W24288  14.133  10.943  14.900  0.1953  0.1481 -0.0577
 8480W        W24289   2.892   5.345  11.461 -0.0051  0.4172 -0.2343
 8481W        W24290  16.133   4.311   1.330  0.1036  0.3555 -0.0954
 8482W        W24291   9.774   7.103   0.010  0.0567  0.1902  0.1825
 8483W        W24292   5.421  11.557  10.469  0.3447 -0.0844  0.0912
 8484W        W24293  16.618  12.438   4.000  0.2450  0.0006 -0.0134
 8485W        W24294  11.788  10.832  11.356  0.1169  0.0226 -0.0838
 8486W        W24295  18.658  18.148   0.916 -0.1482 -0.1836 -0.2390
 8487W        W24296   9.648  17.530   4.727  0.0447 -0.0959 -0.2542
 8488W        W24297   0.972   0.067   2.383  0.1381  0.0348  0.0517
 8489W        W24298  16.834  10.233  14.702 -0.1897  0.5334 -0.1853
 8490W        W24299  12.966  10.801   5.767 -0.1631  0.0914 -0.0175
 8491W        W24300  16.605   3.613  11.198 -0.0154 -0.0406  0.3221
 8492W        W24301  10.157  11.081  11.765 -0.1899 -0.0129 -0.0464
 8493W        W24302   9.560   8.445   0.638  0.0100  0.0739  0.0073
 8494W        W24303  10.850  13.476  12.866  0.2380 -0.0349 -0.2671
 8495W        W24304   8.621  18.502   3.064 -0.3604 -0.5125  0.0505
 8496W        W24305  17.440   0.957   3.021 -0.0791  0.1323 -0.0606
 8497W        W24306  11.948   4.360  13.043  0.2317  0.3487  0.0120
 8498W        W24307  12.477   3.941   0.091 -0.2269  0.0179 -0.1206
 8499W        W24308  10.003   9.947   2.250  0.3030 -0.1048  0.2066
 8500W        W24309  10.528   2.963  10.728 -0.1776 -0.3433  0.0417
 8501W        W24310  14.117   1.749   2.119  0.0736 -0.2100  0.0381
 8502W        W24311   7.610   5.114   1.954  0.2915 -0.0795 -0.2266
 8503W        W24312   2.879  16.281  12.919 -0.0778  0.0611  0.0369
 8504W        W24313  14.081   8.747  11.376  0.1019  0.1758  0.0534
 8505W        W24314  18.529   1.052   0.999 -0.0420  0.0032 -0.0132
 8506W        W24315   9.935   7.685  13.362  0.0891 -0.1413  0.1438
 8507W        W24316   3.355   3.023  11.432 -0.0389  0.2151 -0.0866
 8508W        W24317   9.649  10.284  11.430  0.1990  0.2570 -0.1086
 8509W        W24318  15.262  14.148   0.451 -0.0384  0.0459  0.0064
 8510W        W24319   6.275   3.585  12.421  0.1355 -0.2270  0.1326
 8511W        W24320   8.206  12.302  11.999 -0.2874 -0.2042  0.0747
 8512W        W24321  15.711  10.137  10.933  0.2637 -0.1384  0.0037
 8513W        W24322  14.115   5.088   1.946 -0.0211 -0.1107  0.2031
 8514W        W24323   5.780  10.078   5.924  0.0562  0.1384 -0.1271
 8515W        W24324   1.037   6.272   0.040 -0.0461 -0.1537 -0.3904
 8516W        W24325   4.357   7.084  13.837 -0.0351  0.1196  0.0207
 8517W        W24326  15.546  10.121  13.552 -0.0057  0.2091 -0.0473
 8518W        W24327  15.932   2.022  10.599 -0.0298 -0.1255 -0.0798
 8519W        W24328   3.293   9.988   4.117 -0.0892  0.0167  0.1773
 8520W        W24329  14.537   8.379  15.178 -0.0315 -0.3714 -0.0765
 8521W        W24330  12.577   0.616  10.903 -0.2722  0.2107 -0.1832
 8522W        W24331  18.436  15.755   0.639  0.2063 -0.1361 -0.1465
 8523W        W24332   2.400   5.647  13.321  0.1761 -0.0348  0.1126
 8524W        W24333   3.355  10.210   3.058  0.2989 -0.0775 -0.0731
 8525W        W24334   0.101  15.502   1.233 -0.2827 -0.1914 -0.0980
 8526W        W24335   2.442   0.120  10.543  0.1843  0.1073  0.1298
 8527W        W24336   0.305  14.393  13.177  0.3655  0.2324 -0.0243
 8528W        W24337  15.213   0.755   2.476  0.0538 -0.0151  0.1498
 8529W        W24338  16.394   1.011   4.424  0.2316 -0.1168  0.0136
 8530W        W24339   6.022  18.651   4.742  0.2321  0.0335  0.1063
 8531W        W24340   2.557  16.563   1.811 -0.1582  0.2108  0.0602
 8532W        W24341  18.815  15.818  13.723  0.0049  0.0223 -0.0868
 8533W        W24342   6.865   0.571   4.434  0.1354 -0.2005 -0.0020
 8534W        W24343  16.361   6.521   3.095 -0.2952 -0.1248  0.3301
 8535W        W24344  13.435  14.598  13.142  0.2217 -0.0078  0.2920
 8536W        W24345   7.662   6.549   0.866 -0.0928 -0.1695  0.0870
 8537W        W24346   7.961   3.142  15.134 -0.2978 -0.0483 -0.1490
 8538W        W24347  10.840  13.501   1.248 -0.2367 -0.1296 -0.0385
 8539W        W24348  18.767  17.464  13.644 -0.1220 -0.2417  0.0115
 8540W        W24349  16.830  14.080  15.297  0.0916 -0.0331  0.0697
 8541W        W24350  15.825  15.932  11.119  0.2957 -0.0052  0.0495
 8542W        W24351  12.726   7.373   5.131  0.2728 -0.4051 -0.0170
 8543W        W24352   7.655   4.718  12.851  0.3305 -0.2207 -0.3409
 8544W        W24353   4.785   2.536  14.886 -0.3711 -0.0506  0.1065
 8545W        W24354  15.983   0.235   1.007 -0.1260  0.2638  0.0635
 8546W        W24355   8.133   7.190   0.798 -0.3455  0.0833 -0.1636
 8547W        W24356   9.938  16.954  13.264 -0.1344 -0.3998 -0.0559
 8548W        W24357   3.213   8.088  10.510 -0.1365 -0.3509 -0.1881
 8549W        W24358  13.797   4.964  12.251 -0.3521 -0.2525  0.1429
 8550W        W24359   0.185   4.236  11.545 -0.2513 -0.0132  0.1569
 8551W        W24360  18.207   9.533   3.909 -0.1324  0.0391 -0.2425
 8552W        W24361  18.138  10.519   2.018 -0.0668 -0.2156  0.1308
 8553W        W24362  13.964   3.952   1.726  0.1403 -0.0288 -0.0679
 8554W        W24363   9.797   0.485  10.444  0.1808 -0.0968 -0.1400
 8555W        W24364  15.310  10.413  13.879  0.3341  0.1128 -0.2560
 8556W        W24365   1.410   2.346  11.485 -0.1555 -0.1125 -0.0296
 8557W        W24366  16.630   5.338   0.660 -0.0358 -0.1769  0.0148
 8558W        W24367  16.202  15.291  13.184  0.0520 -0.1104  0.2039
 8559W        W24368  16.862  10.112   2.121  0.0228  0.0610 -0.1243
 8560W        W24369   7.037  16.324   3.680  0.1501  0.2553 -0.3000
 8561W        W24370  10.457  11.897   3.856  0.0195  0.3958  0.1416
 8562W        W24371   2.267   4.929   5.360  0.2182  0.1456 -0.0280
 8563W        W24372  10.376  10.523  15.306 -0.2555  0.4178 -0.0934
 8564W        W24373  18.161  13.679   4.461 -0.1283  0.2928 -0.0250
 8565W        W24374   6.286   4.878   2.325  0.2518  0.0809  0.1910
 8566W        W24375  18.626  18.615   1.076  0.0824 -0.2417  0.0004
 8567W        W24376   4.594  12.747  10.904  0.1949 -0.0948 -0.0894
 8568W        W24377   0.299  12.329  14.946  0.1510  0.1952 -0.1116
 8569W        W24378  11.506   5.364   2.107  0.1556  0.0739  0.1070
 8570W        W24379  10.474  17.839  11.805  0.1969 -0.0075 -0.1683
 8571W        W24380   7.208  15.502  12.778 -0.0114 -0.1601 -0.0004
 8572W        W24381  16.876  17.470   0.856  0.1512  0.0230 -0.2255
 8573W        W24382   7.843  10.104  14.849 -0.0051  0.3885 -0.0238
 8574W        W24383   9.651   7.428   1.138 -0.2269 -0.1257  0.1045
 8575W        W24384   2.464   2.643   2.943  0.2443 -0.2571 -0.2537
 8576W        W24385   1.352  16.952  12.628  0.0309  0.4101 -0.0205
 8577W        W24386   0.007  10.068  12.682  0.0618 -0.1112 -0.0298
 8578W        W24387  16.321   2.841  14.650  0.2629  0.0273 -0.1131
 8579W        W24388  11.997   7.961  15.309 -0.1981 -0.1824  0.4310
 8580W        W24389   3.571   6.207   3.293 -0.0825 -0.0067  0.2407
 8581W        W24390   2.044  13.551  13.966 -0.1141  0.1182 -0.2013
 8582W        W24391  14.626   8.219   3.832 -0.1199  0.1084 -0.1177
 8583W        W24392  16.441   2.950  14.103 -0.0743  0.1933  0.0148
 8584W        W24393   9.126   2.416  12.919  0.1217 -0.0310  0.1851
 8585W        W24394   0.946   2.505  13.208 -0.3016 -0.0376 -0.0163
 8586W        W24395  13.531   5.012   3.409  0.0856  0.4502 -0.0780
 8587W        W24396   4.483   0.898  14.492 -0.2560 -0.1041  0.1428
 8588W        W24397   9.167  11.844  15.419 -0.0193  0.2328 -0.0608
 8589W        W24398   9.099   4.390   1.935  0.1431  0.1804  0.3458
 8590W        W24399  12.017   1.288   3.458 -0.1949  0.2417 -0.1276
 8591W        W24400  14.838   0.743  13.082 -0.0578  0.0989  0.2611
 8592W        W24401   0.774   0.708   4.105  0.0079 -0.1369 -0.1113
 8593W        W24402   4.604   8.373   2.288  0.0540  0.1893  0.2584
 8594W        W24403   7.905   9.226   0.122  0.1753 -0.1263 -0.1193
 8595W        W24404   7.150   4.384   4.940 -0.3531  0.0109  0.0210
 8596W        W24405  13.115  17.881   4.842  0.4243 -0.2405  0.2976
 8597W        W24406   7.566  10.144   2.006  0.2002  0.1421 -0.3113
 8598W        W24407  14.389  11.593  13.668 -0.1686 -0.0036  0.1241
 8599W        W24408   9.612  14.290  13.424  0.1006 -0.2088  0.3579
 8600W        W24409  13.762   2.785  14.197 -0.0588  0.1046 -0.4191
 8601W        W24410   0.672  11.035   3.669  0.0352 -0.1350  0.0729
 8602W        W24411   0.404  13.319  13.269  0.0940  0.2132 -0.0620
 8603W        W24412   0.288  16.815   0.648 -0.2357 -0.1916  0.3655
 8604W        W24413  13.574   2.956  14.683 -0.2949  0.2063 -0.1816
 8605W        W24414   7.726   9.594  12.167 -0.3160  0.1320 -0.3442
 8606W        W24415   6.841   1.195  11.385  0.0267 -0.1580  0.1827
 8607W        W24416  18.033   7.289  10.892  0.2864 -0.0592 -0.1652
 8608W        W24417   1.951  15.990  10.767 -0.0923  0.0125 -0.4004
 8609W        W24418   0.748  14.485   5.117 -0.3606 -0.0456 -0.1009
 8610W        W24419  13.259   2.368   1.191  0.3381 -0.0096  0.1671
 8611W        W24420  17.463  10.127  10.582 -0.1484  0.4399  0.0789
 8612W        W24421   5.978  17.781  11.228 -0.2130 -0.1249 -0.3679
 8613W        W24422   6.439  16.044   0.493  0.0224  0.2434 -0.2200
 8614W        W24423   6.502   8.990   0.898 -0.3371 -0.1714 -0.2097
 8615W        W24424  15.366   4.525   0.921 -0.2319  0.3366  0.1417
 8616W        W24425   8.256  12.924  15.346 -0.0997 -0.1731 -0.0484
 8617W        W24426   7.582   3.321  12.251  0.3081  0.1596 -0.2282
 8618W        W24427  16.924  12.899   1.760  0.2797 -0.1991 -0.0812
 8619W        W24428   0.437   6.559  11.854 -0.2956 -0.3691  0.0830
 8620W        W24429   9.798  18.418  12.003  0.3021  0.0307 -0.0985
 8621W        W24430  12.584   5.129  12.241  0.4908 -0.0360  0.0330
 8622W        W24431   1.833  14.678   9.078 -0.2175  0.0848 -0.1861
 8623W        W24432   7.426   6.032   0.195  0.0792 -0.0954  0.1823
 8624W        W24433  12.223  10.475   0.816 -0.0656  0.3746  0.2292
 8625W        W24434   9.744   4.550   4.996  0.0235 -0.2592  0.4072
 8626W        W24435  11.732   5.473  12.020  0.0882  0.0879  0.0644
 8627W        W24436  16.791  14.525  15.199  0.1036  0.2105  0.0572
 8628W        W24437  13.987  14.837  12.552  0.2230  0.0393 -0.1929
 8629W        W24438   1.445   7.122   0.999 -0.0069 -0.0764 -0.5504
 8630W        W24439   0.747   5.976   1.157 -0.4078 -0.0515  0.0528
 8631W        W24440  18.047   0.698   4.619  0.0200 -0.0557 -0.2102
 8632W        W24441  11.965   5.229   3.469  0.0653  0.0224  0.4625
 8633W        W24442  12.588   7.853  12.688 -0.0867 -0.1027 -0.1366
 8634W        W24443  13.152   0.229  11.760 -0.0563 -0.1436 -0.1428
 8635W        W24444  16.709   1.250  15.120  0.1690 -0.0338 -0.1705
 8636W        W24445   7.637   0.783   1.226 -0.0603  0.1828 -0.2905
 8637W        W24446   8.522  18.136  11.794  0.2955  0.2995  0.0968
 8638W        W24447   4.444  10.271  12.947  0.0802  0.1057  0.0666
 8639W        W24448  12.843  10.326   4.416 -0.0193  0.0282 -0.0847
 8640W        W24449  11.687   9.201  11.160 -0.0081 -0.0328  0.0700
 8641W        W24450  16.443   6.200   2.231  0.1072 -0.1143  0.0475
 8642W        W24451   1.122  11.715   3.908 -0.3662 -0.1370  0.3267
 8643W        W24452  17.072  17.020   2.546  0.0450 -0.1600  0.0262
 8644W        W24453   3.386   7.177  14.299  0.1423 -0.3078 -0.1781
 8645W        W24454   1.218   9.303   1.829  0.2279  0.3924  0.2684
 8646W        W24455   2.664  16.338   1.131  0.0029 -0.1552 -0.0751
 8647W        W24456   5.400   8.467   0.127 -0.4441  0.0053 -0.0282
 8648W        W24457  11.391   2.092   0.517  0.2877  0.1975  0.0545
 8649W        W24458   6.119  10.567  14.640 -0.0290 -0.1988 -0.2690
 8650W        W24459  12.536   3.093   4.182 -0.1012 -0.0775 -0.0483
 8651W        W24460   0.612   1.761  11.056 -0.1762  0.0050  0.0308
 8652W        W24461  16.884   8.770   4.629 -0.1419  0.0412  0.1494
 8653W        W24462  12.493  13.386  13.934  0.1434 -0.0977  0.0689
 8654W        W24463   3.685   9.616  13.222  0.0135 -0.0711  0.2528
 8655W        W24464  10.663   4.217   3.924  0.2296  0.0824 -0.0971
 8656W        W24465   6.887  15.302  10.580  0.1481 -0.1760 -0.1105
 8657W        W24466  10.408  13.214  11.901  0.0653  0.1569 -0.0355
 8658W        W24467  11.270   7.630   1.790  0.1962 -0.2096 -0.1601
 8659W        W24468   1.973  14.329   4.814  0.3440 -0.1407 -0.4309
 8660W        W24469   4.856  11.766  14.974  0.0608  0.2563 -0.1891
 8661W        W24470   1.654   9.027  10.878 -0.1853 -0.0464 -0.0554
 8662W        W24471  14.883   6.594  10.838 -0.1102 -0.1319 -0.1026
 8663W        W24472  10.272  15.452   1.026  0.0076 -0.1271  0.1938
 8664W        W24473  10.364  17.448   3.153 -0.1496  0.0870  0.2782
 8665W        W24474  14.502  10.598  10.759  0.5572  0.0896  0.0060
 8666W        W24475   6.543  12.451  11.321  0.2598  0.4215 -0.0488
 8667W        W24476  12.861  13.255   4.112  0.1827  0.0516  0.2793
 8668W        W24477   4.159   5.280   9.390 -0.1952 -0.1475  0.0935
 8669W        W24478   4.906   8.838  10.640 -0.0011 -0.3070  0.0020
 8670W        W24479   2.286  12.278  10.244 -0.1962 -0.0424  0.1555
 8671W        W24480   6.659   8.817   2.502  0.2912  0.1125 -0.0828
 8672W        W24481   5.044   7.442   0.322 -0.1556  0.1683 -0.1861
 8673W        W24482   7.671  12.478   4.454 -0.0775  0.1290  0.1434
 8674W        W24483  16.131   4.112   2.255 -0.3284  0.0425 -0.0340
 8675W        W24484   9.197  13.529  14.668 -0.0088  0.0939 -0.0520
 8676W        W24485   6.012   4.811   1.411  0.0817  0.0548 -0.0554
 8677W        W24486   7.291   3.991   0.793  0.1128 -0.3533 -0.0372
 8678W        W24487  17.674  11.081  11.825  0.0829 -0.1475  0.1126
 8679W        W24488  10.903   7.144  11.928 -0.1908 -0.0132 -0.2773
 8680W        W24489   2.642   0.795   2.886  0.1160 -0.1245  0.0283
 8681W        W24490  10.985  18.134   3.138  0.0600  0.1170 -0.2466
 8682W        W24491  10.237   1.592   2.089 -0.1912  0.2050 -0.0328
 8683W        W24492  17.789   3.458  12.587  0.0882  0.0027 -0.5231
 8684W        W24493  12.241   0.707   4.284  0.2142  0.0485 -0.0543
 8685W        W24494  17.500  15.704   4.224 -0.1093  0.1302  0.2651
 8686W        W24495   9.734  11.860   1.845  0.0912 -0.1163 -0.2113
 8687W        W24496  16.109  14.119  12.616  0.2676 -0.1060  0.1150
 8688W        W24497   7.574   9.297  11.345  0.3356 -0.1868  0.1905
 8689W        W24498   1.999  10.375  13.406  0.1124  0.0794 -0.0176
 8690W        W24499   8.153   3.799   0.927 -0.0573  0.4893 -0.0176
 8691W        W24500  14.846  17.975   4.970 -0.0494 -0.2602  0.4230
 8692W        W24501   6.295   3.203   4.773  0.0534 -0.0037 -0.1973
 8693W        W24502   6.848  13.653  14.754 -0.1276  0.2970  0.1695
 8694W        W24503  10.699  16.417  12.783  0.1924  0.2113 -0.1476
 8695W        W24504   4.507  11.253   0.430 -0.2847  0.0688 -0.1633
 8696W        W24505   8.502   0.762   3.880 -0.1488 -0.2429  0.2014
 8697W        W24506   8.174   2.072  12.465  0.1201 -0.2820 -0.0427
 8698W        W24507   9.436  14.448  11.283  0.1205 -0.1928  0.0759
 8699W        W24508   0.967  11.320   5.654  0.0916 -0.2671  0.1474
 8700W        W24509   8.100   2.249   4.964 -0.1311  0.0124 -0.0957
 8701W        W24510  11.291   1.055  13.632 -0.0444 -0.0028 -0.0914
 8702W        W24511   4.607   8.011   0.015  0.0246  0.0985  0.1220
 8703W        W24512   3.414   9.187  12.472  0.2159  0.1434 -0.0662
 8704W        W24513  11.117   0.862   0.652 -0.2265 -0.2262 -0.1337
 8705W        W24514  14.605   6.161   2.448  0.3260  0.2403 -0.1642
 8706W        W24515  15.841   6.655  12.846 -0.1144  0.1022  0.1320
 8707W        W24516  13.715   7.724  13.211  0.0374 -0.0477  0.1352
 8708W        W24517  12.817   9.774   0.727  0.0952  0.0643 -0.0343
 8709W        W24518   7.997  12.243   4.799  0.0215  0.0309 -0.0909
 8710W        W24519   4.176   6.791   3.272  0.0492  0.1716  0.1024
 8711W        W24520  13.036   3.266   4.094  0.0257 -0.2538 -0.3854
 8712W        W24521  14.870  12.404  13.696  0.1162  0.2397  0.3300
 8713W        W24522  12.431   6.010   1.573 -0.1099 -0.0961 -0.0654
 8714W        W24523   1.727  15.222  11.879 -0.0128  0.4455  0.4534
 8715W        W24524  10.029  18.504   2.960 -0.1024  0.1430  0.2257
 8716W        W24525   8.982   3.618   2.311 -0.2648  0.0844  0.0499
 8717W        W24526   0.533  15.927   1.674  0.1294  0.3536  0.2578
 8718W        W24527   5.931   0.543   3.810 -0.3308 -0.1814 -0.2186
 8719W        W24528   8.910  11.865  11.516 -0.0738 -0.1022 -0.1158
 8720W        W24529  10.769  12.795   5.517  0.0822 -0.0718 -0.3978
 8721W        W24530   5.563   8.052  14.335  0.2100  0.0706  0.0273
 8722W        W24531  14.020  14.709  11.420 -0.0449  0.0123 -0.1326
 8723W        W24532   2.119  12.002   0.898  0.0760 -0.2592  0.0243
 8724W        W24533   0.920  16.514  11.728 -0.1428 -0.2652  0.2363
 8725W        W24534   7.146   3.327   5.430  0.1339 -0.1328  0.0629
 8726W        W24535  15.124  13.861   4.344  0.5667 -0.3003  0.0027
 8727W        W24536   8.365  16.242   3.306  0.1374 -0.1481 -0.1569
 8728W        W24537   5.626  18.400   1.375  0.1262  0.1711  0.0936
 8729W        W24538   9.832  17.271  11.563  0.2257  0.1214  0.2041
 8730W        W24539   3.335  12.904  12.570 -0.5283  0.1392 -0.2976
 8731W        W24540  11.135   6.990   0.716  0.0822 -0.0196 -0.1250
 8732W        W24541  17.680   6.837  10.559  0.1068  0.3349 -0.2115
 8733W        W24542  16.722   2.701  11.176  0.4345  0.3941  0.1647
 8734W        W24543  14.336   0.580   2.482  0.0762  0.3848 -0.1400
 8735W        W24544   6.039  16.207  10.184 -0.0059 -0.1790 -0.1160
 8736W        W24545  10.500  17.463   3.704  0.2494 -0.4038 -0.3419
 8737W        W24546   4.372   4.853  13.074 -0.0412  0.1369  0.1892
 8738W        W24547  10.584  18.108   1.632  0.2171 -0.1736  0.1761
 8739W        W24548   6.708  11.069   0.853  0.0470  0.2285 -0.0772
 8740W        W24549   2.142  11.479  10.086  0.1701 -0.2362  0.2892
 8741W        W24550   2.898  18.313   1.061  0.0603 -0.0428  0.4039
 8742W        W24551   1.127  12.871   2.843 -0.1885  0.2809 -0.1749
 8743W        W24552   1.755  17.365   0.119  0.3750 -0.0393 -0.0368
 8744W        W24553   3.017   7.480   2.243 -0.0129 -0.3367  0.0958
 8745W        W24554  12.177  17.847   4.721 -0.1466  0.1094  0.1926
 8746W        W24555   7.720  13.821   1.390 -0.0375  0.2279 -0.0515
 8747W        W24556   0.292   3.996   4.531 -0.2225  0.2521 -0.1860
 8748W        W24557   9.644   9.054   4.305  0.1603 -0.1478  0.0485
 8749W        W24558   8.606   7.424   3.224 -0.0521 -0.2689 -0.2948
 8750W        W24559   1.010  16.821   5.039  0.3505 -0.1805  0.0950
 8751W        W24560   3.225  14.257   0.089  0.1632  0.2014  0.1613
 8752W        W24561  18.157   2.574   2.068 -0.0311 -0.1347 -0.1685
 8753W        W24562  15.354   6.277   1.629 -0.1221 -0.0558  0.2638
 8754W        W24563   7.482  12.053   5.407 -0.0961 -0.0344  0.1814
 8755W        W24564   4.657   5.392   9.280 -0.2077  0.1441 -0.0921
 8756W        W24565  16.952   9.262   4.623  0.1455  0.3421 -0.0250
 8757W        W24566  12.716   7.433  11.801 -0.0724 -0.2620  0.1927
 8758W        W24567   5.597  10.435  14.658 -0.0338  0.3292  0.1693
 8759W        W24568  15.163  14.274  10.651 -0.1691 -0.0646  0.0950
 8760W        W24569   0.378   6.272  14.177 -0.1729  0.1723  0.0960
 8761W        W24570   1.240   1.568  13.840  0.1244  0.0790 -0.4937
 8762W        W24571  18.457   6.639   5.195  0.1671  0.1052  0.2552
 8763W        W24572   9.470  13.767   2.545 -0.1993  0.0647 -0.1736
 8764W        W24573   3.710   1.853   4.769  0.0908 -0.2177 -0.1003
 8765W        W24574   7.437   7.941  12.202  0.3052 -0.0189 -0.3522
 8766W        W24575  11.291  13.755  11.789  0.3489  0.0683 -0.0781
 8767W        W24576  12.867  16.050  10.560 -0.1444 -0.2445  0.1912
 8768W        W24577  10.771   5.105  11.025  0.0589  0.3242 -0.2914
 8769W        W24578   5.592   8.835   3.417  0.1833  0.3292 -0.1371
 8770W        W24579   4.341   0.361   9.575 -0.2781  0.1152  0.1675
 8771W        W24580   1.139   4.256  11.539 -0.2999  0.5259  0.2058
 8772W        W24581   9.136   8.892   4.239  0.0334  0.1651 -0.0234
 8773W        W24582  15.130   0.215   2.447  0.0963  0.0006  0.1202
 8774W        W24583  15.984  13.092   0.639 -0.0887  0.0872  0.3555
 8775W        W24584   2.467  15.148  13.057  0.0837  0.2124 -0.0403
 8776W        W24585  18.595  18.111   1.984 -0.1249 -0.1481 -0.3017
 8777W        W24586   4.670   3.511  12.541 -0.0305 -0.0298  0.2980
 8778W        W24587  17.441   8.484   5.043 -0.0713  0.2211 -0.0719
 8779W        W24588  18.085   7.458  14.525  0.1108 -0.0801 -0.0830
 8780W        W24589   2.642   0.553  12.610 -0.2566  0.2793 -0.2235
 8781W        W24590  16.197  13.603  15.403 -0.1155 -0.0313 -0.0350
 8782W        W24591   4.879   4.432   3.529  0.1276 -0.1777 -0.2663
 8783W        W24592   5.593  12.089   2.396  0.1021  0.2346 -0.1777
 8784W        W24593  15.539  17.110  13.764  0.0293  0.0059  0.1305
 8785W        W24594  12.286   5.440  15.265  0.1218  0.0808 -0.0750
 8786W        W24595   8.970   9.590   1.304  0.0093 -0.1531  0.0935
 8787W        W24596  17.562  14.656  13.923  0.1283  0.1241  0.0280
 8788W        W24597  15.456   3.537   1.412  0.0474 -0.0853 -0.2744
 8789W        W24598  16.266   3.236   4.574 -0.0649  0.3066 -0.0739
 8790W        W24599   2.051   0.912   0.552  0.0410 -0.1599 -0.3279
 8791W        W24600  17.793   9.250   0.668  0.1456 -0.2565  0.1571
 8792W        W24601   9.072  15.227   0.542 -0.1473  0.0686 -0.0359
 8793W        W24602  15.676   5.000   2.566 -0.0750 -0.2568 -0.2417
 8794W        W24603  15.728  18.881  14.041 -0.2886  0.1938 -0.1917
 8795W        W24604  15.642   9.656   2.516  0.2931 -0.1840  0.1315
 8796W        W24605  18.918  11.149   0.867 -0.0440 -0.2842  0.0910
 8797W        W24606  10.413  15.014  15.117 -0.2521 -0.0031 -0.2016
 8798W        W24607  16.855   7.757  14.659  0.4495  0.0243 -0.2321
 8799W        W24608   3.732   6.699   2.523  0.3615  0.1352  0.1259
 8800W        W24609   6.968  10.554   1.039 -0.1100  0.4513 -0.3941
 8801W        W24610  18.672  11.231  10.755 -0.3040 -0.3199 -0.0986
 8802W        W24611  16.906   0.565   3.735 -0.1024  0.0939  0.0563
 8803W        W24612  10.000   0.242   2.179 -0.0182 -0.1714  0.1764
 8804W        W24613   3.476  15.926  11.062 -0.2047  0.2155  0.1396
 8805W        W24614  17.225  11.365  11.750  0.0625 -0.1169 -0.1587
 8806W        W24615   6.104   2.477   1.709 -0.0409  0.0812 -0.1747
 8807W        W24616   1.591   6.272   1.499  0.0320  0.4427  0.0331
 8808W        W24617  12.086  14.532  13.256  0.3948  0.1253 -0.3882
 8809W        W24618  18.487  17.154  14.765 -0.3343 -0.0020  0.1874
 8810W        W24619   5.814   3.751   0.245  0.0898  0.2996 -0.0704
 8811W        W24620  11.439   6.509  13.190  0.0209  0.0759 -0.1594
 8812W        W24621   7.698  18.759  12.089 -0.0008  0.1540  0.2337
 8813W        W24622   6.181  11.624  13.880 -0.1144  0.0730 -0.0296
 8814W        W24623  14.627  11.436   4.101  0.1523  0.5291 -0.0046
 8815W        W24624   2.144  12.660  15.379 -0.3943 -0.2525  0.0984
 8816W        W24625   1.284  14.087   2.846  0.0545  0.2841 -0.1911
 8817W        W24626  10.005  15.961   5.601  0.2329  0.0384 -0.0683
 8818W        W24627   3.221  13.297   4.177 -0.2619 -0.0654  0.0632
 8819W        W24628   7.907  17.200  13.820  0.1245 -0.2638 -0.0496
 8820W        W24629  10.183  10.555   2.941  0.5062 -0.2136 -0.1388
 8821W        W24630  12.066  10.006   2.933 -0.0639 -0.1954 -0.4032
 8822W        W24631   5.353  18.693  15.239 -0.0197  0.0975 -0.3145
 8823W        W24632  15.706  18.148  12.582  0.2867 -0.1938  0.2750
 8824W        W24633   9.455  13.023   4.142 -0.2550  0.2483  0.2203
 8825W        W24634   0.606  18.728  13.080  0.1285 -0.1471 -0.0468
 8826W        W24635   8.132   1.269   2.589 -0.1712 -0.0410 -0.2665
 8827W        W24636   5.898  18.022   3.812  0.2723  0.1595  0.3752
 8828W        W24637  13.490  13.925  13.738 -0.1082  0.3146  0.0397
 8829W        W24638  11.653   8.508  13.144 -0.0110  0.2723 -0.5718
 8830W        W24639   8.938   8.180  12.009 -0.1551  0.0678  0.1209
 8831W        W24640  16.402  15.567   2.056 -0.0065 -0.1618  0.0250
 8832W        W24641  17.838   7.921  12.077 -0.2640  0.0865 -0.0861
 8833W        W24642  10.559   9.023   4.161 -0.0260 -0.1450 -0.1829
 8834W        W24643   3.793  18.618   1.631 -0.0571 -0.1331  0.2257
 8835W        W24644  10.609  16.872  15.092 -0.4112 -0.2015  0.3539
 8836W        W24645   9.515  17.052   4.691  0.0276 -0.2051  0.1406
 8837W        W24646   5.054   7.651  12.695 -0.2678 -0.0179 -0.3298
 8838W        W24647   6.091  12.061   2.554  0.0768 -0.0520 -0.0088
 8839W        W24648  15.525  15.578  11.317 -0.0189  0.1488 -0.3189
 8840W        W24649  17.765  11.069   1.312  0.1850  0.0310  0.3833
 8841W        W24650   2.329  14.022  13.991  0.0034 -0.0788 -0.2453
 8842W        W24651  17.079   6.371   4.324 -0.0289  0.0876  0.1128
 8843W        W24652  11.710  16.440  14.428  0.1938 -0.0046  0.0816
 8844W        W24653  15.599   7.887   1.057  0.1941 -0.1000 -0.2491
 8845W        W24654  16.314  14.854   0.338  0.5218  0.0598  0.0313
 8846W        W24655   8.736  18.223  15.428  0.0548  0.2040  0.1109
 8847W        W24656   2.419   8.918  11.371 -0.3142 -0.2960 -0.0825
 8848W        W24657   8.541  13.885   0.842 -0.2497 -0.1007 -0.0106
 8849W        W24658  18.257  15.097   2.859 -0.1258 -0.2220 -0.4201
 8850W        W24659   8.093  12.180  11.469  0.2738 -0.1716 -0.0394
 8851W        W24660  16.625   7.518  11.254 -0.0439  0.3043 -0.2859
 8852W        W24661   7.581   5.893   3.143  0.1137 -0.0720  0.1400
 8853W        W24662   2.743  18.498  10.423 -0.1101  0.0793  0.3255
 8854W        W24663   8.357   5.031   0.691  0.4139  0.0543 -0.0110
 8855W        W24664   1.294   1.861   2.864 -0.2814  0.2078  0.0189
 8856W        W24665   5.550   4.355   3.979 -0.0553  0.3136 -0.2427
 8857W        W24666   6.447  12.380   4.417  0.0610  0.0213 -0.2397
 8858W        W24667   9.203  10.518   1.791  0.1023 -0.1759 -0.4243
 8859W        W24668  18.060   9.921   0.721 -0.0186  0.0339  0.0043
 8860W        W24669  12.965   1.125   3.238  0.1293 -0.3674  0.1162
 8861W        W24670  11.349  18.006  11.766 -0.1895  0.0048  0.1946
 8862W        W24671   9.810   4.612  10.416 -0.2701  0.3559  0.1729
 8863W        W24672   9.047   5.499   1.350  0.0506 -0.0836 -0.1934
 8864W        W24673   2.756  12.792  12.417  0.1680  0.0914 -0.2046
 8865W        W24674  16.617  16.011  13.660  0.0555  0.1134  0.1311
 8866W        W24675   8.737  11.156   4.396  0.2423  0.0072  0.0183
 8867W        W24676  15.796  15.380  10.925 -0.0079  0.3531  0.0184
 8868W        W24677   4.251   0.175  11.217 -0.1387  0.2385 -0.0078
 8869W        W24678  10.561  13.031   0.911 -0.0936  0.0613 -0.0459
 8870W        W24679  10.464   4.051  15.015  0.1101  0.0781  0.0337
 8871W        W24680   2.458  11.191  13.739  0.2728 -0.1720  0.2177
 8872W        W24681   3.849   4.828   2.369  0.2216  0.2841  0.0632
 8873W        W24682  16.948   8.668   5.171  0.3714 -0.0733 -0.1303
 8874W        W24683  17.313   2.788  12.027 -0.1437 -0.0079  0.0572
 8875W        W24684  12.886   3.143  14.193  0.2055  0.1817 -0.4182
 8876W        W24685  15.547  17.011  10.567 -0.1473  0.2463  0.1664
 8877W        W24686  10.395   9.814  15.329 -0.3410 -0.0359 -0.1845
 8878W        W24687   0.094   4.270  13.813  0.0941 -0.0872 -0.0297
 8879W        W24688   2.223  10.451   5.849  0.1633  0.4150  0.2694
 8880W        W24689   3.849   3.713   4.694 -0.2961  0.0916 -0.0268
 8881W        W24690  11.837  11.037  10.797  0.0827 -0.2832 -0.0251
 8882W        W24691  12.301   6.057  12.680 -0.1410 -0.0269 -0.1423
 8883W        W24692  14.778   4.088  12.826 -0.1488 -0.2163 -0.1193
 8884W        W24693   5.058  10.108  10.688  0.0041  0.1616 -0.2719
 8885W        W24694   7.174   9.927  11.210 -0.0522  0.0536  0.0941
 8886W        W24695  12.098   2.145  14.728  0.0374  0.3594 -0.0083
 8887W        W24696  11.081   4.252   0.583 -0.0511 -0.1796 -0.0064
 8888W        W24697   6.019   1.511   2.586 -0.1325  0.2499 -0.0153
 8889W        W24698   6.799  17.313  12.971 -0.2391  0.1144 -0.1888
 8890W        W24699   7.381  13.042   2.363  0.1332 -0.2518 -0.0407
 8891W        W24700   0.179   5.608   4.636 -0.0601  0.1104  0.1165
 8892W        W24701   7.625  10.598  13.859 -0.0849  0.2135  0.2374
 8893W        W24702  15.638  11.013   0.211 -0.1036 -0.1059 -0.0041
 8894W        W24703   4.052   0.157   3.872 -0.1314 -0.1343 -0.2595
 8895W        W24704  10.943  10.552   0.183  0.1106 -0.1956  0.2159
 8896W        W24705   2.854  18.861   2.886 -0.0245 -0.0946 -0.3046
 8897W        W24706   5.802   3.335   4.637  0.1665  0.0658  0.5108
 8898W        W24707   9.850   8.261  12.375  0.3797 -0.2504 -0.4297
 8899W        W24708  18.774   0.877   1.943 -0.1375 -0.1745  0.3589
 8900W        W24709   2.032  16.513   1.705 -0.0630  0.0774 -0.0418
 8901W        W24710  14.019  11.271   0.010  0.2466  0.2612  0.1473
 8902W        W24711  11.301  13.044   5.310 -0.0504 -0.1376  0.1034
 8903W        W24712  15.458  13.416   4.266 -0.4439 -0.3794  0.2126
 8904W        W24713   6.660   8.850  14.968  0.0843 -0.2658  0.0734
 8905W        W24714   1.794   0.562   1.180  0.4049  0.3105 -0.0264
 8906W        W24715   2.493  14.633  12.898 -0.1309 -0.2542 -0.2981
 8907W        W24716  16.998  10.886   1.757 -0.0250 -0.2642 -0.1707
 8908W        W24717   8.511  10.244   1.445  0.4177 -0.3231 -0.1236
 8909W        W24718  18.616   7.022   1.749 -0.1055  0.0207 -0.0704
 8910W        W24719   8.398  18.771  13.189 -0.0891 -0.0542 -0.0547
 8911W        W24720   4.700   0.703   2.647 -0.1676 -0.2007 -0.1120
 8912W        W24721   8.695  18.790  11.301 -0.1361 -0.1617  0.1141
 8913W        W24722   0.993   9.189   9.855 -0.2587  0.0431  0.2154
 8914W        W24723   0.105   5.233  12.773 -0.1273  0.0503  0.1783
 8915W        W24724   4.038  16.905   2.355 -0.1285 -0.0752  0.1460
 8916W        W24725   1.665   1.623   3.169 -0.1537  0.1193 -0.0677
 8917W        W24726   0.723   5.494  14.664 -0.1486  0.2016 -0.0920
 8918W        W24727   8.498  17.620   4.122  0.0445  0.0977  0.0056
 8919W        W24728   1.369   2.462   3.854  0.1844 -0.1875 -0.3775
 8920W        W24729  11.279   5.592   5.180 -0.4456 -0.1761  0.3139
 8921W        W24730   6.862  18.218  11.730 -0.0020  0.2019 -0.1960
 8922W        W24731   7.338   6.821  15.203 -0.0813  0.0227  0.2779
 8923W        W24732   3.031  15.671  13.493  0.2277  0.0330  0.4584
 8924W        W24733   6.767  18.038   3.790  0.0607  0.1131  0.0384
 8925W        W24734   9.242  10.815  10.219 -0.3969  0.0903  0.0633
 8926W        W24735   1.407  15.960   5.504  0.2489 -0.0976  0.1650
 8927W        W24736   4.837  14.614   4.380 -0.2286  0.0764 -0.1282
 8928W        W24737  15.959   4.678  13.968 -0.0767  0.0960  0.1991
 8929W        W24738  15.224   0.211   3.357  0.1488 -0.0155  0.0261
 8930W        W24739   0.633  11.998  14.860 -0.0322  0.0748 -0.0055
 8931W        W24740   6.328   5.275   1.914  0.1041  0.2681 -0.4036
 8932W        W24741   5.939   2.000   5.189  0.2710  0.0349 -0.4273
 8933W        W24742  12.131   3.274  14.215  0.0715 -0.1386  0.2310
 8934W        W24743  17.801  13.272  15.176 -0.0658 -0.0817  0.0030
 8935W        W24744  15.824   3.868   1.420  0.2653 -0.2372 -0.0361
 8936W        W24745   6.211  12.887   2.102  0.0934 -0.3630  0.1765
 8937W        W24746   2.271  17.761  11.302  0.0825 -0.1866 -0.3643
 8938W        W24747   0.095  11.596  13.375 -0.0923 -0.0341 -0.2237
 8939W        W24748   6.509   7.931  13.884  0.2235 -0.4970  0.2112
 8940W        W24749  18.856   9.693   0.021  0.0727 -0.2283  0.0702
 8941W        W24750   5.810   7.111   4.164 -0.2144  0.0176 -0.1177
 8942W        W24751  10.053   2.528  14.722 -0.0146 -0.2189 -0.0192
 8943W        W24752   6.338   8.339  15.395 -0.0093  0.1242  0.0606
 8944W        W24753  13.614  13.582  12.748  0.0784  0.0999 -0.5578
 8945W        W24754  16.040  16.454   2.569  0.3706  0.0723  0.1322
 8946W        W24755   9.840   8.306  15.358 -0.0174  0.1459  0.0991
 8947W        W24756  10.790  16.359   0.506 -0.0849 -0.0745 -0.0103
 8948W        W24757  16.992   2.655  12.946 -0.2362 -0.4133 -0.2054
 8949W        W24758   1.243   0.625  12.011  0.0461  0.3438  0.0462
 8950W        W24759   8.567   8.324  13.852 -0.0284  0.0714  0.1835
 8951W        W24760   8.194   9.153   4.432 -0.2096 -0.0104  0.0548
 8952W        W24761  16.306  13.827  11.532 -0.0627 -0.0215  0.2579
 8953W        W24762   3.300  16.018  15.325  0.0474  0.0390  0.1132
 8954W        W24763   6.523  12.645   0.681 -0.0806  0.3070  0.0092
 8955W        W24764  18.117  12.457  14.433  0.2877 -0.0711  0.0020
 8956W        W24765   2.733   3.902  15.121  0.1287 -0.2248  0.2230
 8957W        W24766   0.814  11.322   0.953  0.2893 -0.1012  0.0367
 8958W        W24767   7.535  10.616   0.079  0.1471 -0.1509  0.1832
 8959W        W24768   8.674   9.935   0.551  0.3518 -0.2048 -0.1947
 8960W        W24769  18.107  14.887   5.047  0.3455  0.0330 -0.2008
 8961W        W24770  11.389   9.989   1.162 -0.1058 -0.5259 -0.0522
 8962W        W24771  11.023   7.502   0.477  0.2515  0.0539 -0.1190
 8963W        W24772  10.884  10.432   3.476 -0.1826  0.1088  0.0027
 8964W        W24773  13.137  17.393  11.555 -0.0997 -0.3844 -0.1805
 8965W        W24774   9.287  15.010  11.312  0.1929  0.1272 -0.1840
 8966W        W24775   9.636  14.421  14.536  0.0726  0.4721 -0.1171
 8967W        W24776   1.281   6.109   5.222  0.0217 -0.0369 -0.0804
 8968W        W24777   3.321  16.243   2.256  0.1202 -0.1487 -0.0172
 8969W        W24778   5.799   4.164  15.348  0.2181  0.3535 -0.2477
 8970W        W24779   0.807   2.120  10.746  0.1513  0.1278 -0.0646
 8971W        W24780  14.724   5.279   2.910 -0.3009 -0.4312  0.1738
 8972W        W24781   6.006   0.990   2.033  0.1613 -0.3074  0.2664
 8973W        W24782   7.337  13.209  15.435 -0.0587  0.2665  0.2721
 8974W        W24783  14.498  14.157   2.090  0.2530 -0.0310 -0.2063
 8975W        W24784   4.385   4.699   1.298  0.1061  0.2362 -0.0081
 8976W        W24785   6.011   6.876  15.010 -0.3604  0.2767 -0.1790
 8977W        W24786  17.951  16.836  11.657 -0.2395  0.1177  0.0410
 8978W        W24787  18.643   0.961  12.975 -0.2851 -0.1230 -0.1125
 8979W        W24788  14.618  13.037   5.236  0.1029  0.3140  0.1417
 8980W        W24789   0.116   9.167   4.217  0.2879 -0.0554 -0.0780
 8981W        W24790  18.728  13.063  14.275  0.0067 -0.1689  0.1492
 8982W        W24791   0.405   6.036  11.482  0.0810 -0.0306 -0.3179
 8983W        W24792  14.136   0.180  12.718  0.0108 -0.0176 -0.0688
 8984W        W24793   4.980   0.989  14.695  0.3142 -0.0410  0.1331
 8985W        W24794  18.741   3.766   4.497 -0.0027  0.0578 -0.1440
 8986W        W24795  14.754   0.194   1.395  0.0532 -0.0673 -0.1826
 8987W        W24796   9.465  14.433   2.335  0.3201 -0.0511  0.2340
 8988W        W24797   9.887  18.341  14.715 -0.1671  0.0762 -0.2867
 8989W        W24798  13.343   4.870   1.433 -0.0249 -0.0263  0.0858
 8990W        W24799  15.498   6.863   2.955  0.2459  0.2699  0.0838
 8991W        W24800  17.072  15.245  14.576 -0.0279 -0.0147  0.1440
 8992W        W24801  14.106   9.961   3.434  0.0841  0.3176 -0.1178
 8993W        W24802   4.500   5.292   0.244  0.1379 -0.2621 -0.0546
 8994W        W24803   9.298  11.748  14.069 -0.0714 -0.2037 -0.1973
 8995W        W24804   0.119  13.600  11.205 -0.0787 -0.1792  0.0141
 8996W        W24805  14.829   5.605   3.887  0.2754 -0.3054 -0.0129
 8997W        W24806   9.615  14.149  15.338  0.2246 -0.0269 -0.5400
 8998W        W24807  12.169  10.008  13.721  0.2473 -0.4243  0.1428
 8999W        W24808  12.477   1.009   3.433 -0.0925 -0.0031  0.0735
 9000W        W24809  14.259   8.638   0.543  0.2487 -0.0853 -0.1863
 9001W        W24810  10.866   3.593   4.625 -0.3255 -0.0003  0.0150
 9002W        W24811   6.093  11.405   0.132 -0.1661 -0.2794 -0.0866
 9003W        W24812  16.987  14.851   2.563  0.0333 -0.0142 -0.2987
 9004W        W24813   7.721   2.525   5.173 -0.2305 -0.0616  0.3601
 9005W        W24814   0.922  16.251   4.218 -0.0677  0.1616  0.0034
 9006W        W24815  15.413  15.124   0.012 -0.1431 -0.0936  0.0283
 9007W        W24816  11.278  18.613   4.497  0.2250 -0.0853  0.1020
 9008W        W24817  12.721  16.155   4.893 -0.1019 -0.0116 -0.0319
 9009W        W24818  11.502   9.597   0.130  0.1168 -0.1153 -0.0054
 9010W        W24819   8.075   8.098  13.873 -0.0446  0.2222 -0.2780
 9011W        W24820   2.123  12.644  13.441 -0.1212 -0.1321  0.0041
 9012W        W24821  15.615   8.860   1.118  0.0302  0.1985 -0.2979
 9013W        W24822  17.036  14.653  13.204  0.0787 -0.0505  0.0141
 9014W        W24823  14.037   0.914  10.895 -0.1450  0.1244  0.0973
 9015W        W24824   3.009   3.548  12.997 -0.2140 -0.1414  0.2132
 9016W        W24825  12.709   1.114   0.866 -0.2857 -0.1072  0.2185
 9017W        W24826   5.704   9.719   4.312 -0.5102 -0.1918 -0.0457
 9018W        W24827   9.251   5.511   2.553  0.1070 -0.3864  0.0383
 9019W        W24828  10.026   0.603   2.493  0.2666  0.3421  0.1849
 9020W        W24829   0.953  11.835  12.129  0.0780 -0.1591  0.0352
 9021W        W24830  15.748  12.771   1.786  0.0593 -0.1109  0.1533
 9022W        W24831  14.852  12.324  10.934  0.1008 -0.1148 -0.0995
 9023W        W24832   1.561   6.513  12.589 -0.0580  0.1586 -0.0061
 9024W        W24833   5.047  15.670   3.370 -0.2307  0.2247  0.2222
 9025W        W24834   7.473  18.374   1.420  0.2285 -0.1555  0.1947
 9026W        W24835   0.409  10.584   1.428  0.0042 -0.0821  0.1468
 9027W        W24836   8.263   9.157   2.892  0.2201 -0.1940 -0.1363
 9028W        W24837   0.576  10.098   3.334  0.0911  0.4502  0.0793
 9029W        W24838   7.011   8.010  11.431 -0.1910  0.0566 -0.1281
 9030W        W24839   0.827   9.391  11.235  0.3372  0.0209  0.0450
 9031W        W24840  18.789  14.045  13.484 -0.3098 -0.0518  0.2078
 9032W        W24841   0.426  13.308  10.802 -0.0562  0.1328 -0.2998
 9033W        W24842   7.794  16.014   4.667 -0.0486 -0.1546  0.0786
 9034W        W24843   0.815   9.029  13.758 -0.0321 -0.0355 -0.2244
 9035W        W24844  14.077   4.639  15.384  0.3438  0.0919  0.0592
 9036W        W24845  12.928   7.675   1.418  0.0582 -0.1548  0.3099
 9037W        W24846   9.771   2.832   2.682 -0.1801  0.0625  0.0467
 9038W        W24847   0.246   3.304  11.643  0.1010 -0.0281 -0.1130
 9039W        W24848  12.351   4.548   1.237 -0.2119 -0.2233  0.0114
 9040W        W24849   2.487  18.195   0.767  0.0361 -0.0407  0.2385
 9041W        W24850   3.264  11.131  10.387  0.0994 -0.4389 -0.2569
 9042W        W24851   1.831   3.472   2.922  0.0609  0.0870  0.0560
 9043W        W24852   5.964   9.048   4.164  0.3635 -0.2254  0.2720
 9044W        W24853  18.684   3.434  12.608  0.2203 -0.1899  0.0232
 9045W        W24854   7.258  14.975   0.384 -0.0973  0.1586 -0.1838
 9046W        W24855   5.772  16.158   3.211  0.1090  0.0218 -0.2477
 9047W        W24856  18.782  17.725  12.567 -0.0180  0.2840  0.1687
 9048W        W24857   6.456  17.776   0.074  0.1290 -0.0980 -0.2140
 9049W        W24858  10.092  17.844   1.782 -0.1837 -0.0741 -0.0897
 9050W        W24859   4.105   3.572   2.396 -0.1929 -0.0949 -0.0212
 9051W        W24860  13.658   2.558   4.048  0.2101 -0.3691  0.3902
 9052W        W24861   1.752  13.079  10.152  0.0382  0.2667 -0.1568
 9053W        W24862   1.839  10.298   1.845 -0.0853  0.3149 -0.0345
 9054W        W24863  12.166   7.577   3.653 -0.1333  0.0143 -0.1895
 9055W        W24864  18.143  15.116  11.673 -0.3046 -0.0133  0.0155
 9056W        W24865  13.105   3.983   4.962  0.1757 -0.3058  0.0503
 9057W        W24866  12.594  18.885  12.944 -0.0011 -0.0057  0.5703
 9058W        W24867  15.203   6.736   1.522  0.0383 -0.3556  0.0763
 9059W        W24868  17.944   8.927  14.420 -0.0640 -0.0675  0.0730
 9060W        W24869  11.111   2.143   5.728 -0.0456  0.0690  0.2491
 9061W        W24870   1.796  17.439  11.892 -0.1070  0.0437 -0.3366
 9062W        W24871  10.691  15.901  12.883 -0.2143  0.2273 -0.4086
 9063W        W24872   2.883  12.414  11.273  0.0831  0.1986  0.0022
 9064W        W24873   8.504  18.380  12.296 -0.5217  0.0518  0.1307
 9065W        W24874  15.745   1.449  13.346 -0.2638 -0.0167 -0.0792
 9066W        W24875   3.340   5.040  14.595 -0.0537  0.3462  0.5149
 9067W        W24876   0.052   2.420   3.148 -0.1626  0.0877  0.0035
 9068W        W24877  12.183   2.058   3.535  0.1580 -0.0968 -0.0027
 9069W        W24878   0.101   7.009   0.494  0.0604  0.0582 -0.2091
 9070W        W24879   2.779  12.419   4.047 -0.0469 -0.1974  0.0998
 9071W        W24880   4.725  17.311   4.233  0.1118  0.0444 -0.1150
 9072W        W24881   8.818   5.857  15.032 -0.0338  0.0559  0.1434
 9073W        W24882   5.563   6.848   5.060  0.0983 -0.3081  0.1168
 9074W        W24883   9.647  12.101  13.764 -0.2068  0.2675 -0.0198
 9075W        W24884   4.650  18.684  14.208  0.0956 -0.1261 -0.0102
 9076W        W24885   0.295   1.906  14.142 -0.0338  0.3022 -0.4429
 9077W        W24886  15.436   6.770   3.619  0.1328  0.0529  0.2837
 9078W        W24887   6.987  15.994   3.238 -0.0414 -0.1028 -0.0275
 9079W        W24888   8.050  18.052   3.547  0.1286  0.1889 -0.3261
 9080W        W24889  16.632  12.955  12.651  0.1030  0.2531 -0.1310
 9081W        W24890   1.677  10.085  13.989  0.1272 -0.1762 -0.0635
 9082W        W24891  13.213  17.733  12.717  0.1674  0.2864 -0.0472
 9083W        W24892  10.691   9.618   1.786  0.0343  0.0198  0.2633
 9084W        W24893   1.013   8.119  11.992 -0.1052  0.4511  0.0115
 9085W        W24894   2.150   1.872   3.071 -0.2781 -0.1401  0.2894
 9086W        W24895   1.242  14.197  10.948 -0.0494  0.2320 -0.2443
 9087W        W24896   7.783  11.551   1.672 -0.1056  0.0124 -0.2193
 9088W        W24897   9.873   9.003   1.396  0.1475  0.0205 -0.0541
 9089W        W24898   5.146   8.393  12.237  0.1592 -0.0991 -0.0309
 9090W        W24899  15.030  12.930   4.302  0.1214  0.1656  0.3510
 9091W        W24900  10.955   0.266  10.769 -0.2926 -0.1289 -0.0808
 9092W        W24901   5.608  11.710   3.159  0.0324  0.1124  0.3555
 9093W        W24902  16.704   3.062  12.973 -0.1424  0.1329 -0.0777
 9094W        W24903   1.917   2.667   4.288 -0.0965 -0.0206 -0.1887
 9095W        W24904   9.524   6.315  15.010 -0.2064  0.3503  0.1987
 9096W        W24905  14.073   6.960   5.726  0.3258 -0.0762 -0.2328
 9097W        W24906  13.432  15.367   0.325 -0.1332  0.1747  0.0014
 9098W        W24907   9.497   8.374  13.981  0.0927  0.1473 -0.0545
 9099W        W24908   0.418  11.861  14.447  0.2868 -0.2392  0.0058
 9100W        W24909   8.598  13.588   1.289  0.0934  0.0517  0.0228
 9101W        W24910  18.424   4.009   1.908 -0.0892  0.0994  0.0133
 9102W        W24911   5.755  10.795  14.298  0.0314 -0.0756 -0.0522
 9103W        W24912   5.548   9.623  10.628  0.1157  0.0722  0.3182
 9104W        W24913  18.542  16.529  13.297  0.0551 -0.0052  0.0254
 9105W        W24914   5.918  10.195   0.891 -0.0562 -0.0607 -0.2913
 9106W        W24915   8.441  16.756   5.203  0.1906  0.0042 -0.0094
 9107W        W24916   8.569   0.951  11.105  0.0443  0.2927  0.1934
 9108W        W24917   1.668   3.987   2.996 -0.0413  0.0325 -0.0467
 9109W        W24918  12.562   9.948   3.714 -0.0806  0.4832  0.0450
 9110W        W24919  11.246   1.781   1.103  0.1803  0.0398  0.0134
 9111W        W24920   4.493  16.671   0.572 -0.2948  0.1603 -0.3172
 9112W        W24921   9.299  17.321   1.152 -0.0405 -0.2641 -0.1213
 9113W        W24922   7.454   8.100   1.763  0.0156 -0.1606 -0.0289
 9114W        W24923  10.426  10.469   5.150 -0.2709  0.0615  0.2077
 9115W        W24924  11.958   3.947   3.313 -0.0556 -0.1875  0.0446
 9116W        W24925   6.979  11.749  11.865 -0.2119 -0.1106  0.2921
 9117W        W24926  10.462   2.048   2.822 -0.2424  0.5248  0.0843
 9118W        W24927   1.639   0.603   0.625  0.2318 -0.2695 -0.2787
 9119W        W24928   1.641  11.171   4.264  0.0964  0.3377 -0.0917
 9120W        W24929  17.229   8.124   2.072 -0.2894  0.0335 -0.0361
 9121W        W24930  13.357   0.380   5.113  0.1922 -0.0999  0.0674
 9122W        W24931   1.676   8.002   4.708  0.4202  0.2008  0.0230
 9123W        W24932   2.172   3.953   1.649 -0.0563  0.0018 -0.1965
 9124W        W24933   6.709   5.145  10.987 -0.3796  0.1699 -0.3071
 9125W        W24934   6.891  12.478   2.469 -0.2161 -0.0023  0.0644
 9126W        W24935   7.928   4.587   3.806 -0.2450  0.2809  0.0534
 9127W        W24936  18.878   0.542  11.301  0.0135  0.0353 -0.3828
 9128W        W24937  13.926   9.832   1.772 -0.1919 -0.1866 -0.0501
 9129W        W24938   9.967   9.026  11.778  0.1518 -0.2469 -0.0332
 9130W        W24939  17.811   2.473   1.663  0.0413  0.2597 -0.0306
 9131W        W24940   0.583   0.971  13.707  0.0966 -0.1258  0.1464
 9132W        W24941   7.035  16.362   2.104  0.0952 -0.1923 -0.1759
 9133W        W24942   2.586  13.596  13.836  0.4349  0.1815 -0.1967
 9134W        W24943  13.236   8.802   3.090 -0.2125  0.0755 -0.1589
 9135W        W24944   1.653   4.653  11.693  0.2288  0.1202 -0.0084
 9136W        W24945   6.902   8.714  12.625 -0.0319  0.0061  0.3347
 9137W        W24946   5.970  17.405   1.987  0.2048 -0.0302 -0.1548
 9138W        W24947  12.788  17.458  10.825 -0.1525 -0.0096  0.0253
 9139W        W24948  10.443   8.852   3.594 -0.0198 -0.2380  0.3406
 9140W        W24949  14.818  17.015   3.254  0.2791  0.0986  0.3654
 9141W        W24950  18.548   5.050  14.077  0.0110 -0.0933  0.0399
 9142W        W24951  17.261   9.068   4.983 -0.0493 -0.0932  0.1308
 9143W        W24952  18.092   2.117  13.453 -0.0701  0.3606  0.0817
 9144W        W24953  12.360   0.894  14.636  0.2306  0.2259  0.0766
 9145W        W24954  13.508   1.562  12.092  0.1694 -0.2132  0.2967
 9146W        W24955   3.365  18.805   2.791 -0.1093 -0.0399 -0.1857
 9147W        W24956  15.816   0.557   1.812  0.0580  0.2419  0.1706
 9148W        W24957   2.946   0.255   2.058  0.0106  0.0037  0.0226
 9149W        W24958  13.480  17.188   1.544  0.1346  0.1150  0.0097
 9150W        W24959  18.891  18.604   1.866  0.2953  0.0965  0.1236
 9151W        W24960  12.950   8.878  12.295  0.0245 -0.0905 -0.3162
 9152W        W24961   8.679   7.907   2.966 -0.1246  0.0650 -0.1340
 9153W        W24962  10.863   2.596  14.360 -0.0852  0.2035  0.0085
 9154W        W24963   8.568   1.513  11.576  0.1385 -0.2314  0.0403
 9155W        W24964   3.291  12.051  13.042 -0.1810  0.4626  0.1244
 9156W        W24965  11.276   3.707  11.334 -0.0851  0.0359  0.2422
 9157W        W24966   3.845  17.183  13.596 -0.2736 -0.1540 -0.3784
 9158W        W24967  16.709  18.423  12.982 -0.1248 -0.4184 -0.0466
 9159W        W24968  15.802   9.336   1.036  0.4205  0.1088  0.0311
 9160W        W24969   3.097  14.820   3.698  0.1642  0.0851 -0.1502
 9161W        W24970   9.584   9.619  10.819 -0.1661 -0.1891  0.2731
 9162W        W24971   1.418   9.288   0.816  0.2049 -0.1093  0.1310
 9163W        W24972   5.888  14.858   4.480  0.1795 -0.0070 -0.0725
 9164W        W24973   4.478   9.608   2.933 -0.0324  0.2576 -0.0995
 9165W        W24974  11.702   5.022  13.370 -0.3492 -0.2628  0.4510
 9166W        W24975  11.538   5.726   3.764 -0.0535 -0.3081 -0.1900
 9167W        W24976   1.115   0.892  14.980 -0.3745 -0.3098  0.0909
 9168W        W24977  10.507   0.924   3.714 -0.1137 -0.1571 -0.1406
 9169W        W24978  13.683   9.275   0.235 -0.1193  0.1867  0.0369
 9170W        W24979  10.391   6.186   1.292  0.3688  0.4043  0.2136
 9171W        W24980  17.783   8.805   0.303  0.0275  0.1724 -0.0525
 9172W        W24981   6.913  10.566  13.263 -0.1865  0.1300 -0.1521
 9173W        W24982  15.008   1.185  12.687  0.0383 -0.1869  0.2944
 9174W        W24983  15.618   2.998   5.175 -0.1114  0.2569 -0.0361
 9175W        W24984  11.753   6.971   4.662 -0.3719  0.1896  0.1918
 9176W        W24985   2.540  11.393  11.510 -0.1120  0.1397  0.0132
 9177W        W24986  11.338  15.716  13.905  0.1203  0.1064  0.1643
 9178W        W24987   0.019  14.437  14.432  0.0392 -0.1430 -0.1391
 9179W        W24988  10.184  18.120   4.412  0.0582 -0.0112  0.1661
 9180W        W24989   3.883  13.902   2.280  0.0047 -0.0799  0.2151
 9181W        W24990   4.629   8.666   4.907  0.1862 -0.1158 -0.2100
 9182W        W24991  13.418  18.712  13.826  0.1407  0.1528 -0.0266
 9183W        W24992  15.920   7.829  15.018 -0.0769  0.1261 -0.1290
 9184W        W24993   9.387   3.371   0.906 -0.2853 -0.1616  0.0436
 9185W        W24994  16.811   2.415   2.651 -0.2936  0.2323 -0.0869
 9186W        W24995  12.846  18.810  13.681  0.0977 -0.2152 -0.1628
 9187W        W24996   4.397   1.077  13.571  0.0047  0.0764  0.0447
 9188W        W24997   3.006  12.915   3.967  0.1461 -0.0909 -0.0717
 9189W        W24998  18.231  11.165  14.621  0.0269 -0.5503 -0.1435
 9190W        W24999  17.782   8.105  15.066 -0.0109 -0.2740  0.0635
 9191W        W25000   2.035   7.445  11.581 -0.1524  0.1279 -0.2051
 9192W        W25001   7.548   6.943   2.960  0.1804  0.0534 -0.2742
 9193W        W25002   0.889   7.697   1.603 -0.1083  0.2938 -0.2214
 9194W        W25003   2.053   1.353   2.918  0.2097 -0.0232  0.1759
 9195W        W25004  10.944  12.072  14.648  0.0195 -0.1938 -0.1119
 9196W        W25005  11.146  12.851   3.741  0.1120 -0.1802  0.1095
 9197W        W25006  15.883   3.372   1.572  0.1359  0.0596 -0.2597
 9198W        W25007   9.805  18.713   0.019  0.1120 -0.2037 -0.1732
 9199W        W25008   4.697  13.574  10.581  0.2058  0.1199  0.1049
 9200W        W25009   2.653   0.775   4.065  0.1724  0.1703 -0.0986
 9201W        W25010   0.711  12.373   1.707 -0.0777 -0.0646  0.1468
 9202W        W25011   6.896   0.387   2.538  0.1233  0.6567 -0.0816
 9203W        W25012  14.174   1.764  11.341 -0.1102  0.0120  0.1478
 9204W        W25013  12.954   0.246  12.790  0.0153  0.1210 -0.0632
 9205W        W25014   7.550   6.953  11.295  0.0278  0.4608 -0.5502
 9206W        W25015   6.052   0.121   2.955  0.0557 -0.3620  0.0122
 9207W        W25016   1.104  16.983  14.369 -0.0026 -0.2369 -0.0333
 9208W        W25017   2.097   2.969  14.802 -0.3053 -0.4692 -0.1236
 9209W        W25018   6.367  13.941   3.747 -0.4871  0.1749 -0.1981
 9210W        W25019   0.573  14.918   4.750 -0.0974 -0.2039 -0.1863
 9211W        W25020  13.378   4.509  13.352 -0.1157  0.1193 -0.2717
 9212W        W25021   8.559  10.345   2.670 -0.3130 -0.3240  0.2940
 9213W        W25022   5.388  14.061   5.065 -0.0829  0.1442  0.1546
 9214W        W25023   9.973  10.372  14.916  0.2080 -0.0216 -0.0906
 9215W        W25024  13.970  13.604  14.662 -0.2909  0.1259 -0.2439
 9216W        W25025  13.347   0.113  13.487 -0.0417  0.0222 -0.0815
 9217W        W25026  16.245   9.407   1.345  0.2765  0.0369  0.2208
 9218W        W25027  11.792   7.067  14.765  0.2811  0.1167  0.0298
 9219W        W25028  15.264  14.468  13.944 -0.4207 -0.1485 -0.0043
 9220W        W25029  16.119  11.323  13.862 -0.0885 -0.2447 -0.2286
 9221W        W25030  12.538   5.696   2.888  0.1557  0.1001  0.1419
 9222W        W25031  10.239  15.254   5.180  0.3259  0.2940 -0.0638
 9223W        W25032  11.284   4.267  13.520  0.1587 -0.1678  0.2423
 9224W        W25033  15.874  15.420   3.786  0.1192  0.2915 -0.0194
 9225W        W25034  17.774   6.079   4.805 -0.2553  0.1207  0.1432
 9226W        W25035  10.574   7.284   5.058  0.2090  0.2824  0.0454
 9227W        W25036   1.421   7.515   0.679  0.3787 -0.0487 -0.0220
 9228W        W25037  12.902   7.643  10.926 -0.2700 -0.1377  0.2540
 9229W        W25038   9.018  16.914  10.547 -0.2013 -0.0063 -0.2470
 9230W        W25039  12.793  13.929  13.111  0.1846  0.3029  0.1051
 9231W        W25040   8.735  11.860  13.355 -0.1675  0.1410 -0.1016
 9232W        W25041  12.257   3.485   0.910  0.0507  0.1649 -0.2383
 9233W        W25042  11.743   0.057  11.956  0.1192 -0.2716  0.1164
 9234W        W25043  16.176   3.291  12.840 -0.4387  0.1292 -0.0812
 9235W        W25044  12.583  14.079   3.968  0.2258  0.1031 -0.1150
 9236W        W25045   6.917  10.224  11.716 -0.0528  0.0532 -0.1391
 9237W        W25046   7.400  17.164  14.015  0.0863 -0.0855  0.0631
 9238W        W25047   6.065   9.058  11.022 -0.2359  0.1740  0.4022
 9239W        W25048   4.030  17.946   0.045 -0.2108 -0.2718  0.0454
 9240W        W25049  18.699  13.000   3.236  0.0923  0.1380 -0.1846
 9241W        W25050  13.125  15.274   5.769  0.0699 -0.0642  0.1310
 9242W        W25051  12.649   9.185   4.299  0.0606 -0.1776  0.3975
 9243W        W25052   3.363   9.950  11.972 -0.1742  0.0878  0.2951
 9244W        W25053  15.789   8.602  15.324  0.2854  0.0811 -0.0425
 9245W        W25054  10.646   7.220  10.303 -0.4544 -0.0584 -0.0971
 9246W        W25055   0.920  15.924  13.853 -0.3498 -0.0219 -0.2659
 9247W        W25056  11.656  16.011   3.251 -0.2984 -0.0891 -0.0753
 9248W        W25057   2.659   2.056  13.240  0.1000  0.2515 -0.0996
 9249W        W25058  12.535   7.386   2.667  0.0986  0.0461 -0.1263
 9250W        W25059  13.364   3.616   2.268 -0.3222 -0.1025 -0.0010
 9251W        W25060  16.036  11.711   0.754  0.0771 -0.3610 -0.1508
 9252W        W25061  15.967   6.320   1.405 -0.0046 -0.2810 -0.0261
 9253W        W25062   7.998  15.428   3.528  0.2247 -0.3790  0.5795
 9254W        W25063  14.542   7.319   2.138 -0.2153 -0.2739 -0.0488
 9255W        W25064   0.550   1.453  13.929 -0.2113 -0.1711 -0.0553
 9256W        W25065  18.438  14.424  14.630 -0.0079  0.0253  0.0792
 9257W        W25066   6.979   4.244   4.401 -0.0597 -0.0468  0.5185
 9258W        W25067   6.380  17.590   3.306  0.6001 -0.2036  0.0940
 9259W        W25068   1.317   9.473  12.194  0.1468  0.0696 -0.1835
 9260W        W25069  11.100   2.242   0.918 -0.2327 -0.3596  0.1670
 9261W        W25070   6.046   8.641  15.066 -0.1372  0.1229 -0.0203
 9262W        W25071   4.308  14.691  14.837 -0.0957 -0.2759 -0.1493
 9263W        W25072   4.117   6.257  11.086 -0.4576 -0.1282 -0.1442
 9264W        W25073  12.190   6.748  12.210  0.0916  0.1778  0.0043
 9265W        W25074  11.238  10.461  12.104  0.0193 -0.2830  0.2595
 9266W        W25075  15.872   2.992   0.767  0.1232 -0.0504  0.2509
 9267W        W25076  16.622   8.008  14.312  0.0169 -0.3433 -0.1782
 9268W        W25077  10.975  12.353  15.108  0.2039 -0.1814 -0.0707
 9269W        W25078   4.712  13.662   2.640  0.1797 -0.1609  0.0977
 9270W        W25079  15.412  14.298   4.445 -0.1894  0.2328  0.2115
 9271W        W25080   5.178  11.281  12.527  0.2288  0.0955 -0.0282
 9272W        W25081  12.835   3.604   0.959  0.0292  0.0139 -0.2399
 9273W        W25082   8.076   0.391   0.637 -0.0511  0.1641  0.4582
 9274W        W25083   4.715   6.058   4.475 -0.2708 -0.1756  0.0397
 9275W        W25084   1.488  15.196   5.049  0.1129 -0.1850  0.1791
 9276W        W25085  17.986   3.975  11.017 -0.1902 -0.1397 -0.3175
 9277W        W25086  12.627  11.001  13.136 -0.1520 -0.1253  0.1304
 9278W        W25087  16.947   8.010   3.257  0.0170  0.0871  0.0959
 9279W        W25088  14.977  18.183  15.104  0.0832  0.0644  0.1578
 9280W        W25089  10.561  16.187  13.290 -0.1703  0.0561 -0.0510
 9281W        W25090   9.974  15.835  14.585 -0.0589  0.0840  0.0856
 9282W        W25091  10.377   9.115   4.647 -0.0560  0.2717 -0.0767
 9283W        W25092   7.774   6.528  13.852  0.0991 -0.5234 -0.1291
 9284W        W25093  11.701   4.765   0.215 -0.1014 -0.0305 -0.0120
 9285W        W25094   5.826   0.947  14.609  0.1404  0.1469  0.0190
 9286W        W25095   4.889   2.863   3.283  0.0906  0.3383  0.4629
 9287W        W25096  15.561  15.421   1.665 -0.3742  0.2447 -0.1565
 9288W        W25097   9.080   4.190  13.013  0.1875  0.1510 -0.1208
 9289W        W25098   0.718   4.407   5.571 -0.0205  0.2199  0.1774
 9290W        W25099   0.484   3.535   3.159  0.0792 -0.0263  0.4902
 9291W        W25100  17.610   6.078   1.639  0.1984 -0.2168  0.2762
 9292W        W25101  18.428   8.063   1.933  0.1672  0.1640  0.0661
 9293W        W25102  17.384   7.795   3.406 -0.2202  0.0988 -0.0657
 9294W        W25103   0.033  18.712   5.029  0.0622 -0.0004  0.1506
 9295W        W25104   6.412   0.674   4.607 -0.2795 -0.0436 -0.4613
 9296W        W25105   5.107   7.234  12.439  0.1842  0.1833 -0.2418
 9297W        W25106   2.057   8.584   0.199 -0.0873 -0.0141 -0.2934
 9298W        W25107  14.109  10.508  12.856 -0.1022 -0.0481 -0.1519
 9299W        W25108   7.631  16.856   4.853  0.2015 -0.0308  0.0271
 9300W        W25109  12.188  17.379  14.300 -0.0885  0.0650  0.1999
 9301W        W25110  12.950  12.122   0.572 -0.0466  0.1403 -0.0956
 9302W        W25111   7.255  12.124  10.579 -0.0177  0.1693 -0.3181
 9303W        W25112   6.606   0.722  14.385  0.2760 -0.0006 -0.2357
 9304W        W25113   9.924   6.477   0.716 -0.2454 -0.0613 -0.0863
 9305W        W25114   2.168   4.824   5.845  0.0986 -0.0967 -0.0845
 9306W        W25115   0.035   4.920   2.323 -0.0671  0.3073  0.2087
 9307W        W25116   4.205   6.254   2.043 -0.1691 -0.1994 -0.1310
 9308W        W25117   5.090  18.231  10.304  0.0299 -0.3861  0.1066
 9309W        W25118   2.541   2.768  11.356  0.1390  0.2576 -0.2871
 9310W        W25119   3.658  15.732   0.200  0.1578 -0.3530  0.1265
 9311W        W25120  16.255  10.823   0.539 -0.1798 -0.1974 -0.0213
 9312W        W25121  15.771   4.135   3.155  0.0083 -0.0718 -0.4649
 9313W        W25122   8.351   7.616   5.086 -0.5905  0.2327 -0.4140
 9314W        W25123  15.216  16.302  11.940 -0.3039  0.0177 -0.4250
 9315W        W25124  18.809   9.515   3.870  0.0397 -0.2741 -0.1755
 9316W        W25125   8.303  18.353   1.384  0.2556 -0.1272  0.1700
 9317W        W25126   1.458   9.769  10.741  0.0387 -0.1682 -0.3275
 9318W        W25127  16.133   3.875  14.211 -0.2076 -0.0056  0.2423
 9319W        W25128   9.031  12.068  12.547  0.0193  0.3033 -0.1803
 9320W        W25129   3.704  17.453   0.249  0.1250  0.0565  0.1886
 9321W        W25130   0.951   5.837   3.715  0.1979 -0.0932 -0.0799
 9322W        W25131  15.578   0.841   9.800  0.2713 -0.0455  0.1697
 9323W        W25132   2.802  10.935   0.132  0.2110 -0.2830 -0.0818
 9324W        W25133  12.637   8.702   5.373 -0.5805  0.3529  0.1937
 9325W        W25134  13.641   7.455   2.158 -0.3361  0.0773 -0.0710
 9326W        W25135  17.999   5.372   3.502  0.0957 -0.2216  0.2005
 9327W        W25136   9.820   1.605  12.239  0.0761  0.1824  0.3312
 9328W        W25137   4.999  14.341  14.433 -0.2774  0.1677  0.2758
 9329W        W25138  15.388   2.563   4.320  0.2559 -0.1555 -0.1435
 9330W        W25139   0.544   3.882  15.247  0.2825  0.2764 -0.1192
 9331W        W25140   8.687  10.000   1.050  0.2558 -0.1778  0.2622
 9332W        W25141   7.656   2.306  14.411  0.2440  0.0313 -0.0027
 9333W        W25142   7.863   5.057  11.154 -0.4066 -0.2604 -0.1504
 9334W        W25143  15.273  15.582   1.326  0.1044  0.1196  0.1809
 9335W        W25144   5.391  18.758  13.697  0.1922  0.0757  0.1562
 9336W        W25145   4.813  15.124   0.095 -0.0788  0.3093 -0.4632
 9337W        W25146  11.519   0.968   4.224 -0.1946 -0.0741  0.1587
 9338W        W25147   7.741  13.902  11.489 -0.0767 -0.0037 -0.1513
 9339W        W25148  10.201  13.515   1.891  0.1642 -0.3694  0.1260
 9340W        W25149   5.327  13.944   3.840  0.3144 -0.1945 -0.1270
 9341W        W25150  14.332  17.815   1.619  0.1004 -0.1627 -0.3329
 9342W        W25151  17.656   3.233   1.129  0.0036 -0.1662  0.2429
 9343W        W25152   0.521   7.030   0.247 -0.1289 -0.1139 -0.0530
 9344W        W25153   8.425   8.363  15.149 -0.1931 -0.2061 -0.1488
 9345W        W25154   0.616   0.852  11.902  0.0332 -0.0448 -0.0231
 9346W        W25155   3.900  12.993  14.091 -0.2622  0.0771  0.1018
 9347W        W25156  15.407   8.864   3.457  0.2282  0.4514 -0.0027
 9348W        W25157   9.237  14.726  14.746  0.0879  0.0566  0.2865
 9349W        W25158   1.182  16.159  11.984  0.3152  0.2475 -0.0543
 9350W        W25159  13.138   8.653  10.812 -0.2265  0.0507 -0.1159
 9351W        W25160   1.142   6.138  12.048  0.1747  0.1079  0.1183
 9352W        W25161   9.501   6.129  12.413 -0.0429  0.2180 -0.1544
 9353W        W25162  14.670   6.582   2.757 -0.3142  0.1468 -0.2580
 9354W        W25163   0.928  13.636  10.164 -0.2285  0.0002  0.1995
 9355W        W25164   2.433   0.193   1.261 -0.0039  0.4229  0.0874
 9356W        W25165  12.137  11.108   2.966 -0.0287  0.2699 -0.0403
 9357W        W25166  12.387   4.043   4.195 -0.1343 -0.2187  0.0351
 9358W        W25167  11.696   2.327   2.292 -0.3356 -0.1646 -0.1864
 9359W        W25168   0.286  11.283   4.280 -0.0587 -0.1904 -0.0129
 9360W        W25169  10.871  16.919   4.965  0.0762 -0.3878 -0.2510
 9361W        W25170  18.702  13.311  12.090 -0.2539 -0.2922  0.2256
 9362W        W25171  13.130   5.779   4.529  0.0150  0.0573  0.2291
 9363W        W25172   8.994   0.433   3.347  0.1493  0.2173  0.1760
 9364W        W25173   6.870   7.298   2.597 -0.0315 -0.2585 -0.0410
 9365W        W25174  14.925   6.659   1.006 -0.2829  0.3319  0.2055
 9366W        W25175  14.037  18.136  12.465  0.5871  0.0271 -0.0810
 9367W        W25176  11.061   5.191  13.166  0.1491 -0.0726 -0.0907
 9368W        W25177   8.964  12.809  14.966  0.0054 -0.3266 -0.0300
 9369W        W25178   5.636  11.244  11.819  0.0501  0.2013 -0.1318
 9370W        W25179   8.030   3.297   4.052  0.0266  0.1285 -0.2240
 9371W        W25180  10.317  11.988   0.273  0.0707  0.2176  0.0909
 9372W        W25181  10.743   9.559  11.897  0.2119 -0.2600  0.3382
 9373W        W25182  11.339   0.894   1.616 -0.0416  0.2778  0.2276
 9374W        W25183  15.974   5.244   2.226  0.4733 -0.0108 -0.0488
 9375W        W25184   6.496   4.706  12.770  0.1438  0.0546  0.1268
 9376W        W25185   7.003   1.708  12.784  0.4281 -0.0327  0.1003
 9377W        W25186   7.331  16.021   2.298 -0.2675  0.2500 -0.3189
 9378W        W25187   1.630  13.375  14.808 -0.2308 -0.1070 -0.1286
 9379W        W25188   5.781   7.420   3.170  0.0896  0.0222 -0.0867
 9380W        W25189  11.857   8.361   0.174  0.0369 -0.1742 -0.4185
 9381W        W25190  12.947   1.450   0.286  0.0868  0.0819 -0.1342
 9382W        W25191  14.996  12.134   0.390 -0.3126  0.1527 -0.1789
 9383W        W25192   4.596   0.209   2.593  0.3662 -0.2755  0.2135
 9384W        W25193  18.372   2.858  13.928 -0.1317 -0.1302 -0.3341
 9385W        W25194  17.431  17.899   2.144  0.3104 -0.0525  0.1562
 9386W        W25195  11.948   6.647  14.522  0.0414 -0.0796  0.0105
 9387W        W25196   3.220   1.634   0.740 -0.0686 -0.4296  0.2789
 9388W        W25197  10.583   6.388  13.470 -0.2597 -0.0520 -0.2044
 9389W        W25198  15.447   0.771   5.070 -0.1503  0.0843  0.1886
 9390W        W25199  17.354  16.014   2.982 -0.1030 -0.1079 -0.1014
 9391W        W25200  16.464   4.169  14.651 -0.1078 -0.2558  0.1810
 9392W        W25201  17.102   5.559  12.210 -0.1927 -0.0410 -0.0014
 9393W        W25202   0.488  11.562   3.355  0.0838 -0.0599  0.0717
 9394W        W25203   4.297   1.248   3.710 -0.2246 -0.1304 -0.2265
 9395W        W25204   6.572   3.959  14.275 -0.1006  0.1753  0.1285
 9396W        W25205   9.441   7.062   3.041  0.0014 -0.0733  0.0509
 9397W        W25206   7.996   0.588  15.089 -0.1077 -0.2352 -0.0716
 9398W        W25207   7.744   4.749   2.390  0.0767 -0.2319 -0.2293
 9399W        W25208  16.372   6.532  12.478  0.1185 -0.2717 -0.0897
 9400W        W25209   4.618   7.241  11.509  0.1839 -0.0768  0.3562
 9401W        W25210  14.690   6.005  13.913 -0.1376 -0.0285  0.3589
 9402W        W25211  11.380  18.375  14.178 -0.1034 -0.0129 -0.3656
 9403W        W25212   1.342  12.986  13.595  0.0246  0.3689  0.3735
 9404W        W25213   9.934  11.127   4.733 -0.0370 -0.1298  0.0466
 9405W        W25214   7.573   8.636   1.911  0.0595 -0.2806  0.4140
 9406W        W25215  12.987   3.162  15.175 -0.2333  0.0365  0.1846
 9407W        W25216  18.744   1.130  10.705 -0.1320 -0.0467  0.0634
 9408W        W25217  14.634  15.606   1.586  0.3776  0.1037 -0.0460
 9409W        W25218  11.671  13.148  15.261  0.0774 -0.0408 -0.0713
 9410W        W25219   5.607  13.335   9.484 -0.1619  0.1550 -0.0543
 9411W        W25220  11.225   1.240  10.814 -0.1176 -0.1100 -0.2413
 9412W        W25221   6.659   6.626  10.892  0.3793 -0.0018  0.1321
 9413W        W25222  17.054   6.419   2.082 -0.1633 -0.0363  0.0289
 9414W        W25223   4.913   9.400   4.762  0.1467  0.2797  0.0101
 9415W        W25224  18.493   0.153   1.916 -0.0447  0.3224  0.2480
 9416W        W25225  10.468  16.928  14.006 -0.0524  0.1178 -0.0072
 9417W        W25226   1.601   5.284   5.141 -0.2828  0.2729 -0.0489
 9418W        W25227  10.813  17.638  12.249 -0.1644 -0.0526 -0.1369
 9419W        W25228  11.419   7.613  12.915  0.1587  0.0828  0.4923
 9420W        W25229   6.402   1.549   0.906 -0.1102 -0.1366 -0.0774
 9421W        W25230   9.015  16.756  13.756  0.0089  0.3183 -0.2148
 9422W        W25231  13.993  13.568   3.387  0.0304  0.2378 -0.1462
 9423W        W25232   8.597  10.078  12.439  0.0557  0.0219  0.1223
 9424W        W25233  18.020  10.455   0.614  0.3161  0.1169  0.1626
 9425W        W25234   9.983   2.679   1.432  0.0207  0.2116 -0.0411
 9426W        W25235   7.744   2.984   4.395 -0.3418 -0.3555  0.0340
 9427W        W25236   5.231  12.388   2.721  0.0091 -0.3262  0.0968
 9428W        W25237  15.700  12.433   0.904  0.0914 -0.1728  0.2570
 9429W        W25238  12.762  12.215   3.631  0.1705  0.1073  0.0550
 9430W        W25239   5.414   5.115  12.251 -0.1129  0.1452  0.2140
 9431W        W25240   4.062  11.669  10.108 -0.0681  0.1076  0.1893
 9432W        W25241   2.852   2.308  11.701  0.1453  0.0687 -0.0757
 9433W        W25242   4.747   2.970   2.038  0.0871 -0.0637 -0.2127
 9434W        W25243  13.806  15.859  14.446  0.2746 -0.1614  0.1681
 9435W        W25244   8.483  10.154  11.952  0.1808 -0.2010  0.1174
 9436W        W25245  16.051  14.057   0.140 -0.1281 -0.1423 -0.0426
 9437W        W25246  12.937   0.332   2.893  0.1863  0.1951  0.0355
 9438W        W25247  17.149   0.812  14.510 -0.1944 -0.0283  0.0873
 9439W        W25248   1.101  18.430   0.632 -0.0684 -0.1536 -0.0066
 9440W        W25249  14.506   3.889  12.308 -0.3579  0.1740 -0.2240
 9441W        W25250  15.093  13.106  15.273  0.0333  0.1862  0.0504
 9442W        W25251  18.248  10.144  12.549  0.1976 -0.1863 -0.0748
 9443W        W25252  12.848   3.704  15.243 -0.0101 -0.0153 -0.0375
 9444W        W25253   4.859  13.272  14.252  0.1787 -0.0315 -0.0579
 9445W        W25254   4.378  15.729   5.411 -0.1069 -0.1508  0.0887
 9446W        W25255  10.390  11.310  10.253  0.0478  0.1145  0.4939
 9447W        W25256   4.133  13.072  10.219  0.3221  0.0004  0.0362
 9448W        W25257  12.805  14.856  15.195 -0.0766  0.4368  0.0245
 9449W        W25258   1.854  13.451   2.407  0.0676 -0.4168 -0.0687
 9450W        W25259   9.166  18.732   2.512  0.3360 -0.2222 -0.1893
 9451W        W25260  18.311  16.431  15.276 -0.2046  0.3803  0.0817
 9452W        W25261  11.411  16.252  12.080  0.0126  0.2181  0.2387
 9453W        W25262  15.918   7.392  13.679 -0.2329  0.0732 -0.1556
 9454W        W25263  15.349  14.172   5.621 -0.1438 -0.1023 -0.1468
 9455W        W25264   4.631   8.406   1.397  0.0352 -0.0262  0.0916
 9456W        W25265  18.642   0.751  13.419  0.1494  0.1920 -0.3711
 9457W        W25266   8.697   4.959  10.872  0.1089  0.1824 -0.1458
 9458W        W25267  10.150  12.518   1.146 -0.0508 -0.0395  0.0190
 9459W        W25268   7.094   5.712  14.624 -0.3133 -0.0428 -0.0631
 9460W        W25269  14.894  14.669   3.460  0.1599 -0.2838 -0.0234
 9461W        W25270  15.852   9.059  11.349 -0.1812 -0.0464  0.1418
 9462W        W25271  16.255  18.265  13.660 -0.3330 -0.0617 -0.0496
 9463W        W25272   0.279  10.014   5.841  0.0306  0.2633 -0.3214
 9464W        W25273  10.469   3.238  15.382  0.0125 -0.0701  0.2396
 9465W        W25274  14.321  12.252  11.498 -0.1918  0.2519 -0.2981
 9466W        W25275   4.308   8.249  11.845  0.1059 -0.0233  0.3074
 9467W        W25276   5.217  16.874   1.720 -0.0122 -0.1165 -0.1029
 9468W        W25277  11.206  14.720   1.380  0.4296  0.0597  0.1100
 9469W        W25278   5.971   4.287   0.623 -0.2159  0.0256 -0.3513
 9470W        W25279  15.637  18.340   1.286  0.2060 -0.1501 -0.0057
 9471W        W25280   6.504   6.642  15.314  0.1106  0.0482  0.1254
 9472W        W25281   3.130   8.904   1.122 -0.0204 -0.1427  0.1664
 9473W        W25282   1.613  12.993  11.684 -0.1348  0.2146 -0.1337
 9474W        W25283   2.749   8.590  11.483 -0.3904  0.4708  0.1919
 9475W        W25284   6.455  10.437  15.075 -0.1407  0.0722  0.1215
 9476W        W25285   7.268  18.060  10.952  0.0916  0.0683  0.4133
 9477W        W25286   3.124   5.756   3.230  0.3770 -0.1911 -0.0237
 9478W        W25287  13.888   5.719   2.774 -0.2261  0.1303 -0.1895
 9479W        W25288  11.829  17.577  13.033 -0.0916 -0.0037  0.0121
 9480W        W25289   5.218   8.599  14.732  0.0467 -0.0648  0.1390
 9481W        W25290  12.012  16.385   2.954 -0.2178  0.1529 -0.0326
 9482W        W25291   9.008   8.144   5.375  0.1033  0.0362 -0.1522
 9483W        W25292  17.710  18.255  14.338  0.0207 -0.0674  0.4817
 9484W        W25293  12.911  12.941  11.856  0.2214  0.3598 -0.1013
 9485W        W25294   5.918   9.345   5.119  0.1269 -0.2083 -0.1242
 9486W        W25295  13.484  15.703  14.887 -0.1456 -0.1376  0.1277
 9487W        W25296   9.914   7.379   2.951  0.2154  0.1977 -0.0247
 9488W        W25297  15.545   5.261  15.321  0.1765  0.0227  0.0418
 9489W        W25298   6.942  14.835   2.266  0.0205  0.1807 -0.2565
 9490W        W25299   0.866   8.438  12.380 -0.0282 -0.2519  0.3473
 9491W        W25300   8.041  13.478   2.716  0.0077 -0.2730  0.2929
 9492W        W25301  14.913   0.469  14.238 -0.0004 -0.0983 -0.1287
 9493W        W25302  15.642  10.222  11.520 -0.1545  0.4691  0.0648
 9494W        W25303   2.504  15.464  11.711 -0.2226  0.0342  0.1470
 9495W        W25304  11.540  18.486   2.473 -0.1703  0.3125 -0.0360
 9496W        W25305   8.364   7.554   3.886 -0.0114  0.5730 -0.0174
 9497W        W25306   7.572  10.376   3.886 -0.1860 -0.1065  0.3529
 9498W        W25307  16.784   4.439  11.081 -0.0414 -0.1496  0.1278
 9499W        W25308  15.199   2.446   2.436 -0.0343  0.1703 -0.1356
 9500W        W25309   3.210  18.484  12.143  0.1087 -0.0207  0.3307
 9501W        W25310  11.282   7.181   3.442 -0.0127 -0.0179  0.0571
 9502W        W25311  18.377  14.893   1.767  0.0719  0.2161  0.1522
 9503W        W25312   2.917   5.336   3.430  0.2285 -0.0756  0.3017
 9504W        W25313  17.562  12.544   0.152  0.0099  0.3039  0.2699
 9505W        W25314  17.304  15.238  12.431 -0.1339  0.0786  0.1257
 9506W        W25315   3.867  16.047  10.261 -0.1144  0.1218 -0.2418
 9507W        W25316   2.850   1.404  11.703  0.2495  0.2570  0.1499
 9508W        W25317   9.218  10.631  13.672  0.0261 -0.2476 -0.1418
 9509W        W25318  10.925  10.461   5.386  0.2503  0.0197  0.3984
 9510W        W25319  16.455  14.566   4.679 -0.0835 -0.1943  0.0892
 9511W        W25320   8.916  18.735  14.492 -0.2519  0.2421  0.2396
 9512W        W25321  18.549  16.439   3.973 -0.4033  0.0175 -0.4628
 9513W        W25322   7.444   3.428  15.351 -0.0418  0.1339  0.2211
 9514W        W25323   9.244  14.225   0.811 -0.0071  0.2453 -0.0442
 9515W        W25324  14.244  11.833  12.262  0.1011  0.0725 -0.1816
 9516W        W25325  13.773  12.604   1.762 -0.1788 -0.0574 -0.0221
 9517W        W25326  16.821   0.416   0.823  0.1382  0.0947  0.0771
 9518W        W25327   9.991   9.473   4.817 -0.0021  0.0787  0.1402
 9519W        W25328   7.579   5.681  15.321  0.2122 -0.0497 -0.1291
 9520W        W25329   2.278  11.952  15.136  0.0700 -0.3019  0.0129
 9521W        W25330  16.832  10.190   3.786  0.0811  0.0194 -0.0499
 9522W        W25331  14.362   4.209   5.442  0.1036 -0.2780 -0.0429
 9523W        W25332   3.656  17.205   2.890 -0.0456  0.0616 -0.0710
 9524W        W25333   6.352   5.213  15.264  0.1242 -0.1350  0.1284
 9525W        W25334   8.085   2.810   2.822 -0.1382  0.3195  0.0147
 9526W        W25335   3.207   5.842   5.610 -0.1434  0.0070 -0.0987
 9527W        W25336   1.136   8.370  11.557  0.0173  0.3093 -0.2507
 9528W        W25337   2.051   3.982   2.557 -0.1291  0.1319 -0.0130
 9529W        W25338   9.751  15.050   3.464 -0.0122 -0.1307  0.1256
 9530W        W25339  10.525   6.952  13.625 -0.1425  0.1898  0.0106
 9531W        W25340  11.656   8.208  12.665  0.4321  0.1981 -0.1236
 9532W        W25341  15.961  16.051   2.926  0.1737  0.2759 -0.0452
 9533W        W25342  13.979  15.937   0.159  0.0222  0.1491 -0.2795
 9534W        W25343   4.875   2.209  10.842 -0.2661 -0.5615 -0.1202
 9535W        W25344   6.049  11.037   3.997 -0.3823 -0.0793  0.1389
 9536W        W25345   6.902   2.859   1.464 -0.2381 -0.0999 -0.0122
 9537W        W25346   2.280  12.101  13.565  0.0938  0.0331  0.1135
 9538W        W25347   4.804  15.948   2.976  0.0329 -0.3282  0.1027
 9539W        W25348  14.886  17.145  14.625 -0.1096 -0.2187 -0.0216
 9540W        W25349  18.323  16.806   4.415 -0.2810 -0.2661 -0.0397
 9541W        W25350   2.408  16.669   0.771  0.4684  0.0821 -0.0342
 9542W        W25351  15.648  18.407  13.024 -0.1485  0.2635  0.1777
 9543W        W25352  10.669   7.933   0.199  0.1534  0.1887 -0.0893
 9544W        W25353  12.319   9.380  11.444  0.0793  0.4156  0.0246
 9545W        W25354  13.412   5.721   2.092  0.2623  0.2627 -0.1397
 9546W        W25355  10.058   9.398   3.128  0.1840 -0.0182 -0.0111
 9547W        W25356   3.158   7.149   4.360 -0.4185  0.1634 -0.1431
 9548W        W25357   1.650  12.909   3.998  0.0507 -0.2477  0.0682
 9549W        W25358   3.231   9.555   4.359  0.0049  0.0595 -0.4002
 9550W        W25359   8.318  17.331   4.618  0.1043  0.2603 -0.0565
 9551W        W25360  11.813  15.591   2.978  0.2234 -0.4368  0.0462
 9552W        W25361  11.085   9.562   5.291 -0.0473  0.0495  0.0187
 9553W        W25362  12.803   8.594   1.498  0.1905 -0.2419  0.0996
 9554W        W25363   8.739   0.820  12.840 -0.0295  0.1149  0.6117
 9555W        W25364   1.740  14.448   3.625  0.0080  0.2007 -0.2012
 9556W        W25365  11.993   8.388  13.735 -0.1506  0.0802 -0.1424
 9557W        W25366  12.734  10.222  13.128  0.1765 -0.1046  0.0800
 9558W        W25367   7.683  15.922   1.354 -0.0412  0.3450 -0.2003
 9559W        W25368  12.391   3.876   2.679 -0.0011 -0.1950  0.1042
 9560W        W25369  12.631  10.827   0.573  0.1058 -0.3983 -0.1306
 9561W        W25370  17.594   0.295   1.324  0.1934  0.0875  0.3725
 9562W        W25371   3.498  12.677   2.055  0.2536  0.0008 -0.1045
 9563W        W25372  10.777   8.476  13.986  0.0509 -0.0933  0.0032
 9564W        W25373  13.735   6.559   1.693  0.1501  0.0898  0.0526
 9565W        W25374  18.540  14.200   2.485 -0.0404  0.0462 -0.3329
 9566W        W25375   3.468  12.707  10.481  0.0729  0.0955 -0.0622
 9567W        W25376  15.506   1.704  12.211 -0.0550 -0.1039 -0.1650
 9568W        W25377  13.286   2.301  14.406  0.0808 -0.2855 -0.0566
 9569W        W25378  18.338  14.061  10.439 -0.4021  0.0776  0.0967
 9570W        W25379   4.570   2.436  12.875 -0.0686  0.2728 -0.0808
 9571W        W25380   1.374   2.360  12.902 -0.0060  0.2275  0.0316
 9572W        W25381  16.049   7.556  12.799 -0.0739 -0.0610  0.0222
 9573W        W25382   2.113  12.191   0.156 -0.2381  0.0012  0.0185
 9574W        W25383   4.987   7.100   1.549 -0.0232  0.1936  0.0715
 9575W        W25384   0.840   3.429   2.062 -0.0504 -0.0584  0.0088
 9576W        W25385   1.724   2.917  10.743 -0.1246  0.0830  0.2064
 9577W        W25386  14.192  18.783   0.599  0.3440  0.0493 -0.2277
 9578W        W25387   7.890   5.058   3.633 -0.0410  0.1922 -0.1099
 9579W        W25388   0.567   2.265   1.155 -0.2217 -0.0370  0.3587
 9580W        W25389  15.071   7.618   1.476 -0.0080  0.4226 -0.1566
 9581W        W25390  16.709  12.231  15.255  0.0655  0.1120 -0.1066
 9582W        W25391  16.366  18.717   2.732 -0.4336  0.0700 -0.0271
 9583W        W25392   1.687  12.234   9.447 -0.0919  0.0930  0.1514
 9584W        W25393   5.589   6.209   3.975 -0.2414 -0.2092  0.1651
 9585W        W25394  14.913  10.029  15.131  0.0432 -0.0073  0.2438
 9586W        W25395   8.464   7.247  11.355  0.0903 -0.1423 -0.0175
 9587W        W25396   4.799  15.625   2.127 -0.3004 -0.0504 -0.3085
 9588W        W25397   8.647  14.407  14.634 -0.3403  0.0121  0.2744
 9589W        W25398  17.804   2.187   1.260  0.1594 -0.2332 -0.1576
 9590W        W25399   5.008   5.462  14.493  0.3544 -0.1286 -0.0324
 9591W        W25400  10.572  17.666  11.348 -0.0751 -0.0178  0.1808
 9592W        W25401   9.700  10.789   0.044 -0.3681  0.3220  0.1480
 9593W        W25402   3.527  13.424  14.228 -0.1635 -0.1119  0.1704
 9594W        W25403  12.420   3.740   1.443 -0.3049  0.2734 -0.1531
 9595W        W25404  11.990   4.092   2.188 -0.0705  0.3887  0.2179
 9596W        W25405  15.505   0.693  10.944  0.2884 -0.2739  0.3086
 9597W        W25406   8.791   9.724  14.629  0.1856 -0.1807  0.2768
 9598W        W25407   5.035   8.600   2.331  0.0950  0.1671 -0.3380
 9599W        W25408   5.311   2.722   0.472 -0.0985  0.0382 -0.1543
 9600W        W25409   6.277  15.078  11.284 -0.4251 -0.1701 -0.2685
 9601W        W25410   1.975  13.989  13.663 -0.3164  0.0322 -0.0142
 9602W        W25411  13.637   9.243   0.821  0.2476  0.0682  0.0457
 9603W        W25412   9.138   9.134   4.968 -0.2566  0.1382 -0.0956
 9604W        W25413  17.234   3.475   4.304 -0.2593 -0.1467 -0.2235
 9605W        W25414  13.068  13.824  15.436  0.0760 -0.2567 -0.3599
 9606W        W25415   0.936  15.720  11.957  0.1402 -0.2832 -0.0977
 9607W        W25416   6.892   1.167  14.402 -0.1732 -0.2830 -0.0613
 9608W        W25417  12.327   3.659   2.124 -0.1825 -0.0177 -0.0319
 9609W        W25418  11.281   1.332   0.843 -0.1025  0.0569 -0.0697
 9610W        W25419  15.582  13.301   2.690  0.0625  0.0499  0.2431
 9611W        W25420  14.974   9.739  11.184  0.1160 -0.0194  0.2100
 9612W        W25421  10.780   3.177   5.609  0.2424  0.2606  0.1341
 9613W        W25422  14.653   7.866  13.594 -0.1614 -0.2603  0.1172
 9614W        W25423  15.573  12.777  11.169 -0.0447  0.4075  0.2105
 9615W        W25424  16.007  17.507  13.785  0.1658  0.1373  0.2009
 9616W        W25425   7.622   6.112   2.104 -0.0874  0.0166  0.0412
 9617W        W25426   4.969   6.053   9.949 -0.0902 -0.2774  0.2186
 9618W        W25427   8.844  12.561   4.480 -0.1229 -0.2819  0.0616
 9619W        W25428   2.343  11.153  14.607 -0.1803  0.2753  0.2512
 9620W        W25429  14.067  18.768   4.165  0.0837 -0.2308 -0.2959
 9621W        W25430  15.709  17.371  14.258  0.0101 -0.0663  0.0304
 9622W        W25431   8.119   9.935   1.775 -0.2757 -0.2254  0.0742
 9623W        W25432   7.262   6.191  11.048  0.0873 -0.0975 -0.0770
 9624W        W25433   2.627  18.901   4.021 -0.1798  0.1834  0.2387
 9625W        W25434   5.652   9.882  15.045 -0.4279 -0.0114  0.1238
 9626W        W25435   1.186   6.139  12.590  0.2747  0.1966 -0.0490
 9627W        W25436   7.375  14.690  12.373 -0.0226 -0.2760 -0.3141
 9628W        W25437  14.549  10.915   1.389 -0.1357 -0.0150  0.2584
 9629W        W25438  10.822   3.071   1.821  0.1091 -0.3495 -0.0237
 9630W        W25439  14.728  12.840  13.865 -0.2218 -0.1534  0.2365
 9631W        W25440   4.972   8.363  15.328 -0.1027  0.2666 -0.1659
 9632W        W25441  11.222  10.725  14.677 -0.2561 -0.3525  0.2274
 9633W        W25442   8.920   3.589  12.226  0.0075  0.0848 -0.2855
 9634W        W25443   1.223  15.993   3.622  0.4137  0.0630  0.1873
 9635W        W25444  13.236  13.056  15.038 -0.3026  0.3858 -0.1637
 9636W        W25445  16.177  13.391   1.470 -0.1888  0.0738 -0.0303
 9637W        W25446  12.756  13.932  15.051  0.3285  0.1494 -0.1613
 9638W        W25447   6.276   8.717  13.308 -0.1620  0.0881  0.0974
 9639W        W25448   7.965   2.775   5.588  0.1253  0.2594 -0.0345
 9640W        W25449   3.735  16.731   0.995  0.1668 -0.0178  0.1808
 9641W        W25450   8.459  17.559  13.287  0.0814  0.1556 -0.0664
 9642W        W25451   7.571  15.072   1.329 -0.3845 -0.0732 -0.0105
 9643W        W25452  10.624   3.993   3.444 -0.0121  0.2575 -0.2897
 9644W        W25453   4.935   4.667   4.663  0.2296 -0.2074  0.1211
 9645W        W25454  15.407   2.491   0.336  0.1799 -0.0722 -0.2376
 9646W        W25455   7.750   2.018   4.070 -0.1077  0.0731 -0.3247
 9647W        W25456   6.722   1.056   4.604  0.1208 -0.2632 -0.2305
 9648W        W25457   5.779  12.534  13.987 -0.0194  0.1258 -0.2081
 9649W        W25458   2.098   0.259  14.319 -0.0074  0.0795 -0.3652
 9650W        W25459  11.078  10.122   3.930 -0.0592  0.0904  0.2575
 9651W        W25460  10.852  17.898  10.992 -0.1603 -0.0480 -0.1326
 9652W        W25461   0.825   4.210  14.354 -0.1858 -0.0374  0.2247
 9653W        W25462  14.061   9.071  12.786  0.2693  0.0309 -0.2871
 9654W        W25463  10.714   5.449   4.668  0.2701 -0.0981 -0.1918
 9655W        W25464  17.597   5.578   4.787 -0.0044  0.0789  0.4604
 9656W        W25465   0.374   9.156  14.419 -0.0227 -0.2362  0.0914
 9657W        W25466   9.687  18.193  15.288  0.2532 -0.0189  0.1475
 9658W        W25467   1.100   6.272   1.795 -0.2330  0.1204 -0.0956
 9659W        W25468   2.214  18.434  14.691 -0.0695  0.2178 -0.0396
 9660W        W25469  10.427   0.515   4.081 -0.0879 -0.1865 -0.1980
 9661W        W25470   0.490   4.406   3.567  0.0351  0.0863  0.1209
 9662W        W25471   6.625  16.954   0.310 -0.2252  0.0115 -0.0098
 9663W        W25472  16.324   5.223  14.287 -0.1237  0.0071  0.0785
 9664W        W25473  11.659  18.413  12.469  0.2404 -0.3309  0.1221
 9665W        W25474  13.079   4.481  11.919  0.0878  0.0951  0.0267
 9666W        W25475   9.196   2.182  11.610 -0.3637 -0.4187  0.0004
 9667W        W25476   2.965   9.984   5.820 -0.2972 -0.1281  0.2242
 9668W        W25477   7.315  11.601   5.296  0.0097  0.0561  0.1474
 9669W        W25478   9.383   2.953   5.850 -0.0263 -0.2650  0.2429
 9670W        W25479   5.855  15.628  11.919  0.0715 -0.0110 -0.1256
 9671W        W25480  18.196   2.512   2.951 -0.2093  0.1081  0.1687
 9672W        W25481   3.036  15.894  14.258  0.1018 -0.3186  0.0731
 9673W        W25482   0.458  16.633  13.590  0.0168  0.0292 -0.0236
 9674W        W25483  12.875   8.723  12.831  0.2144 -0.0391 -0.0339
 9675W        W25484  15.920  13.197  11.529 -0.1203 -0.0552  0.3285
 9676W        W25485   6.770  12.872  12.762 -0.2778 -0.0198 -0.3670
 9677W        W25486  15.564   6.097   4.397 -0.2867  0.1846  0.3822
 9678W        W25487  12.772   5.203  13.934 -0.0002  0.1948 -0.3594
 9679W        W25488  14.548  16.919   4.223  0.0637  0.0999  0.2569
 9680W        W25489  12.638   0.040  12.459 -0.1616 -0.2952  0.0923
 9681W        W25490  11.692  16.119  13.093 -0.2245  0.1719 -0.0245
 9682W        W25491   0.128   0.494   3.489 -0.4853 -0.0316  0.1128
 9683W        W25492   5.256  15.071  13.509 -0.0805 -0.0592  0.4781
 9684W        W25493   4.401   8.980   0.995  0.0695 -0.4053 -0.1141
 9685W        W25494   2.466  11.826  10.255 -0.1618  0.1216  0.0805
 9686W        W25495  11.728   6.772   1.685  0.0743  0.0921  0.2386
 9687W        W25496   1.688  16.911  15.419 -0.2114  0.2332 -0.1340
 9688W        W25497  12.924   1.809   4.991  0.2402  0.2315  0.0838
 9689W        W25498  11.077   4.332   3.374  0.2633 -0.2760 -0.0513
 9690W        W25499  15.868  12.132   0.358 -0.0379  0.2317 -0.0658
 9691W        W25500  18.605  13.473  11.454  0.3500  0.0239 -0.2429
 9692W        W25501  18.870  14.591   0.172  0.4557  0.2711  0.2401
 9693W        W25502  15.646  18.242  12.067  0.0925 -0.1037 -0.3481
 9694W        W25503  15.655  12.575  12.253 -0.1789  0.2168 -0.0376
 9695W        W25504  12.371   5.711  11.845  0.0299  0.1065  0.1094
 9696W        W25505  15.381   8.147  12.398  0.0883  0.0155 -0.2839
 9697W        W25506   7.857  10.087  11.337 -0.0325 -0.3718 -0.0449
 9698W        W25507   2.120   7.932  10.382  0.0833 -0.2462 -0.1287
 9699W        W25508  18.242  17.213   9.919 -0.4043 -0.2853  0.2496
 9700W        W25509  10.496  16.009  14.142  0.0459  0.3324 -0.1242
 9701W        W25510  11.525  12.827   0.337  0.2818  0.1253 -0.2191
 9702W        W25511   6.262  12.429   1.190  0.2245 -0.0825  0.0225
 9703W        W25512  17.547  18.164   9.967 -0.3171  0.0118  0.2764
 9704W        W25513  17.778  15.823  10.780 -0.2300 -0.4110  0.0059
 9705W        W25514   0.896  17.137  12.304 -0.2850 -0.5065 -0.0283
 9706W        W25515  12.442  16.344   3.759  0.3328  0.2949 -0.1788
 9707W        W25516  14.466   1.846   0.650 -0.2538  0.2996  0.0602
 9708W        W25517  16.671   8.005  11.154  0.4279 -0.0767  0.1255
 9709W        W25518   2.773   3.406   1.585 -0.1591  0.2020  0.1784
 9710W        W25519  15.972  16.827  11.418  0.1262 -0.0253  0.0838
 9711W        W25520  15.091  12.555  10.066 -0.1236  0.0776  0.5669
 9712W        W25521   3.462  10.857  13.847 -0.0413 -0.2182 -0.5525
 9713W        W25522   1.354  11.376   5.216 -0.2363 -0.0599  0.1866
 9714W        W25523   4.550   4.365   3.929  0.0162  0.1573 -0.0926
 9715W        W25524  12.105   1.373   5.093 -0.0673 -0.0484  0.1937
 9716W        W25525  11.532   7.310   0.752  0.0874 -0.3917  0.1217
 9717W        W25526  17.002   9.062   1.805  0.2403  0.0451  0.0232
 9718W        W25527  18.303   6.379   3.197  0.0495 -0.0509  0.0371
 9719W        W25528   2.979  16.572   1.553  0.5363 -0.0486 -0.0859
 9720W        W25529  18.909  11.500  11.957 -0.1467  0.0208  0.2788
 9721W        W25530  17.170  10.183  15.091  0.0684  0.0999  0.1131
 9722W        W25531  14.484   7.007   2.577  0.0072  0.0602 -0.0559
 9723W        W25532  10.657  15.301  12.467 -0.0689 -0.0123 -0.1408
 9724W        W25533   5.138  16.388   4.889 -0.1874 -0.0043  0.1687
 9725W        W25534   9.709  13.249   0.995 -0.3623 -0.2811 -0.0958
 9726W        W25535  16.553   9.348   3.023 -0.0556  0.0261 -0.1620
 9727W        W25536  12.553   7.690   1.081  0.1756 -0.1250 -0.0244
 9728W        W25537   6.991   8.381  11.743 -0.0440 -0.1372 -0.0575
 9729W        W25538  15.039   0.435   5.146 -0.1142  0.0048  0.2685
 9730W        W25539   0.789  17.095  13.509  0.0233  0.3957  0.2208
 9731W        W25540   1.258  12.440   1.744 -0.2643 -0.1223  0.0530
 9732W        W25541   7.073  11.145  10.667 -0.4124  0.4419  0.1371
 9733W        W25542   2.660   4.201   3.713  0.0390 -0.1205  0.1578
 9734W        W25543  14.201   7.108  10.595  0.0195 -0.0228 -0.1614
 9735W        W25544   7.246  11.830   2.023  0.0740  0.0709 -0.0921
 9736W        W25545   6.162  11.942   4.340  0.1944  0.0432  0.1808
 9737W        W25546   3.256  12.985  14.132 -0.0454  0.1879 -0.1513
 9738W        W25547  13.888   7.812  11.038 -0.0556  0.0931  0.1705
 9739W        W25548  11.896  17.719  13.894 -0.1019 -0.3576  0.0437
 9740W        W25549  18.765   3.212   4.812  0.0025 -0.1879  0.0849
 9741W        W25550  17.358  12.896  13.207 -0.1608 -0.1858  0.0848
 9742W        W25551   3.808   9.992  12.328 -0.0603  0.0340 -0.0234
 9743W        W25552  17.323  17.149  10.940 -0.1733 -0.2988  0.0437
 9744W        W25553   6.908   3.241   3.868  0.2006 -0.2616 -0.0272
 9745W        W25554  14.236  17.926   2.510  0.0029  0.3110  0.4462
 9746W        W25555   9.035  11.890  10.466 -0.1115 -0.1651 -0.0871
 9747W        W25556  18.283   9.865  14.375  0.2779  0.2240  0.0352
 9748W        W25557  14.693   1.799   0.213  0.0997 -0.0644 -0.2104
 9749W        W25558  10.671  17.815  10.495 -0.1115  0.0082 -0.0648
 9750W        W25559  14.989  14.279   9.407  0.0249  0.0707  0.4316
 9751W        W25560   9.965   6.221  12.140 -0.0069 -0.1049  0.0974
 9752W        W25561  15.097   7.440  10.616  0.0414 -0.0189 -0.1559
 9753W        W25562  16.312  17.701  11.940  0.0541 -0.1746 -0.2290
 9754W        W25563  15.236  12.064  10.889  0.0466 -0.0711 -0.2113
 9755W        W25564   0.683   4.076   3.162 -0.3129 -0.1150 -0.0878
 9756W        W25565   2.545   3.392   4.530  0.2270 -0.1607 -0.2692
 9757W        W25566  11.543   9.611  10.854 -0.2771 -0.0014  0.3278
 9758W        W25567   4.881   7.887   2.265  0.0010 -0.0700 -0.1430
 9759W        W25568   5.209   8.566  11.513 -0.0063 -0.1440  0.1194
 9760W        W25569  12.494   5.897  14.453 -0.3449  0.3965  0.0449
 9761W        W25570   0.728   7.204  12.957  0.0790 -0.0433  0.0593
 9762W        W25571   4.058  14.883   2.335 -0.1872  0.4595  0.1404
 9763W        W25572  15.824  16.646  10.884 -0.1089  0.3266 -0.0545
 9764W        W25573   8.615   7.118  15.032 -0.0399 -0.4209 -0.2676
 9765W        W25574   5.852  10.203   2.671 -0.2902 -0.3406  0.2106
 9766W        W25575   8.498  16.548  15.072 -0.0711  0.2532  0.3525
 9767W        W25576   1.030   7.500  13.236 -0.3345  0.1314  0.1488
 9768W        W25577   9.475  14.044   1.996  0.3232  0.2938  0.4230
 9769W        W25578  18.608  13.236   0.311 -0.3145 -0.3748 -0.0205
 9770W        W25579  12.172   0.494   0.282 -0.0638 -0.0483 -0.3394
 9771W        W25580   0.998  12.534  12.111 -0.0314 -0.1630 -0.0099
 9772W        W25581  17.223   6.376   2.796 -0.0821  0.1441 -0.2288
 9773W        W25582  16.408  17.906   4.340  0.0227  0.1316  0.2379
 9774W        W25583  17.415  16.738   2.152  0.2660 -0.1106  0.0013
 9775W        W25584  13.296  10.471   0.815 -0.5030  0.0520 -0.2522
 9776W        W25585  12.695   6.162  14.086  0.0349  0.0576 -0.1996
 9777W        W25586   9.876  18.319   2.049  0.0644  0.0682  0.0895
 9778W        W25587  10.833  11.534   1.080 -0.0674 -0.1688 -0.2319
 9779W        W25588  10.077  16.370  11.867 -0.0640  0.2145 -0.0356
 9780W        W25589   1.812  15.311   4.638 -0.1266  0.1894 -0.2803
 9781W        W25590   3.283   1.088  12.170  0.0482  0.1673 -0.2989
 9782W        W25591   8.690   3.242   5.627 -0.3188 -0.0197  0.0747
 9783W        W25592   8.532  11.082   5.818  0.1517 -0.0526  0.0343
 9784W        W25593   1.164   9.678   5.747 -0.1051  0.1788  0.1822
 9785W        W25594   8.856   1.094   0.500  0.2020 -0.2024  0.3230
 9786W        W25595  12.487  11.907  14.101 -0.1819 -0.3756  0.0660
 9787W        W25596  12.762  14.968   5.401  0.0695 -0.0274  0.2206
 9788W        W25597  13.100  18.233  12.944  0.2343  0.0383 -0.1565
 9789W        W25598   2.104   3.872   3.207  0.3716  0.4728 -0.1700
 9790W        W25599  12.715  16.256  12.512  0.3911  0.0618  0.0854
 9791W        W25600   1.646   3.541   4.504 -0.0494 -0.2118 -0.2190
 9792W        W25601  10.028   2.996  10.965  0.3247 -0.1080  0.4540
 9793W        W25602   8.939  18.384  11.521  0.2124 -0.0348 -0.2054
 9794W        W25603  15.770  14.244   3.526  0.1870  0.0717  0.1075
 9795W        W25604   0.500   9.188  10.141 -0.0170  0.2335  0.0050
 9796W        W25605  17.952   3.768   5.996 -0.0790  0.1753  0.2946
 9797W        W25606  10.983   0.141   1.086  0.1151  0.2214  0.1730
 9798W        W25607  15.541  15.008   4.724  0.0616  0.0833 -0.2738
 9799W        W25608   3.486  13.700   2.111 -0.0579  0.0209  0.0685
 9800W        W25609   2.928   0.116  12.537  0.0487 -0.5043 -0.1041
 9801W        W25610  10.187   4.640   3.159  0.0006 -0.0373  0.4783
 9802W        W25611  16.094  13.382  11.971 -0.0156 -0.1453  0.2145
 9803W        W25612  15.426   9.432  11.950 -0.3716 -0.1386 -0.0690
 9804W        W25613  12.207  18.060  11.995  0.0789  0.1678  0.0615
 9805W        W25614  18.778  17.826   0.174 -0.0415  0.0695 -0.0550
 9806W        W25615  15.771  10.436  12.981  0.0451  0.1054  0.5789
 9807W        W25616  16.659  11.571   4.199 -0.1346  0.0619 -0.3299
 9808W        W25617   7.065   5.660   0.207 -0.1554 -0.3661  0.1708
 9809W        W25618  18.101   3.153  14.833  0.0723 -0.1975  0.1816
 9810W        W25619   2.077  17.761  15.363  0.3164  0.0751  0.1464
 9811W        W25620   9.228   2.062  12.433 -0.0760  0.0414  0.0976
 9812W        W25621   7.440   2.260  14.932 -0.4239 -0.2183 -0.1808
 9813W        W25622  17.362  14.625   1.838  0.2021  0.0094 -0.2013
 9814W        W25623  10.566   7.733  13.277 -0.0519  0.2469 -0.1046
 9815W        W25624   8.666  18.036   2.960  0.0214 -0.3745  0.0260
 9816W        W25625   1.057   3.927   1.976  0.1773  0.0049 -0.2164
 9817W        W25626   0.566  10.040   0.533 -0.1784 -0.0896  0.1160
 9818W        W25627  18.083  18.083  11.743  0.0572  0.0795 -0.1733
 9819W        W25628  12.210  14.848  11.167 -0.1413 -0.3947 -0.1052
 9820W        W25629  14.342  15.220   1.503  0.1369 -0.1415  0.2337
 9821W        W25630   0.965   7.596   5.083  0.1649 -0.6019  0.0669
 9822W        W25631   7.629   3.589   2.645 -0.1422  0.3101 -0.5190
 9823W        W25632   5.607   4.325  11.991  0.0996 -0.1630  0.1735
 9824W        W25633   4.913  13.339  13.203 -0.2869  0.1006 -0.3703
 9825W        W25634   3.515  18.184  10.023  0.3151  0.0716 -0.3862
 9826W        W25635   6.785   8.014   1.092 -0.4800 -0.3205  0.1184
 9827W        W25636   4.010  18.370   1.184  0.0827 -0.2811 -0.2272
 9828W        W25637  11.455   5.414  13.527  0.1058 -0.6083 -0.2368
 9829W        W25638   3.037  17.852   2.867 -0.1251 -0.2474  0.0904
 9830W        W25639   1.918  16.414   4.628  0.3990 -0.2719  0.1467
 9831W        W25640   9.303  10.040   1.353  0.0807  0.2245  0.0999
 9832W        W25641   9.207  18.303   4.127  0.3413  0.0977  0.0735
 9833W        W25642  14.872   9.665   0.584  0.1097 -0.2959 -0.0547
 9834W        W25643   3.485   1.704   4.240 -0.4412 -0.0732  0.1096
 9835W        W25644   1.229   3.451  11.116 -0.0463 -0.1769 -0.2454
 9836W        W25645  10.974   3.605  11.930  0.1090  0.0541  0.3602
 9837W        W25646   1.748  10.858  14.131 -0.2000 -0.2951  0.1844
 9838W        W25647  13.681  12.706   4.103  0.0424  0.0096 -0.1074
 9839W        W25648   5.892   5.270   2.156 -0.2328 -0.0889 -0.0786
 9840W        W25649   1.802  16.409   3.617 -0.1373 -0.0613  0.2242
 9841W        W25650   0.905  14.433   0.819  0.2024 -0.0070  0.0895
 9842W        W25651  15.976  12.911   4.636  0.0539 -0.0151 -0.0705
 9843W        W25652  10.041  10.671  10.895  0.0187  0.1707 -0.0384
 9844W        W25653  10.309   5.917   2.215 -0.2447  0.1543  0.0632
 9845W        W25654   4.494   8.879   3.556 -0.1453 -0.1315 -0.0928
 9846W        W25655  13.733   0.822  13.072  0.0014 -0.0085 -0.0744
 9847W        W25656  11.009  11.494   2.038 -0.1959 -0.0819 -0.0093
 9848W        W25657  16.630   4.039  12.707 -0.3407  0.2158  0.0450
 9849W        W25658   0.141   4.129  10.942  0.0227 -0.3560  0.1642
 9850W        W25659  12.566   5.613  11.023 -0.1520 -0.2107  0.1153
 9851W        W25660   6.056   2.452  14.755 -0.2481  0.0230  0.2146
 9852W        W25661   3.725  18.183   3.515 -0.0657  0.1668  0.1284
 9853W        W25662  12.294   9.401  13.635 -0.0352  0.0764  0.0782
 9854W        W25663   7.035  11.535   0.889 -0.3980  0.1042 -0.1951
 9855W        W25664  10.514  15.694  14.515 -0.4196  0.0957  0.0010
 9856W        W25665   4.154   4.725  14.973 -0.3946 -0.0675 -0.2777
 9857W        W25666   8.505   2.629   4.693  0.2609  0.2246 -0.0644
 9858W        W25667   5.178   4.820  11.296  0.1475  0.3273  0.1134
 9859W        W25668   4.859   8.115   1.035  0.0855  0.2902  0.2973
 9860W        W25669   4.087  13.247   4.515 -0.1515  0.1850  0.0852
 9861W        W25670   0.601  16.413   2.953  0.2608  0.3096  0.1150
 9862W        W25671   5.899   1.319  15.081 -0.3769  0.2075  0.1580
 9863W        W25672  10.053   0.812   0.316  0.1902 -0.0672 -0.2934
 9864W        W25673   7.033   1.401  12.381  0.0583 -0.0245  0.0264
 9865W        W25674   5.325  18.354   4.446  0.2042 -0.2999  0.0914
 9866W        W25675  17.465  12.072  10.669 -0.0084 -0.3913 -0.3893
 9867W        W25676   1.530  10.991   2.521  0.0637  0.0366  0.1978
 9868W        W25677   0.585   9.187   4.416 -0.0211 -0.1534 -0.1334
 9869W        W25678   6.891   1.296   1.028  0.1635  0.0627  0.3492
 9870W        W25679  17.728   3.466  11.004  0.0264 -0.0657 -0.1309
 9871W        W25680  12.337  15.683  11.266 -0.0372  0.1453  0.2746
 9872W        W25681  18.393   1.182  10.053 -0.0826  0.0195  0.1052
 9873W        W25682  16.571  12.057  13.746 -0.0291 -0.3522  0.1295
 9874W        W25683  10.929   7.579  11.741  0.2276  0.0781  0.3161
 9875W        W25684   9.249   7.432  12.782 -0.0539  0.0866 -0.1375
 9876W        W25685  12.917   9.423  10.566 -0.1769  0.0062 -0.0721
 9877W        W25686   4.337   4.197  14.131  0.1054 -0.0829 -0.0576
 9878W        W25687  12.112   0.061  13.248  0.2545 -0.0179  0.0009
 9879W        W25688   0.508   8.695   2.858  0.3053 -0.4302  0.1791
 9880W        W25689   3.121   1.391   1.850  0.0393  0.2134  0.1144
 9881W        W25690  10.516   1.831  14.589 -0.1220  0.1270 -0.0293
 9882W        W25691   1.561   8.441  10.759  0.0559 -0.1420 -0.0439
 9883W        W25692  10.966  18.117   0.019  0.1138 -0.3062 -0.0819
 9884W        W25693   5.289   2.189   4.699 -0.1775  0.1238  0.0317
 9885W        W25694   2.840  14.942   4.947  0.1473 -0.2155 -0.0545
 9886W        W25695  12.881   9.288   0.393 -0.1190  0.0613  0.1076
 9887W        W25696  15.141  11.044  15.004 -0.1980 -0.3214 -0.0380
 9888W        W25697   2.984  16.800  15.010  0.3201 -0.1649  0.1731
 9889W        W25698  11.454   4.257  13.006 -0.1877  0.0231  0.0181
 9890W        W25699   6.693  10.574   2.287 -0.2046 -0.3966  0.2342
 9891W        W25700   1.124  10.791   0.493 -0.2284 -0.6991  0.0885
 9892W        W25701   6.383   3.196   3.008 -0.0609 -0.0906  0.1758
 9893W        W25702   0.167  14.898  12.514 -0.0035 -0.3243 -0.1032
 9894W        W25703   8.894   0.317   2.522 -0.0625 -0.0780  0.2481
 9895W        W25704  17.472  15.206   4.358  0.0407  0.0213 -0.3479
 9896W        W25705   8.996   3.165   2.554 -0.1217  0.0845 -0.1814
 9897W        W25706  17.450  10.661   1.313  0.0654 -0.0834  0.2176
 9898W        W25707   0.468   1.450  10.367  0.2772 -0.1562  0.3421
 9899W        W25708   3.692   9.562  12.617  0.2726 -0.0456 -0.2284
 9900W        W25709   6.325  11.813   1.715 -0.0543  0.0562  0.2577
 9901W        W25710   3.189   0.113  13.481 -0.1581  0.3670 -0.1224
 9902W        W25711   9.750   4.180   0.820  0.0176  0.3540  0.1592
 9903W        W25712   4.803   8.305  11.882 -0.1632  0.1628  0.0488
 9904W        W25713   2.612   3.349   2.383  0.0983 -0.1550 -0.2376
 9905W        W25714  15.161  13.429   1.858  0.3540 -0.1351 -0.0914
 9906W        W25715   9.167   6.543   2.961  0.0962  0.0662  0.3334
 9907W        W25716   5.245   6.355  14.434 -0.2738 -0.0116  0.1024
 9908W        W25717  11.605   8.654  11.447  0.0752 -0.3220 -0.1322
 9909W        W25718   2.357   4.044  14.376 -0.0896 -0.3237  0.0468
 9910W        W25719  11.644   1.006   3.125  0.0821  0.6609 -0.1208
 9911W        W25720   4.473  18.668  11.514  0.0944  0.0659 -0.1478
 9912W        W25721  17.657  11.165  13.614  0.0124 -0.0274  0.1300
 9913W        W25722  11.408  14.146  13.593 -0.0791  0.0911  0.0820
 9914W        W25723  16.011  18.644   5.066  0.1080  0.2533 -0.0201
 9915W        W25724   8.797   2.708   3.735  0.0671  0.0348  0.0321
 9916W        W25725   4.362  17.667  14.181  0.0006 -0.1879 -0.0092
 9917W        W25726   8.368  12.780  10.257 -0.1464  0.0868 -0.1890
 9918W        W25727   0.673  11.920   4.569  0.3447 -0.0932 -0.1679
 9919W        W25728  17.062   3.327   1.315  0.3190  0.1061  0.2148
 9920W        W25729   9.735  17.479  14.137 -0.0880 -0.0053 -0.1348
 9921W        W25730  14.382   9.626   2.019  0.4192  0.1999 -0.0880
 9922W        W25731  14.433   9.406  12.895  0.2112 -0.1260  0.1634
 9923W        W25732   9.490   3.246  14.077  0.0766  0.2186 -0.1545
 9924W        W25733   7.425  17.752  10.575  0.0398 -0.0410 -0.2779
 9925W        W25734  15.351   3.529   4.437  0.3074 -0.0354 -0.0764
 9926W        W25735   9.035  11.418   3.572  0.0593  0.0130 -0.2218
 9927W        W25736   1.861   9.431  11.120 -0.2849 -0.1674 -0.0240
 9928W        W25737   5.871   8.773  10.676 -0.3488  0.1833 -0.1468
 9929W        W25738  12.482   3.320  15.083  0.1391  0.0790  0.3150
 9930W        W25739   7.671   7.339  10.971 -0.3369  0.2834  0.1464
 9931W        W25740  13.066  13.023   5.196 -0.0171 -0.3885 -0.3196
 9932W        W25741   8.984   4.524   1.387 -0.4032  0.0136 -0.0157
 9933W        W25742   1.368   3.900  13.378  0.3095  0.1189 -0.0943
 9934W        W25743   1.948   0.732  10.700 -0.1259  0.0499  0.0428
 9935W        W25744   2.632   6.152  12.730  0.6490 -0.1893  0.2316
 9936W        W25745  18.468   7.352   3.326  0.0907 -0.0309 -0.2283
 9937W        W25746   5.818   7.424  11.745  0.2930  0.4143 -0.0168
 9938W        W25747   8.517   2.343   2.162 -0.3313  0.4073  0.4946
 9939W        W25748  10.762  11.765  11.776  0.0645 -0.1788 -0.1049
 9940W        W25749  10.071  15.620   2.682 -0.1335 -0.1261  0.0208
 9941W        W25750  11.919   5.540  11.590  0.0860  0.0822 -0.2407
 9942W        W25751  18.752  12.302  14.038 -0.1219 -0.0334  0.0468
 9943W        W25752  15.551   2.305   2.140  0.0412  0.1490  0.2256
 9944W        W25753  18.363   3.813  13.402 -0.2207 -0.4830  0.0275
 9945W        W25754  17.139  16.879  11.832  0.0459  0.3068  0.0451
 9946W        W25755  16.589   3.120   0.084 -0.0338 -0.1811 -0.4255
 9947W        W25756   2.589  17.984   2.640 -0.1566  0.3433  0.3412
 9948W        W25757  16.934  15.992   1.542  0.0415 -0.0359  0.3716
 9949W        W25758  15.774   3.274  15.260 -0.6132  0.0200 -0.0539
 9950W        W25759   4.371   3.603   3.692 -0.2107  0.0738 -0.0285
 9951W        W25760  18.717   6.153   5.050  0.4087  0.2222 -0.1533
 9952W        W25761  18.024  16.552   0.838 -0.2007  0.2438  0.0779
 9953W        W25762  16.820  16.397  11.490 -0.1444 -0.1750 -0.2441
 9954W        W25763   1.239  18.313   3.034 -0.0610  0.1821 -0.1041
 9955W        W25764  10.374   8.960   3.076 -0.1120 -0.0753 -0.0873
 9956W        W25765  12.867   6.415  12.788  0.0457 -0.1971 -0.2827
 9957W        W25766   9.374   4.511  13.364 -0.0651  0.1542 -0.3276
 9958W        W25767   8.881   7.021   1.598  0.0436 -0.0471  0.3467
 9959W        W25768   5.046  12.414  13.890  0.2307 -0.1523  0.0284
 9960W        W25769  14.748  10.238  13.159 -0.1100  0.0959 -0.3801
 9961W        W25770   5.170  10.543   3.498 -0.0646 -0.0381  0.1500
 9962W        W25771   0.172  15.053  11.517 -0.2621  0.0226  0.1920
 9963W        W25772   4.049   0.792  14.799  0.2603 -0.0768  0.2177
 9964W        W25773  11.961   7.814   4.151 -0.2770  0.3549  0.0028
 9965W        W25774   2.872  15.453  13.948  0.1245 -0.0512 -0.2208
 9966W        W25775   2.846  17.416  12.875  0.0766 -0.1447 -0.0098
 9967W        W25776   0.954  12.059  14.433  0.0864  0.2041 -0.0464
 9968W        W25777  10.851   4.840  10.399 -0.0427 -0.2152 -0.1279
 9969W        W25778   8.880  18.046  12.278 -0.1128  0.0001 -0.1805
 9970W        W25779   1.679   3.169   2.532  0.4480  0.0697  0.3104
 9971W        W25780  11.091   2.549  15.408  0.1846 -0.1255 -0.0262
 9972W        W25781   8.283   6.823   4.998  0.0506 -0.1012 -0.1596
 9973W        W25782   2.354  14.464   2.420 -0.0017  0.0593  0.0420
 9974W        W25783   1.820   2.795  11.625  0.4872  0.2107  0.0284
 9975W        W25784   1.635  10.725  12.836 -0.1380  0.2279  0.2831
 9976W        W25785   9.559   3.040  11.173 -0.1186  0.0710  0.0104
 9977W        W25786   7.918  14.973   5.647  0.2454  0.0491  0.1614
 9978W        W25787  15.244   2.272   5.086 -0.2223  0.0736 -0.0132
 9979W        W25788   8.248   7.261   3.479  0.2884 -0.2424 -0.0325
 9980W        W25789   9.488  13.333   2.952 -0.1210 -0.2264 -0.0917
 9981W        W25790   5.114   3.856   2.070 -0.2208 -0.1341  0.3585
 9982W        W25791   1.108   5.567   4.341  0.1091 -0.4849  0.1359
 9983W        W25792   4.372   7.894   9.774  0.0842 -0.1024  0.0157
 9984W        W25793  18.739  16.429   0.131 -0.3103  0.0919 -0.1304
 9985W        W25794   9.141   7.725  11.076 -0.1371 -0.2114 -0.0480
 9986W        W25795   6.059  11.999   3.081  0.3966  0.1162 -0.2011
 9987W        W25796   3.465  17.768  14.656  0.0093  0.0184  0.1237
 9988W        W25797  17.026   5.799   4.181  0.1976 -0.1474 -0.3425
 9989W        W25798  17.290   8.028  14.681  0.2564 -0.1109  0.0405
 9990W        W25799   4.592  11.926   2.165 -0.1424 -0.1949 -0.0054
 9991W        W25800   6.321   7.499  11.034 -0.1224  0.1893  0.0007
 9992W        W25801  16.253  14.558   4.014  0.3975 -0.2515  0.1343
 9993W        W25802  14.434   3.026  11.218 -0.0540 -0.2009  0.3269
 9994W        W25803  11.189   8.615   2.878  0.0362  0.0654 -0.0569
 9995W        W25804  16.772  17.032  13.478 -0.0420 -0.4428 -0.0358
 9996W        W25805  10.756   5.531   0.603  0.2010 -0.1223  0.0028
 9997W        W25806  18.870   6.036  13.376  0.0043 -0.1710 -0.4640
 9998W        W25807  12.686   4.653   3.316 -0.4195 -0.1151  0.1851
 9999W        W25808   5.150   8.676  10.178 -0.0963  0.2714 -0.1629
10000W        W25809  13.454  16.837  10.357 -0.2543  0.0604  0.1357
10001W        W25810  15.710   2.838   0.117  0.4220  0.1097 -0.0307
10002W        W25811   3.068   0.366   3.042 -0.1037 -0.1842  0.1312
10003W        W25812   0.006  16.916  10.485 -0.1652 -0.1702  0.1118
10004W        W25813  11.574   9.666   0.715  0.0490  0.2909  0.0869
10005W        W25814   6.380  11.137  11.824  0.2391  0.0857  0.1052
10006W        W25815   1.398  13.705   0.303  0.0324 -0.0232  0.0729
10007W        W25816  13.849   0.399   0.518  0.1306  0.2180 -0.2980
10008W        W25817  10.191   4.206  13.138 -0.2802 -0.2027 -0.0035
10009W        W25818   4.553  10.470   0.601  0.1199 -0.0059  0.0466
10010W        W25819  10.337  15.555  11.726  0.1762  0.0180  0.0503
10011W        W25820   4.025  11.257  13.124 -0.0700  0.2084 -0.0635
10012W        W25821  16.489  11.314   0.145  0.0244 -0.1780  0.1759
10013W        W25822   9.636   5.173   3.739 -0.1070 -0.0999  0.0833
10014W        W25823   9.165   6.290   5.612 -0.2202  0.1309 -0.2252
10015W        W25824  10.839  15.475   4.657  0.0015 -0.0071  0.1743
10016W        W25825   4.360  11.037   0.003  0.4070  0.2259 -0.0659
10017W        W25826   8.613   4.844  15.055  0.1639  0.0892 -0.3096
10018W        W25827   0.712  12.534   3.860 -0.0778 -0.0894 -0.2440
10019W        W25828  10.488  18.497   5.033  0.0354 -0.1974 -0.3250
10020W        W25829  11.666   7.848   3.713 -0.3265 -0.1412 -0.2172
10021W        W25830   8.714   2.136  13.205 -0.0831 -0.1290 -0.0837
10022W        W25831   8.122  11.542   5.211 -0.0472  0.1007 -0.1810
10023W        W25832   8.595   8.112   3.909  0.2543  0.2586  0.1522
10024W        W25833  11.459  18.163   3.703  0.0255 -0.1205 -0.1291
10025W        W25834  12.291  14.506   2.922  0.3108  0.2738  0.2545
10026W        W25835  10.769  13.419  10.939  0.0075 -0.2460  0.0925
10027W        W25836  12.133  18.832   4.701 -0.1592 -0.0825 -0.2821
10028W        W25837   1.424  16.990   2.216 -0.0814  0.1344 -0.0749
10029W        W25838  13.913   4.345   1.338 -0.1636 -0.3535 -0.2775
10030W        W25839  14.538   8.677  14.764  0.1586 -0.0456 -0.0355
10031W        W25840   5.097   7.785  13.244 -0.0583 -0.2064 -0.3236
10032W        W25841  15.411  18.106  11.253 -0.2966  0.4775 -0.0983
10033W        W25842  17.973   8.709   1.933 -0.0085  0.1760 -0.1326
10034W        W25843  17.286  11.661  12.554  0.0906  0.0728 -0.0203
10035W        W25844   3.578  10.725   1.429 -0.3456  0.4479  0.0011
10036W        W25845  17.301   5.709   0.935  0.0295 -0.4068 -0.1410
10037W        W25846  11.637  15.894   5.696 -0.1991  0.2053 -0.0793
10038W        W25847  13.652   5.739   5.083  0.2320  0.1733 -0.2977
10039W        W25848   2.608   1.129  15.267 -0.0374  0.1765  0.0006
10040W        W25849  18.679   0.764   3.025 -0.3833  0.2472 -0.2364
10041W        W25850   4.121   9.696   2.617 -0.2413  0.1707 -0.4299
10042W        W25851  18.211  15.569  11.533  0.0478 -0.0990  0.1304
10043W        W25852   8.298   5.391   0.323  0.0435  0.1167 -0.0448
10044W        W25853  14.202  15.339   3.616 -0.0083  0.0904 -0.3118
10045W        W25854   4.931  15.533  15.157  0.1547 -0.2196  0.0259
10046W        W25855   2.597   1.534   2.978  0.0880  0.0508  0.2539
10047W        W25856  15.376  15.025  12.780 -0.2125  0.2024 -0.1789
10048W        W25857  11.886   8.248   3.314  0.3011  0.2374 -0.2300
10049W        W25858   5.692   2.460  11.929  0.2399 -0.1265  0.0213
10050W        W25859  13.697  18.590  15.432 -0.0057  0.1535 -0.0836
10051W        W25860  13.619  15.833   2.425  0.1398  0.0139 -0.0837
10052W        W25861  15.278  17.178   4.275  0.1904 -0.0156 -0.2059
10053W        W25862  16.078   7.478  12.313 -0.1158  0.3979  0.0268
10054W        W25863   8.316   8.493   1.219  0.1353 -0.3942  0.1328
10055W        W25864  13.562   8.250  11.768 -0.1179 -0.0900 -0.1655
10056W        W25865   2.324  14.983  12.573  0.0026  0.3180 -0.5100
10057W        W25866  15.506  14.221   2.223  0.0578 -0.1737  0.0818
10058W        W25867  13.870   2.963  13.226  0.1897  0.0888 -0.0717
10059W        W25868   9.156  17.414   2.685 -0.3145  0.1982 -0.1282
10060W        W25869   8.863  18.236   2.554  0.1489 -0.3113  0.1255
10061W        W25870   5.754  12.508   0.888 -0.0911 -0.0588 -0.1883
10062W        W25871  11.411   9.857  14.024  0.1908  0.1673 -0.1501
10063W        W25872   4.535   2.419  13.885  0.0827  0.1347  0.1027
10064W        W25873  12.940   8.955  10.389  0.0369 -0.1823  0.0069
10065W        W25874   8.021   1.553  12.825  0.0204  0.0172  0.0262
10066W        W25875  14.694  14.399  10.413  0.1087  0.1110  0.2338
10067W        W25876   4.138  14.434   0.302  0.1266  0.2404 -0.0082
10068W        W25877  15.192   5.744   5.750  0.2399  0.0466  0.0885
10069W        W25878   3.229   7.090  10.701  0.0815 -0.0368 -0.1997
10070W        W25879  16.864  18.402   5.029 -0.1954 -0.2424 -0.0305
10071W        W25880   8.650  16.918  10.116 -0.0761 -0.1453 -0.3182
10072W        W25881  16.006   1.478  11.462 -0.2540  0.0234 -0.1056
10073W        W25882   2.550  15.872   1.903  0.1503  0.2715  0.4237
10074W        W25883  10.175   2.926  12.439  0.0304  0.1441  0.3198
10075W        W25884   5.724  15.853  10.402  0.2898 -0.3926 -0.1303
10076W        W25885  12.753   7.295  14.977  0.2941 -0.0785 -0.1898
10077W        W25886   1.886   5.690  10.188 -0.1541 -0.1841 -0.1196
10078W        W25887  11.942  12.059   3.179  0.0014 -0.5923 -0.0236
10079W        W25888  14.846   6.910   2.152 -0.0256 -0.3928  0.3011
10080W        W25889   0.592   9.950   0.038  0.3189  0.2275  0.3242
10081W        W25890   0.482  18.657   4.197  0.2696 -0.2039 -0.4080
10082W        W25891   9.728   9.054  13.328 -0.1849 -0.0027 -0.2125
10083W        W25892   6.474  10.171  14.626  0.0899  0.1944 -0.1190
10084W        W25893   8.077   3.506  13.516 -0.1160  0.1304 -0.1826
10085W        W25894  16.561  15.894  15.062 -0.0511  0.0257  0.0845
10086W        W25895  18.430  18.806  15.170  0.0984 -0.0399  0.1899
10087W        W25896   7.777  13.451   3.979 -0.2255 -0.4450 -0.0059
10088W        W25897   9.384  17.643  13.685 -0.1476 -0.1049  0.3140
10089W        W25898  16.864   1.274  14.651 -0.1079 -0.2176  0.1818
10090W        W25899   0.394  11.532  14.896  0.0553  0.2890  0.0770
10091W        W25900   1.023  16.054   3.056 -0.1569 -0.2576 -0.1739
10092W        W25901   3.849   6.096   1.702  0.3217 -0.2902 -0.1253
10093W        W25902  14.930   7.727  11.586 -0.3342 -0.1522  0.1563
10094W        W25903  18.362   4.061   0.512  0.2739 -0.1226  0.2179
10095W        W25904   5.516   8.686  12.014 -0.0439 -0.1892  0.1627
10096W        W25905  10.826  10.292   0.584  0.1394 -0.2422 -0.2214
10097W        W25906   6.884   0.781   2.043 -0.0710  0.2244  0.3218
10098W        W25907  12.131  11.279  13.465  0.1308  0.3116  0.2694
10099W        W25908  17.882   1.581  14.554  0.0530  0.4249  0.4739
10100W        W25909  18.352   8.421   1.616 -0.0611 -0.0694  0.2526
10101W        W25910   5.534   7.576   4.238 -0.4333  0.2217 -0.0935
10102W        W25911  15.371  18.725   2.116 -0.1173 -0.0802  0.0618
10103W        W25912   2.379   8.041  13.570 -0.1093  0.1349  0.0089
10104W        W25913  17.544  16.595   3.115  0.0254 -0.1403  0.1848
10105W        W25914  10.223   9.583  14.484  0.1566 -0.1043 -0.1970
10106W        W25915  16.654   8.533  14.553  0.0929 -0.2948 -0.1675
10107W        W25916  12.373   5.917   5.636 -0.0313  0.1341  0.0479
10108W        W25917  13.643   8.619  14.852  0.1607  0.1287  0.0685
10109W        W25918   2.878   9.338   0.234  0.0634  0.1201  0.0899
10110W        W25919   6.450  11.450  14.447  0.1194  0.0585  0.0176
10111W        W25920   3.797   3.083   2.381 -0.1780 -0.0304 -0.2515
10112W        W25921   6.661   1.443  13.983  0.1089 -0.2682  0.1128
10113W        W25922   9.425   1.301   4.558  0.0151  0.0741  0.0237
10114W        W25923  14.137   5.634  11.170 -0.1440 -0.1283 -0.3055
10115W        W25924   2.653   6.227   0.317  0.0449 -0.1329  0.1682
10116W        W25925   4.114   3.064   5.798 -0.2494  0.0634 -0.2631
10117W        W25926  16.342   1.290  14.746  0.2204 -0.1067 -0.0128
10118W        W25927   9.237  17.890   1.889 -0.1337 -0.1873 -0.2739
10119W        W25928   3.580   4.478   1.970  0.1068 -0.1487 -0.2547
10120W        W25929  11.679  11.341   4.841  0.1945 -0.0017 -0.0597
10121W        W25930   4.079   8.444  13.875 -0.0934  0.0175 -0.4489
10122W        W25931   3.638   7.514  11.048  0.2437  0.2400 -0.0449
10123W        W25932   4.466  11.975  14.810  0.1633 -0.1034  0.0089
10124W        W25933  16.513   0.887  12.190 -0.0455 -0.1083 -0.0398
10125W        W25934  10.263  16.468  14.195 -0.0704 -0.1491  0.2434
10126W        W25935   9.296   5.304   5.397 -0.2205 -0.0822 -0.0754
10127W        W25936   2.214   7.739   3.888 -0.2399  0.2440 -0.0393
10128W        W25937  12.349   0.092   5.176  0.2625  0.1174  0.0011
10129W        W25938  12.463  16.616  13.934  0.0266  0.0257  0.1477
10130W        W25939  10.385   5.116   0.411  0.0437  0.1454  0.0440
10131W        W25940   4.385  12.416   0.074 -0.0875  0.3933 -0.3460
10132W        W25941  18.772   9.637   0.530 -0.2534  0.0971 -0.0607
10133W        W25942  11.330  11.892   0.375  0.2355 -0.0616 -0.4032
10134W        W25943   5.570   4.357  12.939  0.1739  0.1919 -0.1036
10135W        W25944   0.907  11.597   1.538 -0.1666  0.0908 -0.2964
10136W        W25945   9.434   1.531   3.271 -0.1641  0.0183 -0.1140
10137W        W25946  18.072   4.106   3.431  0.0280  0.0065 -0.1317
10138W        W25947   8.278   9.554   0.130 -0.4644 -0.1832  0.2895
10139W        W25948  18.778   7.627   3.016  0.1184 -0.1652  0.2366
10140W        W25949  18.638   5.094  13.096 -0.0889 -0.2379 -0.0802
10141W        W25950  17.433   3.067   5.708 -0.3008 -0.0186 -0.1363
10142W        W25951   4.142  17.355   2.095  0.1841  0.2426  0.3548
10143W        W25952   7.508  14.525  13.790  0.0116 -0.0872  0.1241
10144W        W25953  14.555   8.339   2.277 -0.4314 -0.1189 -0.4012
10145W        W25954   5.156  13.289  12.768  0.2245 -0.1271 -0.0196
10146W        W25955  17.854   5.349   2.100  0.0536  0.2087  0.1196
10147W        W25956  10.525   3.738   2.815  0.1013 -0.0100  0.0209
10148W        W25957   5.119  10.139  15.234  0.2380 -0.0741 -0.0791
10149W        W25958  12.058  18.897  14.648  0.0204  0.0152 -0.0070
10150W        W25959  16.558   4.591   4.248  0.1659  0.0875 -0.2241
10151W        W25960   7.343  17.246   9.984 -0.1563 -0.3861 -0.0785
10152W        W25961  17.660  12.212  12.532 -0.0953 -0.3403 -0.1802
10153W        W25962   2.439  11.376  14.184  0.1728  0.0797 -0.4469
10154W        W25963   9.604  17.534   1.511  0.3757 -0.0513 -0.0048
10155W        W25964   0.056  11.377  15.247 -0.0400  0.1072  0.0105
10156W        W25965   3.231  10.268   3.573  0.0611  0.0863  0.2562
10157W        W25966   5.935  12.641  15.081 -0.4667  0.1631  0.1613
10158W        W25967  15.241  11.180   0.485 -0.3706  0.0305 -0.0512
10159W        W25968   8.096   1.531  11.644  0.1437 -0.1303  0.1760
10160W        W25969  13.179  12.324   2.662  0.1810  0.2947  0.1064
10161W        W25970   4.241   1.697  14.910 -0.0965 -0.2072 -0.5469
10162W        W25971   3.961   1.947  13.634  0.0031 -0.0068 -0.1096
10163W        W25972   2.672   1.794   4.040 -0.2571  0.0022 -0.1144
10164W        W25973  18.025  16.036   4.082  0.0934 -0.5577 -0.1742
10165W        W25974  13.320   2.424  15.069  0.1331  0.4051  0.1991
10166W        W25975   4.885   2.831  14.238  0.0732  0.2621  0.2945
10167W        W25976  17.999  11.353  12.317  0.0613  0.0733 -0.4254
10168W        W25977   2.933   7.987  14.382 -0.2318  0.2059  0.0339
10169W        W25978  13.608   8.405   0.621 -0.0819 -0.0922  0.1804
10170W        W25979   7.397   7.902   0.620 -0.1834 -0.0897  0.2400
10171W        W25980   9.846   1.871   1.754 -0.1053 -0.3095 -0.0322
10172W        W25981  10.254  11.891   1.806 -0.0751 -0.2189 -0.3408
10173W        W25982  11.945  11.516   5.218  0.3085  0.2852  0.2170
10174W        W25983   1.032   3.858  13.889  0.0714 -0.1950 -0.0203
10175W        W25984   3.961  11.866  12.288  0.2950  0.0531 -0.3380
10176W        W25985  10.305   5.840   5.831 -0.1576  0.3830 -0.0972
10177W        W25986   5.730   8.719   0.577  0.1059 -0.0406 -0.1397
10178W        W25987  12.374   8.861  13.640  0.0130 -0.0690  0.0009
10179W        W25988   0.053   4.095  10.163  0.2590  0.2171  0.3063
10180W        W25989   4.896   0.489   4.173 -0.1182  0.2347 -0.0501
10181W        W25990   9.352   7.608   3.759  0.1099  0.3627  0.2416
10182W        W25991  11.100  12.573  11.279 -0.0259 -0.1876  0.1462
10183W        W25992  15.157  11.077  13.398  0.2173  0.1171  0.2529
10184W        W25993   6.906  13.582  13.700 -0.1278  0.0221 -0.0693
10185W        W25994  16.497  15.160   4.584  0.0083 -0.1293  0.2692
10186W        W25995   1.363   9.262   6.005 -0.3268 -0.1982  0.4237
10187W        W25996   0.897   9.038   3.933  0.1003 -0.0272 -0.0881
10188W        W25997   8.293  13.732   1.673  0.3343  0.1192 -0.1176
10189W        W25998   2.069   4.540   2.326 -0.3446 -0.2628  0.0816
10190W        W25999   5.565   1.204   0.524  0.5207 -0.1485  0.4745
10191W        W26000  17.118  15.988  11.548 -0.1477 -0.0254  0.0322
10192W        W26001  13.115   6.322   0.163 -0.0104 -0.2721 -0.0905
10193W        W26002  13.688   4.474   4.327  0.2218  0.1253 -0.1758
10194W        W26003   3.645  18.197   2.036 -0.1597  0.3740  0.0935
10195W        W26004  18.866  10.506   2.252  0.2210 -0.3096  0.0610
10196W        W26005  11.727   1.302   3.907 -0.1894 -0.1647  0.2314
10197W        W26006   6.593   2.239   4.540 -0.0816 -0.2017 -0.1217
10198W        W26007  11.748  15.943   0.869  0.0037  0.4205 -0.0124
10199W        W26008  11.278   2.036  13.688  0.0483  0.0176 -0.1172
10200W        W26009  17.438   5.634  11.862 -0.0129 -0.3443 -0.2274
10201W        W26010  16.150  15.478  11.233 -0.4727 -0.0583 -0.0055
10202W        W26011  17.265   6.338  12.618  0.0238  0.0309  0.1567
10203W        W26012  16.819  15.760   1.094 -0.2031 -0.1361  0.2141
10204W        W26013   6.065   8.684   4.685  0.3463 -0.2248 -0.2852
10205W        W26014   2.246  15.017   4.705 -0.0061  0.0578  0.0006
10206W        W26015   8.411   2.832   5.773 -0.2904  0.0473 -0.0860
10207W        W26016  18.565   6.874   3.554  0.1019 -0.1925  0.0726
10208W        W26017  11.948   0.360  10.387  0.1025 -0.1788 -0.1713
10209W        W26018  18.488  14.522  10.439  0.1286  0.1234  0.3486
10210W        W26019  17.183   7.478   0.645 -0.0993  0.0222  0.2090
10211W        W26020   5.992   6.679   1.638 -0.0070  0.0598  0.0590
10212W        W26021   6.007   8.903  11.581 -0.1753 -0.0792 -0.0346
10213W        W26022   9.199  16.720   1.060 -0.1244 -0.1317  0.3065
10214W        W26023  14.217   6.154   0.597 -0.0566 -0.1408 -0.1108
10215W        W26024   5.641  14.350  12.427 -0.0751 -0.1491 -0.1899
10216W        W26025   8.044  18.025   4.077 -0.0390  0.0897 -0.2395
10217W        W26026  10.475  18.660  13.922  0.0359  0.1967 -0.1404
10218W        W26027  14.566  12.870   2.688  0.0776 -0.0738 -0.1656
10219W        W26028   2.192  10.456   1.508  0.2559 -0.0319 -0.1467
10220W        W26029  12.542   9.840   2.308  0.3226  0.1562  0.0809
10221W        W26030   9.770  11.718  12.215 -0.0289 -0.5584 -0.0333
10222W        W26031  16.370   0.581   5.405  0.0970 -0.2355  0.1690
10223W        W26032   8.181  12.640   3.211 -0.1695  0.0387  0.2241
10224W        W26033  14.603  11.590   2.604 -0.0291  0.0528 -0.0558
10225W        W26034  16.153  17.497   4.205  0.2011  0.0371  0.3007
10226W        W26035   3.373   4.396  13.892  0.2318  0.0174 -0.0275
10227W        W26036   7.638  18.218  10.659  0.0899  0.0617  0.0782
10228W        W26037  12.525  14.887  12.603  0.1490 -0.0820 -0.1477
10229W        W26038  11.088  17.840   1.866 -0.4058  0.0629  0.1312
10230W        W26039   7.294   4.356   1.750 -0.0594 -0.1751  0.0565
10231W        W26040   0.694   7.836  12.300 -0.2432 -0.3936  0.0882
10232W        W26041   7.811   0.193   1.044 -0.3060  0.2220  0.3660
10233W        W26042   5.970  10.003   3.841  0.0809  0.2495 -0.0806
10234W        W26043   6.584   4.616   4.321 -0.1882  0.1067  0.2221
10235W        W26044  15.212  17.922   2.432  0.2539  0.1815 -0.2204
10236W        W26045   9.195  11.482  14.864 -0.0336 -0.2047  0.0733
10237W        W26046  16.559   1.551  10.899 -0.2197  0.0891 -0.0284
10238W        W26047   4.908   6.651  12.743  0.2479 -0.1318 -0.2484
10239W        W26048  17.060   4.239   5.032  0.4154 -0.0863  0.0236
10240W        W26049  11.220   4.185  12.140 -0.1187  0.1061 -0.0259
10241W        W26050   9.695   0.858   2.226 -0.2023 -0.1976  0.1654
10242W        W26051   1.340   1.160  11.377  0.0352  0.1686 -0.3977
10243W        W26052   6.500   3.701   3.041 -0.4769 -0.1441 -0.0516
10244W        W26053  15.873   9.709   3.734  0.3642  0.2070 -0.1755
10245W        W26054   2.612   9.641   5.377  0.3727 -0.1626 -0.0773
10246W        W26055   5.631   2.527   4.839  0.2478  0.1723  0.0699
10247W        W26056  14.132  10.036  13.733  0.0947  0.2815 -0.2300
10248W        W26057   7.834   2.041   1.409 -0.0050 -0.0649 -0.2343
10249W        W26058  13.576   6.624  11.228  0.0782  0.0870  0.1599
10250W        W26059   3.597   5.173  12.934  0.0790  0.1755  0.2118
10251W        W26060  16.920   4.280   2.730 -0.0650 -0.0803  0.1774
10252W        W26061  17.187  16.913  12.845 -0.1118 -0.2654 -0.2496
10253W        W26062   5.639  11.127   2.370  0.0237  0.4001  0.0806
10254W        W26063   2.126  15.070  13.734 -0.0146  0.0294  0.1173
10255W        W26064  16.711  12.476  12.426 -0.2277  0.1105  0.0840
10256W        W26065   5.270  12.354  11.862 -0.2943 -0.0866  0.1061
10257W        W26066  14.076   4.375  14.438 -0.0445 -0.1238 -0.0495
10258W        W26067   0.929  17.178  10.406 -0.3043 -0.0366 -0.0560
10259W        W26068  17.368   1.969   2.503  0.2486 -0.0252 -0.0601
10260W        W26069   4.246  14.851   0.899 -0.1274 -0.0832  0.1439
10261W        W26070  13.695   0.895   3.927 -0.0566  0.0158  0.1486
10262W        W26071  12.920   5.620  13.527  0.0808 -0.2220  0.1318
10263W        W26072   7.267   4.009   3.420  0.0671  0.1915 -0.2648
10264W        W26073   9.018   4.974  10.473  0.1743 -0.2398 -0.1169
10265W        W26074  14.502   8.871   4.032 -0.2313  0.2192 -0.1884
10266W        W26075   1.559  12.028   1.838 -0.1605 -0.0596 -0.3163
10267W        W26076  16.289  11.826   0.344  0.1108 -0.2567 -0.1886
10268W        W26077   8.426   8.155  12.134 -0.2577 -0.0053  0.0018
10269W        W26078  11.119  14.530   2.189  0.0389 -0.1732 -0.1519
10270W        W26079  15.467  15.530   4.869 -0.0316  0.0505 -0.2230
10271W        W26080  11.928  14.133   3.195 -0.0909  0.1075 -0.0082
10272W        W26081  18.887   9.292  10.923 -0.2616  0.0153 -0.0632
10273W        W26082   5.639  11.779  14.390 -0.2175 -0.0647  0.3835
10274W        W26083  11.165  14.783   2.682  0.4386  0.2454 -0.1527
10275W        W26084  13.776  16.955   1.911  0.0447  0.1426  0.0464
10276W        W26085  18.870   5.901  10.444 -0.0192 -0.2458 -0.0271
10277W        W26086  10.644  18.799  15.171 -0.1051 -0.0278  0.2206
10278W        W26087   4.632   2.354  10.310  0.0039  0.0884 -0.0949
10279W        W26088  17.351  18.813  14.293  0.1863  0.1235  0.1629
10280W        W26089   8.580   6.398   2.353  0.0305  0.0629 -0.2866
10281W        W26090   6.689  14.685  15.078  0.1859  0.0532 -0.1441
10282W        W26091   1.136  11.637  13.656  0.0462  0.2224 -0.1338
10283W        W26092  12.032  14.541  14.063 -0.0460 -0.3171 -0.1523
10284W        W26093   1.501   6.108   2.063  0.0349  0.3253  0.2952
10285W        W26094  14.806   3.207   1.438  0.0493 -0.0968  0.0432
10286W        W26095  11.786   6.677   1.201 -0.0783  0.0979 -0.0135
10287W        W26096   6.380   4.414  13.622  0.3168 -0.0980  0.1084
10288W        W26097  14.252   6.814  13.663  0.2306 -0.2872 -0.2057
10289W        W26098  16.117   7.343   3.808 -0.2748  0.1195  0.0493
10290W        W26099  18.532   1.824   3.636 -0.2453  0.1496 -0.1867
10291W        W26100   6.209  11.340   1.918 -0.0153  0.0256 -0.1089
10292W        W26101   2.218   5.468   2.171  0.0429  0.3551  0.3647
10293W        W26102   9.410  12.973  11.675  0.1828 -0.1280 -0.0226
10294W        W26103   7.882  16.093   3.373  0.1599  0.1009  0.5630
10295W        W26104  17.728  12.830  13.515  0.1153 -0.0178  0.3518
10296W        W26105   3.632   7.497   3.051  0.1149  0.0548 -0.2807
10297W        W26106   2.707   9.184   3.844  0.1287  0.2088 -0.1400
10298W        W26107  18.510   4.540  11.623 -0.2495  0.0604  0.1329
10299W        W26108  14.149  17.289   4.106 -0.1585 -0.0537 -0.0091
10300W        W26109   1.757   0.901  12.286 -0.4001 -0.0588 -0.0908
10301W        W26110   3.823   4.509  12.578  0.1919  0.2565 -0.0663
10302W        W26111  14.394  13.852   1.355 -0.1387  0.0448 -0.0965
10303W        W26112  13.389  11.614  11.717 -0.4071  0.0125 -0.2175
10304W        W26113   7.474  15.038  15.318 -0.2064 -0.0991  0.0660
10305W        W26114   1.505  18.017  11.412 -0.1570  0.0117 -0.3278
10306W        W26115   1.677   3.941   4.829 -0.0030 -0.2024 -0.1976
10307W        W26116   4.366   2.294  14.903  0.0126  0.3996  0.0835
10308W        W26117  15.998  12.075   4.845 -0.2514 -0.2280 -0.1482
10309W        W26118   8.930  16.762   4.792  0.1038  0.1573  0.1155
10310W        W26119  15.799   6.461  11.423 -0.2125 -0.1053 -0.2891
10311W        W26120  10.631  13.491  13.800  0.0403  0.0352 -0.1036
10312W        W26121  16.639   4.499   4.951  0.0057  0.0568 -0.1277
10313W        W26122   9.350  16.611   4.433 -0.3699  0.3479 -0.1923
10314W        W26123   0.343   3.276  13.476  0.2365 -0.2746 -0.1110
10315W        W26124   7.422   5.456   2.930  0.3096 -0.1217 -0.0381
10316W        W26125   5.509  12.514  10.836  0.2450 -0.2657 -0.0246
10317W        W26126   0.663  14.278  11.704  0.0162 -0.2753 -0.2471
10318W        W26127  13.685  14.466   2.367 -0.4697  0.0437 -0.0262
10319W        W26128  18.462  15.993   0.200 -0.0729  0.3545 -0.2348
10320W        W26129   9.141   6.102  11.444 -0.0730  0.1324 -0.3493
10321W        W26130  18.189   1.284   4.884  0.0954 -0.2549  0.3841
10322W        W26131   4.478   1.947  13.525  0.2327 -0.0376  0.0269
10323W        W26132   0.226  12.316   0.026 -0.0053  0.0083 -0.0670
10324W        W26133   9.954   2.037   3.095  0.1647 -0.1982 -0.1891
10325W        W26134   1.099   6.693  13.843 -0.3173 -0.0009 -0.0912
10326W        W26135  15.952  17.347   2.695 -0.0768 -0.2780 -0.2245
10327W        W26136  14.182   4.198  13.936 -0.2094 -0.0633  0.4438
10328W        W26137   2.559  17.597   1.750 -0.0965 -0.1539  0.0443
10329W        W26138  17.099   6.141  13.920 -0.3610 -0.1089 -0.1072
10330W        W26139   6.426  15.679   4.866 -0.2384 -0.2563 -0.1218
10331W        W26140   2.666   5.096  11.076 -0.2492  0.0902 -0.0376
10332W        W26141  15.096  18.268   2.113 -0.1139  0.1536  0.2644
10333W        W26142   2.620  16.486  11.088  0.0725 -0.2532 -0.0621
10334W        W26143   4.690  16.373   1.039 -0.1046 -0.2129 -0.2943
10335W        W26144  11.275   6.158   2.791 -0.0212  0.0474  0.1405
10336W        W26145   7.438  11.098  12.785 -0.0559 -0.0538 -0.1545
10337W        W26146  17.351   2.652  14.762 -0.3695 -0.0455  0.2514
10338W        W26147   7.086  17.279  15.309 -0.2289  0.0278 -0.0500
10339W        W26148   1.639  14.530  10.314  0.4683  0.0581 -0.1836
10340W        W26149  13.977   4.265   3.527  0.1269  0.2567  0.3939
10341W        W26150   1.738   7.031   3.669 -0.0769  0.0959 -0.1574
10342W        W26151  14.046   5.466  13.222 -0.0679 -0.2493 -0.1182
10343W        W26152  15.558  10.001  12.636 -0.2518  0.2813 -0.0904
10344W        W26153   9.715  16.618  12.081 -0.1422 -0.0713 -0.1355
10345W        W26154   1.399  15.762  10.278 -0.1792 -0.1070  0.1783
10346W        W26155   9.782   0.077   9.538  0.0022  0.0254 -0.0565
10347W        W26156   1.930  16.187  13.698  0.0983 -0.0106  0.0791
10348W        W26157   5.018  16.272  11.824  0.2056 -0.0278  0.1297
10349W        W26158  14.707   1.439   2.773  0.3173 -0.0291  0.1455
10350W        W26159   3.166   6.088  12.631  0.2414  0.2975  0.3901
10351W        W26160  17.906   2.614   4.692  0.1058 -0.2817 -0.4263
10352W        W26161  10.756  17.140  11.430  0.0944  0.0771 -0.0718
10353W        W26162  18.400   0.035   2.504  0.1148  0.1725 -0.2286
10354W        W26163   1.746  15.972   3.349 -0.4975  0.2017  0.4431
10355W        W26164  14.305   3.029   1.246  0.1038  0.0547  0.0746
10356W        W26165   3.339   8.554  13.287  0.0568 -0.2159  0.1005
10357W        W26166  16.945  10.687  14.792 -0.0542  0.2544 -0.1173
10358W        W26167   0.280   3.915   1.275  0.2420 -0.2352  0.1046
10359W        W26168   8.304  10.277   4.236 -0.1697  0.0000 -0.3105
10360W        W26169   3.377   8.675   5.375 -0.0438 -0.1727  0.2539
10361W        W26170   2.450  17.824  14.739 -0.0928  0.0553 -0.1061
10362W        W26171   6.047  12.924   0.664 -0.3176 -0.2946 -0.1928
10363W        W26172  14.664  17.438   0.145 -0.1224  0.0825  0.2318
10364W        W26173  10.509   2.510   3.816  0.0510  0.0981 -0.1845
10365W        W26174  15.524  15.930   1.568  0.2277  0.3515 -0.0468
10366W        W26175  13.323  10.113   1.912 -0.1246  0.3050 -0.2613
10367W        W26176   2.521  12.894   4.134  0.1126 -0.1271 -0.0049
10368W        W26177   1.627  13.994   3.776  0.1845  0.0115 -0.1215
10369W        W26178  10.955  11.780  12.757  0.1438 -0.3118  0.0045
10370W        W26179   6.107  12.209   3.879 -0.0643  0.0461  0.2324
10371W        W26180  16.214   6.045   3.977  0.1392  0.1131  0.0506
10372W        W26181  13.445  13.947   0.935 -0.3999  0.0620 -0.1456
10373W        W26182  17.268  16.500  12.430  0.0769 -0.1073 -0.3139
10374W        W26183   6.594  10.410  13.846 -0.0351  0.2125  0.0055
10375W        W26184  18.315   6.059  13.012 -0.3840 -0.1743 -0.0264
10376W        W26185   9.187  10.388  11.279 -0.2297 -0.2047  0.3300
10377W        W26186  15.123  11.255  12.461  0.1187 -0.1953 -0.1182
10378W        W26187  17.964  16.871  10.120 -0.1803  0.2697  0.0279
10379W        W26188  14.149   7.184  11.792  0.1231  0.2031  0.0318
10380W        W26189   2.294   9.361  12.646  0.1390  0.1845 -0.0990
10381W        W26190   0.779   7.878   1.138 -0.3489  0.3797  0.0716
10382W        W26191   5.770  18.465  12.216 -0.0367 -0.0598  0.0268
10383W        W26192  18.544   8.915   2.717 -0.0851 -0.2888 -0.1994
10384W        W26193  18.519   7.498  11.116 -0.0937 -0.0378 -0.2253
10385W        W26194   3.732  11.306  10.251 -0.1162  0.5541 -0.2455
10386W        W26195   8.731  13.125  15.244  0.1273 -0.0141  0.0343
10387W        W26196   1.341   2.681  11.927 -0.1638  0.2282  0.1034
10388W        W26197   3.431  10.119   2.524  0.1381  0.0475  0.0497
10389W        W26198  14.080   4.187   4.695 -0.3332 -0.4718 -0.0920
10390W        W26199  18.558  10.885   3.619  0.1498  0.3226  0.1076
10391W        W26200  13.007   4.220  14.712  0.2064  0.1281 -0.2598
10392W        W26201  11.873  13.815   5.268  0.4597  0.4424 -0.1125
10393W        W26202   7.501  16.220   2.853  0.0097  0.0405 -0.2768
10394W        W26203   7.411   1.112  12.295 -0.0615  0.0624  0.1777
10395W        W26204   9.919   5.122   2.791  0.1798 -0.2998  0.1118
10396W        W26205   1.012   5.672   2.756 -0.0278  0.1638 -0.2034
10397W        W26206  11.743  12.139   4.080 -0.0997  0.0330 -0.1956
10398W        W26207   2.733   1.265   3.629 -0.1427  0.0010  0.2282
10399W        W26208  15.957  18.690   2.548  0.0156 -0.0756  0.0565
10400W        W26209   3.605   8.697  15.401 -0.1480  0.0079 -0.2580
10401W        W26210   4.006  16.868  13.986 -0.1604  0.0400 -0.0741
10402W        W26211   8.052   8.854   3.807 -0.0955 -0.0773  0.0850
10403W        W26212  16.847  11.710  13.447  0.5811  0.0605  0.1300
10404W        W26213  16.921   5.164   5.418  0.1861  0.0239 -0.1491
10405W        W26214   9.312  17.825   2.407  0.1135  0.0231  0.1057
10406W        W26215  14.387   5.642   3.118  0.0592  0.3008 -0.0765
10407W        W26216   9.878   4.518  12.249  0.0103  0.0395 -0.1652
10408W        W26217  14.295   2.512  11.337 -0.0538 -0.2276 -0.1063
10409W        W26218   7.048  15.670   3.679  0.0497 -0.1046 -0.2337
10410W        W26219  10.209   0.191   0.895 -0.1929 -0.1048 -0.1175
10411W        W26220  16.836  17.997  12.532 -0.2743  0.1130 -0.0450
10412W        W26221  17.403   1.898   5.553 -0.1257 -0.0271 -0.3858
10413W        W26222  16.816   5.258   1.075  0.0383 -0.0880 -0.3669
10414W        W26223   0.799   9.455   0.103  0.0677 -0.0893  0.1390
10415W        W26224   4.381   6.816   0.895  0.0730  0.3046 -0.0368
10416W        W26225  17.587   3.992  10.721  0.0187 -0.0767  0.1185
10417W        W26226   6.071   6.654  14.526  0.2194  0.0200 -0.3069
10418W        W26227  13.265  10.130   4.585  0.2786 -0.0241 -0.1708
10419W        W26228   3.436   3.344  13.254 -0.1722 -0.3763 -0.1792
10420W        W26229   8.702  11.982  15.359 -0.1318 -0.3135 -0.1221
10421W        W26230   0.179  11.891   4.466  0.0049  0.0179 -0.0332
10422W        W26231  10.999   1.015  12.002 -0.0343  0.0171  0.1885
10423W        W26232   5.967  15.493  11.172 -0.0567 -0.0882 -0.0152
10424W        W26233  14.133  13.411   1.369  0.1878  0.0923  0.1314
10425W        W26234  16.766  18.576   4.501  0.0219  0.0153 -0.0304
10426W        W26235  18.502   7.386   0.360 -0.0441 -0.0837  0.4500
10427W        W26236  14.232   7.408  12.319 -0.1723  0.1431 -0.2634
10428W        W26237   1.144  16.974   2.631  0.2663  0.2057  0.1523
10429W        W26238  17.401  14.353  11.949 -0.0453 -0.3917  0.3078
10430W        W26239   2.693  10.935  12.899 -0.2736  0.1591  0.1340
10431W        W26240   4.607   6.556   2.077  0.1576  0.1218 -0.0108
10432W        W26241  12.854   2.298  12.049  0.2086 -0.0214 -0.1845
10433W        W26242   1.109  16.678   1.271  0.3113  0.0128 -0.0218
10434W        W26243   1.868  10.631  10.643  0.2885  0.2788 -0.2175
10435W        W26244  11.073   8.881   1.302  0.0263 -0.0004 -0.0265
10436W        W26245   9.613   9.185   0.174  0.0612  0.1155 -0.0459
10437W        W26246   3.720   5.576   3.209  0.1217 -0.4831  0.3756
10438W        W26247   7.336  16.010   3.947  0.3363  0.3722 -0.2388
10439W        W26248  11.135   4.075   3.860 -0.4204 -0.0580  0.1117
10440W        W26249  12.378   7.509  11.338 -0.2662 -0.1232 -0.2331
10441W        W26250  15.975  10.577   3.729 -0.0888 -0.1624 -0.3943
10442W        W26251   9.498  14.800  11.708  0.2223 -0.2706  0.1214
10443W        W26252  16.125  10.430  10.829 -0.1288 -0.2460 -0.3244
10444W        W26253   1.899   7.672   4.344  0.0839  0.0324 -0.2927
10445W        W26254  11.940  17.291  12.578  0.0976  0.3377 -0.0450
10446W        W26255  14.548  15.804   4.979 -0.3144  0.2972  0.2261
10447W        W26256  13.637   1.521  11.266 -0.1116 -0.1180 -0.1114
10448W        W26257  11.316   1.821  14.214 -0.2114  0.1426  0.0803
10449W        W26258   3.054   5.563   0.170 -0.2811  0.2836 -0.0112
10450W        W26259  16.383   4.315  13.585  0.0291 -0.0798  0.2314
10451W        W26260   3.360  15.143   2.803  0.0355 -0.1074  0.0377
10452W        W26261   2.885  16.376  10.650 -0.0007  0.3700 -0.2097
10453W        W26262   6.328  10.904  13.631  0.0558  0.1065  0.0741
10454W        W26263   1.763  10.862  12.035 -0.1336  0.0163 -0.0349
10455W        W26264   1.136   3.347   4.351 -0.1983  0.1481  0.1030
10456W        W26265  11.105   6.245  12.315  0.1322  0.2443 -0.4071
10457W        W26266  14.648  10.399   2.027 -0.2595 -0.1968  0.2962
10458W        W26267   3.970  11.570   5.625  0.1191  0.2962 -0.2435
10459W        W26268  15.998   2.515   4.706 -0.0544  0.1961 -0.2362
10460W        W26269  16.873   6.504   0.369  0.0652  0.0179 -0.0812
10461W        W26270   5.850   7.464   5.780  0.1926 -0.1950  0.3181
10462W        W26271   1.443  12.562  12.678  0.0255  0.1354  0.1540
10463W        W26272  13.017   6.079  12.231  0.2111 -0.0446  0.0047
10464W        W26273  16.104  10.728  14.155 -0.2893 -0.3499 -0.0210
10465W        W26274  14.162  12.531  15.238  0.0833  0.0005 -0.1062
10466W        W26275   5.565   1.031  11.184 -0.1906 -0.6874  0.0743
10467W        W26276   7.592   3.432  13.689  0.1140  0.2332  0.0690
10468W        W26277  17.600  15.372  14.321 -0.1693  0.5576 -0.0517
10469W        W26278   8.740   2.828   5.149 -0.0382  0.0596 -0.1798
10470W        W26279  16.330   7.561   0.545 -0.0016  0.0995 -0.2150
10471W        W26280  18.721  18.865   4.356  0.0436  0.1951 -0.4576
10472W        W26281  14.468   3.402   5.008 -0.1834  0.0174  0.3118
10473W        W26282   3.757  14.862   1.858 -0.1649  0.0605  0.1336
10474W        W26283   1.579   4.388   5.125  0.3051  0.1851 -0.2796
10475W        W26284  10.049   5.061   2.316 -0.1166  0.1950  0.2198
10476W        W26285  13.542   7.943   2.213 -0.3738 -0.3080  0.2007
10477W        W26286  13.211  14.523  15.195  0.2652 -0.0440 -0.1482
10478W        W26287  15.014   6.846   4.565  0.0413  0.1548 -0.1514
10479W        W26288   6.690   3.686   0.106 -0.1602 -0.1118 -0.1375
10480W        W26289  18.266   0.615   2.667 -0.2041 -0.0314 -0.0193
10481W        W26290   8.996   0.165  15.343  0.2816  0.1656  0.0630
10482W        W26291  15.317   7.198  15.294 -0.1605 -0.2114  0.0755
10483W        W26292  12.737  17.927   3.890  0.2206 -0.2224 -0.3547
10484W        W26293   4.819  14.864   1.023 -0.1006 -0.3804  0.3193
10485W        W26294   5.574  12.431  14.847  0.2511 -0.4513 -0.1234
10486W        W26295  11.273  11.038  12.000 -0.1551 -0.0392  0.2425
10487W        W26296   7.486  17.621  14.277  0.0613  0.2150 -0.0342
10488W        W26297   7.278  16.893   5.689  0.0442  0.1024  0.0544
10489W        W26298   2.595   0.637   2.097  0.3081 -0.0786  0.0239
10490W        W26299   9.809  18.825   5.176 -0.2536  0.2516 -0.0336
10491W        W26300  12.268   1.988   4.999 -0.2208  0.1502 -0.0629
10492W        W26301   5.138   8.805  13.862  0.0062 -0.2090 -0.1263
10493W        W26302   5.148   0.608  13.180 -0.2174  0.1082 -0.1348
10494W        W26303  12.283  16.239   5.436  0.1469 -0.0549 -0.2964
10495W        W26304  16.494  11.845   3.361  0.0369 -0.0098  0.0268
10496W        W26305   4.547   2.495   1.100 -0.0498  0.1253  0.2934
10497W        W26306   2.182   9.108  14.737 -0.1432  0.0110 -0.1697
10498W        W26307  18.023   0.510  12.724  0.2872 -0.1065  0.4173
10499W        W26308   0.667   5.464   0.612 -0.0167 -0.3080 -0.0147
10500W        W26309   3.436   5.277  13.810  0.1131 -0.4490  0.2382
10501W        W26310   0.587   7.784  11.116 -0.1264 -0.1815 -0.0812
10502W        W26311   0.895  13.350   4.164 -0.1625  0.3688 -0.3387
10503W        W26312  14.245  18.234   3.372  0.0866 -0.1657  0.1321
10504W        W26313   3.679  10.869  11.924 -0.3505  0.1703 -0.1126
10505W        W26314  10.686   2.049  14.966  0.1163 -0.5193 -0.2129
10506W        W26315  17.789   9.416  12.060  0.3633 -0.0086  0.1042
10507W        W26316   8.051   3.998  13.136 -0.0386 -0.0850  0.0159
10508W        W26317   6.080  14.670  12.294  0.0210  0.1344  0.2421
10509W        W26318  16.109  16.979   0.947  0.1479 -0.1988  0.1069
10510W        W26319   3.161   1.143   0.496 -0.0149 -0.2496 -0.0486
10511W        W26320  11.207   2.226  12.496 -0.2025  0.2137  0.1346
10512W        W26321  18.810   4.355  12.468 -0.1240 -0.0231  0.1549
10513W        W26322  15.193  14.831  10.928  0.2536  0.2894 -0.1573
10514W        W26323   8.810   5.338  14.955  0.0048 -0.0333  0.1301
10515W        W26324   4.695   7.217   0.630 -0.0566 -0.2098  0.1551
10516W        W26325   1.756  18.737  12.197  0.1285 -0.1059  0.1941
10517W        W26326  18.136  12.298   4.334  0.2254 -0.0173  0.2218
10518W        W26327  12.475  12.435  13.786  0.1114 -0.1870 -0.1336
10519W        W26328  18.703  14.857   3.061  0.2743 -0.0810  0.2266
10520W        W26329  13.639   9.108  14.179  0.1001 -0.2074  0.2799
10521W        W26330  17.946   6.720  12.949  0.1847 -0.2322 -0.0246
10522W        W26331   5.157   9.315  10.775  0.0542 -0.2404  0.1859
10523W        W26332   6.076   8.522   1.522  0.1106  0.2830  0.2283
10524W        W26333   7.034  18.882  10.897  0.0515  0.2162  0.0065
10525W        W26334   8.010   8.977   5.560 -0.0736  0.0843  0.0730
10526W        W26335  14.160  14.865   3.886  0.1533 -0.0103  0.0908
10527W        W26336  12.082   8.894   0.037  0.0431 -0.2601  0.2718
10528W        W26337   1.702   3.581  11.469  0.4193  0.0363  0.4318
10529W        W26338   3.447  11.064   1.765  0.1618 -0.1462  0.2035
10530W        W26339   7.391  13.486  12.414 -0.0581  0.1847  0.2268
10531W        W26340  17.149  14.166  12.477  0.2560  0.2685  0.0533
10532W        W26341  17.993  17.403   3.312  0.3708  0.0146 -0.0172
10533W        W26342   4.349   0.529  11.690 -0.1724 -0.1873  0.3302
10534W        W26343   3.171  13.775   2.507  0.0728 -0.1548 -0.0279
10535W        W26344   7.725   9.675   0.034  0.1165  0.3306  0.0655
10536W        W26345   4.113   2.254   2.288 -0.0696 -0.0245  0.4401
10537W        W26346  10.864  16.875   3.963 -0.3385  0.1749  0.1242
10538W        W26347   9.389  12.052   1.325 -0.0825  0.0933  0.0579
10539W        W26348   3.822  16.917   3.259  0.1967  0.1042 -0.1734
10540W        W26349   6.236   3.671   1.063  0.1476  0.4938  0.1456
10541W        W26350   6.211   4.271   2.289  0.0260  0.2830 -0.3156
10542W        W26351   0.591   8.199  11.806  0.2527 -0.2194 -0.0251
10543W        W26352  14.345   2.148  12.258  0.0435 -0.4445 -0.2079
10544W        W26353  18.222   3.885   4.280  0.0117  0.1347  0.3673
10545W        W26354  13.997   3.450  12.006  0.0084  0.1760 -0.2151
10546W        W26355  16.521   5.458  10.870  0.0662 -0.3132 -0.0493
10547W        W26356  12.108   2.602   2.104  0.1010 -0.0755  0.2168
10548W        W26357   2.084   8.632  14.574 -0.0003 -0.2365  0.3139
10549W        W26358   0.112   4.993   1.107  0.0029 -0.1115 -0.0529
10550W        W26359  12.465  18.108  13.270 -0.4488 -0.0590 -0.1091
10551W        W26360   0.273   9.302   1.627 -0.0185 -0.1321 -0.0031
10552W        W26361   8.581   8.611  11.811 -0.1456 -0.2658 -0.4497
10553W        W26362  14.665  10.144   5.212  0.4690  0.3370  0.0461
10554W        W26363  15.490   7.985  10.511  0.0246  0.0857  0.2057
10555W        W26364  17.720  16.713  11.221  0.1352  0.1047  0.0634
10556W        W26365  18.277   1.452   0.504 -0.3627  0.1566  0.1512
10557W        W26366   9.287  11.082  13.883 -0.1333 -0.2353 -0.2078
10558W        W26367   1.303   0.740   1.102  0.1257  0.2497 -0.1477
10559W        W26368  17.244  11.087  14.846 -0.1652  0.1853 -0.1650
10560W        W26369   4.310   5.908  13.756 -0.2526 -0.2428 -0.1866
10561W        W26370   6.093  17.748  10.755  0.1480  0.0293  0.2395
10562W        W26371   3.919  15.225  13.352 -0.3294 -0.1180 -0.2361
10563W        W26372  15.733  12.196  14.212  0.0128 -0.2965  0.0182
10564W        W26373   6.446   3.127   3.543 -0.1057 -0.4593  0.2765
10565W        W26374  18.030  18.863   2.030 -0.0395 -0.0868 -0.1405
10566W        W26375  11.280  14.770   4.125 -0.0243  0.1856  0.1120
10567W        W26376   9.886   4.840   1.242 -0.2787  0.1016 -0.1750
10568W        W26377  13.380   7.817  13.689 -0.1455 -0.0422 -0.1182
10569W        W26378  11.049  10.271  11.697  0.0214 -0.2010  0.0260
10570W        W26379  12.223  11.747   1.870 -0.1083 -0.1282  0.1944
10571W        W26380  11.490  17.319  15.019 -0.1083  0.2413  0.1570
10572W        W26381  17.407  18.777   3.296 -0.2276 -0.1581  0.3853
10573W        W26382  13.551  17.130  10.833  0.0700  0.1260 -0.0066
10574W        W26383   8.467   1.834   4.874  0.0245 -0.0996 -0.1120
10575W        W26384   6.418   2.626  10.992  0.1732 -0.0806 -0.1152
10576W        W26385   1.118   6.736  15.113  0.0474 -0.2746 -0.2076
10577W        W26386  12.716   5.510   4.806 -0.2526 -0.0188  0.0870
10578W        W26387   2.407   2.800  15.331 -0.0332  0.4005  0.5498
10579W        W26388  18.408  17.069  11.614  0.0890 -0.0678  0.1202
10580W        W26389  10.489  18.479  10.273  0.1012  0.2096 -0.1454
10581W        W26390  10.139   6.974   1.609  0.0461 -0.1724  0.1730
10582W        W26391  18.552  15.517  12.883 -0.0160 -0.0786 -0.0490
10583W        W26392   1.983   7.358   2.236  0.0953 -0.1657  0.1179
10584W        W26393  17.999   4.929   2.493 -0.5075  0.3479  0.2313
10585W        W26394  17.309  10.193   4.742  0.4121  0.1593  0.5661
10586W        W26395  16.351   3.349   1.679  0.4208  0.0593 -0.0104
10587W        W26396   3.505   3.392  11.918  0.0777  0.2172 -0.2388
10588W        W26397  15.861   5.626   1.938 -0.2290 -0.0860  0.4431
10589W        W26398   1.200   5.275   2.025 -0.0064 -0.0810 -0.1008
10590W        W26399   8.726  11.067   3.311  0.0937 -0.1748 -0.1947
10591W        W26400  14.424  16.820   4.804  0.0103  0.2573  0.0417
10592W        W26401   1.529   6.630  14.298 -0.2426 -0.1830  0.0676
10593W        W26402   7.135  14.487   0.272  0.1989  0.2658 -0.2867
10594W        W26403   6.155   4.148   4.754  0.2127  0.0671 -0.1014
10595W        W26404   0.252   2.896   2.400 -0.2109  0.0130  0.4152
10596W        W26405   7.299   5.043   4.362  0.0929 -0.1660 -0.1761
10597W        W26406   6.875   1.775   2.261 -0.1652  0.1887 -0.0244
10598W        W26407  18.817   2.018  12.323 -0.2136 -0.3210 -0.1554
10599W        W26408  17.303   3.297   3.660 -0.2684  0.0305 -0.0907
10600W        W26409   5.287  13.804   9.935 -0.0792  0.3974 -0.1010
10601W        W26410  10.634   4.139   5.169  0.0598  0.1605 -0.0437
10602W        W26411  11.672   7.711  13.325 -0.1079  0.0315 -0.0189
10603W        W26412  12.032   5.973   5.264 -0.1069 -0.2064 -0.1028
10604W        W26413   9.830   5.267   5.335  0.1588 -0.3863  0.5332
10605W        W26414  11.701   1.588   4.858 -0.1226 -0.1521 -0.2562
10606W        W26415  11.873   8.428   2.645 -0.0663  0.0977  0.2390
10607W        W26416  10.145  10.574  11.383 -0.1997 -0.0425 -0.0018
10608W        W26417   3.174  11.276  14.063  0.0372 -0.1261  0.4068
10609W        W26418   5.965   0.612   2.299 -0.1348 -0.2447 -0.0749
10610W        W26419  14.446  18.654  11.735  0.1036 -0.0499  0.2329
10611W        W26420   8.831  14.986  10.801 -0.3775 -0.1209 -0.3229
10612W        W26421   8.572  17.518  11.082 -0.3019 -0.1134  0.1058
10613W        W26422   3.012  12.425  13.312  0.2296 -0.1973  0.1242
10614W        W26423   5.009   3.524  13.859  0.0377 -0.0520  0.0570
10615W        W26424   9.873  14.410  11.556  0.0457 -0.1379  0.0122
10616W        W26425   7.901  12.798   0.399 -0.1705  0.1693  0.1882
10617W        W26426   0.156  14.169  11.088 -0.2028  0.2936  0.1892
10618W        W26427  16.931  16.358   3.896 -0.1327  0.0095  0.1418
10619W        W26428   7.832  10.083  13.765 -0.0105  0.4036  0.0180
10620W        W26429   7.808   7.558  12.078  0.1097  0.1995  0.2132
10621W        W26430   1.996   1.420   1.311  0.0857  0.0469 -0.0170
10622W        W26431   5.261   8.071  10.946  0.2676  0.0845 -0.0384
10623W        W26432   0.994   7.332  11.488  0.0091  0.2113 -0.0596
10624W        W26433  14.192   9.382  10.154 -0.3215 -0.1261  0.1946
10625W        W26434  15.209  15.352  10.959 -0.2547  0.0336 -0.2465
10626W        W26435   5.442   6.239   2.207 -0.2166 -0.1104 -0.1447
10627W        W26436  18.459  12.276   5.278 -0.0633 -0.0764 -0.2006
10628W        W26437   6.216   0.733  10.794  0.1561  0.1508 -0.0424
10629W        W26438   2.222  16.678  12.424 -0.3592  0.1308  0.2758
10630W        W26439   3.611  18.700  11.908 -0.1586 -0.0841  0.0243
10631W        W26440   6.322  17.352   0.594  0.0596  0.1252  0.2219
10632W        W26441  14.735  11.897  10.604  0.1379 -0.2013 -0.1450
10633W        W26442   3.956  12.582   4.271 -0.2417  0.2059  0.2998
10634W        W26443  17.945   1.336  12.705 -0.0058 -0.1318 -0.4600
10635W        W26444  15.929  17.264  14.905 -0.1381  0.2708  0.1158
10636W        W26445  10.042   8.151   3.543 -0.0083  0.4926 -0.0123
10637W        W26446   6.290   0.393  13.008  0.0220  0.2064  0.1692
10638W        W26447   4.358  18.042  14.817  0.0924 -0.0184  0.1531
10639W        W26448   6.282  11.943   1.264  0.1099  0.1693 -0.4202
10640W        W26449  11.490  14.815   0.387  0.0794  0.2708  0.0264
10641W        W26450   9.257  18.640   0.069 -0.0586  0.0529 -0.1882
10642W        W26451   2.975   5.588  13.161  0.1771  0.2553  0.1471
10643W        W26452   2.536   9.641   1.518 -0.1885 -0.3008 -0.1208
10644W        W26453   8.218  16.072  11.723  0.1059  0.2029 -0.0648
10645W        W26454  15.318   9.611  12.922 -0.0045  0.0034 -0.2070
10646W        W26455  17.377  14.087   4.065  0.0123 -0.0055  0.2180
10647W        W26456  12.270   5.198  13.299 -0.0143 -0.1561  0.2158
10648W        W26457  12.393  12.149   0.365 -0.0781  0.1779 -0.0432
10649W        W26458  15.433   7.532   1.912 -0.1340 -0.0107 -0.2484
10650W        W26459   0.787   8.646  13.357  0.1842 -0.0272  0.0827
10651W        W26460   2.662  12.285  14.705 -0.0233 -0.0360 -0.1311
10652W        W26461  18.220  18.839  11.583 -0.2647  0.3086 -0.0742
10653W        W26462  17.581  16.612   9.831 -0.1637 -0.0757 -0.4938
10654W        W26463  18.048  14.630  13.727  0.1280 -0.2290 -0.0786
10655W        W26464  17.050  15.444   3.918 -0.0560 -0.2369  0.4337
10656W        W26465   2.774  11.497  12.022  0.0126 -0.2945  0.4226
10657W        W26466   9.409   6.868   4.642  0.0990 -0.1911  0.0864
10658W        W26467  16.834   9.023   3.331  0.1331  0.0054 -0.3280
10659W        W26468  16.759   2.521  14.366 -0.0434 -0.1803 -0.0117
10660W        W26469  10.472   1.472  12.617  0.3445  0.1532 -0.2773
10661W        W26470   8.060   7.817   0.585 -0.3819 -0.1166 -0.0346
10662W        W26471  13.492   8.439   3.227  0.0669  0.2265 -0.0414
10663W        W26472   2.040   5.063   4.657 -0.3465  0.0162 -0.4157
10664W        W26473   4.886   5.979  10.837 -0.0138  0.0041  0.1892
10665W        W26474  11.368   7.280  14.593  0.2263 -0.0665 -0.1714
10666W        W26475   6.094   1.782   0.148 -0.2760  0.0876  0.2448
10667W        W26476   2.129   0.820  11.136 -0.2236  0.2221  0.1032
10668W        W26477   2.886  12.191   2.698 -0.0053  0.4785 -0.1469
10669W        W26478   1.823   7.826   1.254  0.3645 -0.0610  0.2011
10670W        W26479   7.019  12.681  13.606 -0.0140 -0.3592  0.3667
10671W        W26480   8.313   5.909   3.690  0.0983 -0.0450 -0.0943
10672W        W26481   5.837  17.464  14.867  0.0628  0.0711 -0.0727
10673W        W26482  18.790   0.328   2.278  0.3961 -0.0976  0.1450
10674W        W26483   6.367   3.251  13.195 -0.0502 -0.0817 -0.2120
10675W        W26484   1.950  15.498   1.123 -0.2153  0.0224 -0.0699
10676W        W26485  12.619  11.515   2.581 -0.2541 -0.3965  0.0045
10677W        W26486   3.943   7.036  14.246 -0.0984 -0.0340 -0.1682
10678W        W26487  12.598   2.881  10.834  0.2507 -0.1489  0.0568
10679W        W26488  10.318  13.154  13.601  0.0517  0.0522 -0.2612
10680W        W26489   6.122  15.941  13.029  0.0412  0.1294  0.2540
10681W        W26490   9.719  18.263   1.148 -0.2250 -0.0208  0.2331
10682W        W26491   4.104  14.550  13.761 -0.0105 -0.0273  0.3758
10683W        W26492   8.750   7.535  11.876  0.0522 -0.2437 -0.3102
10684W        W26493   0.652  17.909   1.366 -0.2875 -0.1584  0.1785
10685W        W26494  17.350   2.838   2.637 -0.3109 -0.0397  0.0788
10686W        W26495   4.127  14.728   2.852 -0.1574  0.0127  0.1854
10687W        W26496  10.718   3.340   2.467  0.1071  0.2787 -0.2302
10688W        W26497   6.947   9.274  14.888 -0.1923  0.2185 -0.2662
10689W        W26498  18.139  15.853   1.984 -0.1595 -0.1989 -0.0928
10690W        W26499  11.980   0.132   3.220  0.0910  0.1417  0.1261
10691W        W26500  14.190   9.446   1.428 -0.2545  0.0222 -0.0382
10692W        W26501  10.165   3.214   3.423  0.2099  0.2723  0.2427
10693W        W26502   9.657  18.050  11.672 -0.0010  0.0691 -0.1170
10694W        W26503   3.165  17.781   0.444 -0.1154 -0.0552 -0.3665
10695W        W26504  15.911  17.850   3.104 -0.0206  0.0942  0.3667
10696W        W26505  15.631  16.562  11.734 -0.0535  0.0467  0.1111
10697W        W26506   3.454  13.161   2.094  0.1048 -0.2514 -0.0356
10698W        W26507  17.287  12.741  14.706  0.0907 -0.0591 -0.1770
10699W        W26508  15.917  10.863  12.221 -0.0575 -0.0027 -0.1354
10700W        W26509  13.071  14.776  10.735  0.0409 -0.2361  0.3653
10701W        W26510  14.849   2.267   0.424  0.0842 -0.0433 -0.0946
10702W        W26511   1.272   2.821   0.494  0.0824 -0.1730 -0.3392
10703W        W26512  18.848  13.228  10.617  0.0434  0.4632 -0.0518
10704W        W26513   1.301   5.340  10.704  0.3551  0.0495  0.0881
10705W        W26514   4.644   1.805  10.627 -0.2478 -0.0484 -0.0735
10706W        W26515   2.602  17.630  12.537  0.1261 -0.3158  0.0110
10707W        W26516  16.624   4.579   3.746  0.1342 -0.3080  0.0266
10708W        W26517  10.237   1.174  13.082  0.0016  0.0656 -0.1480
10709W        W26518   7.252   8.835  11.902 -0.1421 -0.1715 -0.0760
10710W        W26519  17.895  16.056  14.477  0.0709  0.1330 -0.2103
10711W        W26520   3.832   6.734   1.734  0.2231  0.0623 -0.1641
10712W        W26521   4.024   6.709   0.458 -0.1329  0.1913 -0.0027
10713W        W26522   5.488  15.865  12.259  0.0291  0.1553 -0.0921
10714W        W26523  16.982  15.861  15.381 -0.2759 -0.0018 -0.0817
10715W        W26524  17.469  11.940  10.213 -0.0544  0.1358 -0.1697
10716W        W26525   4.949   0.339  11.754  0.3547  0.2252  0.3035
10717W        W26526   4.115  11.708  14.490 -0.0172  0.0155 -0.6246
10718W        W26527   3.603  10.713  12.614 -0.1529  0.0439 -0.2185
10719W        W26528   2.650   8.053   0.358 -0.2069 -0.2327 -0.0107
10720W        W26529  16.725   6.830  11.621 -0.0296 -0.0283  0.0105
10721W        W26530  14.350  17.343   0.869 -0.1397  0.0587  0.1469
10722W        W26531  15.725   8.999   2.029 -0.3198 -0.0887 -0.2826
10723W        W26532  10.877  14.412  12.662 -0.1935  0.1479  0.3775
10724W        W26533   0.340   1.090   4.338 -0.2457  0.0276  0.0715
10725W        W26534  12.699   4.413   2.737 -0.3666 -0.1766 -0.1690
10726W        W26535  11.897   9.925  14.913 -0.0876 -0.0452 -0.0240
10727W        W26536   9.732   5.341   4.745  0.0494  0.2178 -0.0429
10728W        W26537  10.533   6.365   4.414  0.0483  0.1495 -0.3102
10729W        W26538   3.865  10.641   4.313  0.1019 -0.1450  0.0806
10730W        W26539  13.451   1.791   4.864 -0.0704  0.0638 -0.1561
10731W        W26540  12.310   8.715   1.474 -0.1416 -0.0852  0.0777
10732W        W26541   9.464   9.411   5.630  0.0028 -0.1261  0.0922
10733W        W26542   8.636  14.802  12.869 -0.0624 -0.1123 -0.0145
10734W        W26543  12.983  16.583  15.360 -0.0620  0.2043  0.0210
10735W        W26544  13.738  14.965   2.177 -0.1593 -0.3004  0.1111
10736W        W26545  15.353  12.692   3.208 -0.1428  0.0507 -0.1100
10737W        W26546   5.239   7.525   2.149 -0.0878  0.0835 -0.0770
10738W        W26547  14.073   6.719  14.619  0.0222 -0.0644  0.2040
10739W        W26548  16.651   7.859  12.854 -0.3299  0.2726 -0.2135
10740W        W26549  16.966  11.507  12.162 -0.0564 -0.1910 -0.1626
10741W        W26550   0.661  10.873  11.054  0.3523 -0.0614 -0.1433
10742W        W26551  15.956   3.788  12.845 -0.2858 -0.3891  0.1829
10743W        W26552   2.184   7.597  13.675  0.1433 -0.2835  0.0184
10744W        W26553  17.325   2.891   0.944  0.1368 -0.0294  0.0675
10745W        W26554   6.637   1.012  13.473  0.1403  0.2098  0.0194
10746W        W26555  10.305  10.492   1.312  0.0428 -0.2221  0.0178
10747W        W26556  11.015   1.118   4.103  0.2626  0.0754 -0.2972
10748W        W26557   4.146  11.865   0.886 -0.2686  0.0549  0.0670
10749W        W26558  16.016   5.411  13.052 -0.0783  0.1220  0.3643
10750W        W26559   6.481   3.462   2.614  0.0943  0.0138  0.1670
10751W        W26560  12.561  10.745  14.524  0.1570 -0.0926  0.1704
10752W        W26561  16.374   0.706  11.227  0.0854 -0.0668  0.2810
10753W        W26562  13.646   4.868  11.274 -0.0109 -0.2316 -0.1416
10754W        W26563   1.996   4.563   1.245 -0.0408 -0.0902 -0.0037
10755W        W26564  13.644   8.006   0.924 -0.0928  0.0505 -0.0311
10756W        W26565   2.222   3.087   4.253 -0.2054 -0.0450 -0.0680
10757W        W26566   8.976   7.002  14.055 -0.0853  0.0827 -0.2801
10758W        W26567   0.772  16.853  14.008 -0.0931  0.3161  0.0538
10759W        W26568  12.498  12.914  12.161 -0.0935  0.1516 -0.0618
10760W        W26569   9.579  18.364   3.747  0.1460 -0.2041 -0.1225
10761W        W26570  12.200   4.755  12.102  0.0490 -0.2929  0.1755
10762W        W26571   4.986  17.352   1.880  0.0757 -0.3328 -0.0389
10763W        W26572   9.642   7.331  12.398 -0.1138  0.3565  0.2235
10764W        W26573  14.278   1.910  14.439  0.2726 -0.3710  0.2264
10765W        W26574   1.392   4.906   1.263 -0.1326  0.1240 -0.1177
10766W        W26575   9.156   0.908   1.552 -0.1662  0.1317 -0.0095
10767W        W26576  14.398   3.231   0.305 -0.5616 -0.0386 -0.3987
10768W        W26577   9.906   3.039   2.200 -0.1978 -0.2259  0.0856
10769W        W26578  16.349  13.144   5.425  0.2552 -0.1643 -0.1541
10770W        W26579  15.943   9.443  12.798 -0.0653 -0.0157  0.1029
10771W        W26580  10.371  11.617  10.615 -0.2040 -0.4048  0.3698
10772W        W26581   9.642   5.626  11.310  0.0029  0.2348 -0.2071
10773W        W26582   3.057  15.575   2.844 -0.0068  0.2186  0.3235
10774W        W26583   2.583   0.509  14.461  0.2764 -0.0529  0.0375
10775W        W26584  16.548  13.140  15.135  0.0259  0.0202 -0.1902
10776W        W26585  17.305  11.609   1.983  0.0751 -0.3220 -0.0015
10777W        W26586   1.919  12.024   4.041 -0.1859  0.2278 -0.1171
10778W        W26587  11.695  18.833  12.812  0.1845  0.2125 -0.1976
10779W        W26588   9.978   2.940  14.401  0.1468 -0.0400 -0.0602
10780W        W26589  12.445  13.111   2.431 -0.1715 -0.1539 -0.1381
10781W        W26590   0.243  18.204  14.689  0.0067 -0.0168  0.0484
10782W        W26591   7.576   4.763   0.179 -0.0503 -0.1585 -0.0309
10783W        W26592  11.795  12.618  14.523  0.0878  0.1264  0.0859
10784W        W26593   9.024  12.877  13.207  0.0586  0.0019  0.3137
10785W        W26594   7.824  15.187   4.451 -0.0164 -0.0918 -0.0871
10786W        W26595  16.114   1.304   3.835  0.1673 -0.2404 -0.1653
10787W        W26596   7.629  10.118   3.120  0.1985  0.1024 -0.3374
10788W        W26597   9.865  14.598   4.462 -0.2497 -0.4203 -0.1730
10789W        W26598  13.031   2.719  11.061 -0.1004 -0.2871 -0.0060
10790W        W26599  11.871   6.228   4.778  0.0096  0.1438 -0.1548
10791W        W26600   9.598   3.296  14.554  0.0993  0.0619  0.1154
10792W        W26601   0.794  10.219   1.557 -0.0766 -0.1229 -0.2535
10793W        W26602  18.665   1.956   3.161  0.1587  0.1418  0.8239
10794W        W26603   8.205   7.342  14.702  0.0486  0.1074 -0.2210
10795W        W26604  12.077   8.533   1.907  0.2397 -0.1997  0.0956
10796W        W26605  16.869   3.525  10.779  0.0426  0.0707 -0.1730
10797W        W26606  13.828   6.691   2.700  0.0726  0.2973  0.1430
10798W        W26607  14.799  15.150  14.573  0.1285 -0.0670 -0.0921
10799W        W26608   1.039   2.538  12.435  0.1516 -0.0610 -0.0048
10800W        W26609   9.530   9.074   3.575  0.0088  0.1020 -0.3228
10801W        W26610  15.002  10.829  10.768 -0.5078 -0.0770 -0.0429
10802W        W26611   1.675   6.153  14.709  0.1395 -0.1015  0.1646
10803W        W26612   8.249   3.144   5.393 -0.1059  0.0302  0.1672
10804W        W26613   2.363  10.232  12.583  0.2969 -0.1479 -0.0495
10805W        W26614   8.798   1.616  15.104  0.0914  0.0217 -0.2155
10806W        W26615  16.971  18.501  14.511 -0.0530 -0.0659  0.3344
10807W        W26616  12.014  15.752  14.494  0.1299  0.2526 -0.1638
10808W        W26617  13.717  12.378  12.812  0.0316 -0.0379  0.2162
10809W        W26618   4.818  13.897  12.628  0.0171 -0.1971 -0.3128
10810W        W26619   6.655  11.721   3.343 -0.2324  0.0517  0.0444
10811W        W26620  18.381   1.823   2.347 -0.1039 -0.1513  0.3538
10812W        W26621   8.597  18.768   4.235  0.1507  0.2120  0.1522
10813W        W26622  11.055  13.265   2.667  0.0045  0.0646  0.5620
10814W        W26623   2.946   6.263  15.061 -0.1037 -0.0300  0.3284
10815W        W26624  13.372  18.529   1.687  0.1684 -0.2162  0.0938
10816W        W26625  17.547  11.633   3.468  0.3900 -0.1491 -0.0721
10817W        W26626  12.599  11.700   4.222  0.0642 -0.1322 -0.0232
10818W        W26627   2.215  16.679  14.219  0.0529  0.1375 -0.0019
10819W        W26628  17.708  16.025  12.765  0.0407 -0.0531  0.1677
10820W        W26629  13.387  17.981  11.029 -0.0859  0.0715 -0.0085
10821W        W26630  11.250   0.460  14.692 -0.0768  0.0388  0.0549
10822W        W26631  13.966  18.663   1.426 -0.1404 -0.0175  0.0166
10823W        W26632   6.300  14.697   4.722  0.3446  0.1000  0.1677
10824W        W26633   1.242  11.314   2.227  0.0693 -0.4016  0.1799
10825W        W26634  13.470  16.922   3.649 -0.3263 -0.3148 -0.2257
10826W        W26635  13.701   8.177   3.607  0.0980 -0.1232  0.0309
10827W        W26636   4.127  11.218  14.178 -0.1189  0.1371  0.1210
10828W        W26637  12.031  18.100  13.009  0.2253 -0.3739  0.3628
10829W        W26638   1.307  11.954  10.350 -0.0518 -0.1664  0.1451
10830W        W26639  11.934  16.592  13.947  0.1769  0.1185  0.0439
10831W        W26640   5.250   1.941   2.422  0.0803  0.1139 -0.0974
10832W        W26641  17.501  11.458  15.014  0.1209 -0.2805 -0.1672
10833W        W26642  14.560  15.382  14.148  0.1267  0.3261  0.1758
10834W        W26643  17.988  12.161   2.279  0.0677  0.1276 -0.1121
10835W        W26644   0.703  17.119   0.959  0.0725 -0.0798 -0.0240
10836W        W26645  11.374  17.524   4.317  0.0986  0.0628  0.1788
10837W        W26646  16.033  16.491  13.931  0.0094 -0.1334 -0.0566
10838W        W26647   2.088  17.824  11.810 -0.2648 -0.0013  0.3574
10839W        W26648  18.628   3.213  11.488  0.0790 -0.3076 -0.0680
10840W        W26649  15.623   8.461   4.806  0.1452 -0.3307  0.1357
10841W        W26650  13.218   3.952   3.615 -0.1444  0.0454 -0.0437
10842W        W26651   4.576   2.476   2.168  0.2350 -0.1723 -0.1210
10843W        W26652  17.551   0.636   4.694 -0.1265  0.1756 -0.2283
10844W        W26653  10.604  13.785   0.453  0.3764  0.5534 -0.2353
10845W        W26654  10.753   3.255  14.883  0.0011  0.3498 -0.2635
10846W        W26655  16.667   7.018   4.450  0.1975 -0.4184  0.3610
10847W        W26656   9.983  17.195   4.421  0.0493  0.1031 -0.3780
10848W        W26657   2.910   8.226   3.467  0.0667 -0.1158  0.0937
10849W        W26658   8.797   2.071   3.891 -0.1082  0.1963 -0.1046
10850W        W26659  10.233  15.002   2.615 -0.0135  0.2526 -0.0040
10851W        W26660  15.439  15.213  14.191  0.3440 -0.2662 -0.3136
10852W        W26661  16.048   5.892   3.033 -0.0733 -0.3098  0.1824
10853W        W26662  15.932   2.861  11.536  0.0058  0.2231 -0.1594
10854W        W26663  18.910  12.814   2.005 -0.1349 -0.0099 -0.3677
10855W        W26664   8.063  12.204   5.273  0.0813 -0.0739 -0.0769
10856W        W26665   2.231  12.471  14.930 -0.4217  0.4378  0.0369
10857W        W26666   2.351   6.601   0.740  0.4885  0.2376  0.1999
10858W        W26667  11.781  13.440  10.712  0.2505  0.1520 -0.2229
10859W        W26668   1.964  17.964  14.732 -0.1517  0.0941 -0.1736
10860W        W26669   1.114   7.412   3.282 -0.2449  0.0777 -0.1922
10861W        W26670   3.087   0.424  14.205  0.1473  0.1260  0.0852
10862W        W26671  12.399  16.517   4.948 -0.0000 -0.1148  0.3581
10863W        W26672   9.702  12.592   4.538 -0.1864 -0.2579 -0.1215
10864W        W26673  16.344   5.188  13.347  0.1750 -0.1483  0.1018
10865W        W26674   5.239  16.759   3.535  0.0715  0.0961  0.1278
10866W        W26675  10.302   7.650  10.993 -0.1311 -0.1921 -0.0987
10867W        W26676   5.389   9.990  12.168 -0.3221 -0.1566  0.2230
10868W        W26677   4.183   2.348   1.403 -0.2245 -0.0259  0.0459
10869W        W26678   3.490  18.102  12.277  0.0238 -0.1056 -0.3390
10870W        W26679  18.474  15.256  15.055  0.2422  0.3805 -0.3260
10871W        W26680   8.410  17.644  14.063 -0.3423 -0.2784 -0.2307
10872W        W26681   3.643  11.228   1.317  0.3225  0.1735  0.0379
10873W        W26682   5.870   0.665  13.218 -0.0009 -0.4070 -0.0208
10874W        W26683   5.277  14.727   3.943 -0.2223  0.1905 -0.0384
10875W        W26684  10.482  14.418   3.390 -0.0133 -0.2217  0.1399
10876W        W26685   8.533   9.729   1.460 -0.1200  0.1526  0.2775
10877W        W26686  12.999  17.844   5.908 -0.0094 -0.2696  0.3039
10878W        W26687   7.010   7.112  14.179  0.0093  0.0952 -0.3947
10879W        W26688  15.641  18.558  13.525  0.1476  0.1253 -0.1060
10880W        W26689   4.879   3.746  13.099  0.0080 -0.2416  0.2072
10881W        W26690  16.100   9.217   3.898  0.1016 -0.3589 -0.0161
10882W        W26691  18.891   1.337   1.911 -0.0666 -0.3788 -0.4707
10883W        W26692   8.609   2.939  10.894  0.2484  0.1313  0.2884
10884W        W26693   0.550   9.636  12.539 -0.0587 -0.3588  0.0801
10885W        W26694  18.499  12.764   1.680  0.2833  0.0752 -0.1481
10886W        W26695   6.697   8.886   1.761 -0.0752  0.0628 -0.1472
10887W        W26696  14.047  15.941   2.178  0.0069  0.0540 -0.0941
10888W        W26697  11.906  13.700  13.276 -0.1297 -0.0578  0.0514
10889W        W26698   2.838  13.947  13.160 -0.0334  0.1508  0.2038
10890W        W26699   3.586   4.865  14.133  0.0387 -0.1035  0.3323
10891W        W26700  16.791  11.345  12.629  0.2130  0.1229 -0.1785
10892W        W26701  12.043   8.147  13.054 -0.0013  0.1917  0.1469
10893W        W26702  11.965   9.156   3.280  0.5281  0.2917  0.4097
10894W        W26703  16.669   5.025  14.734 -0.0153  0.2055 -0.0320
10895W        W26704   5.517  10.238   3.735 -0.0667  0.2048 -0.3988
10896W        W26705   6.029   7.716  12.672 -0.1469 -0.0864  0.0065
10897W        W26706   8.455  13.918   4.990  0.0004 -0.0717 -0.0523
10898W        W26707  13.087  17.201   3.586 -0.0375  0.0979 -0.0630
10899W        W26708   3.402  15.314  13.557 -0.0468 -0.1175  0.1934
10900W        W26709  13.473  10.676  12.807 -0.2036 -0.1669  0.1469
10901W        W26710   1.595   9.852   9.578 -0.1548  0.0604 -0.4505
10902W        W26711   0.796   3.812   4.803  0.4581 -0.0192  0.1105
10903W        W26712   8.107  14.325  10.845 -0.0220  0.2322  0.0859
10904W        W26713   6.524  11.239   3.496  0.1514 -0.0208 -0.0204
10905W        W26714  10.542  17.943  14.589 -0.0464  0.0375  0.1006
10906W        W26715   0.746   9.986  11.111  0.2551  0.2415  0.3724
10907W        W26716  18.788   5.099   4.627 -0.3443 -0.0773  0.0714
10908W        W26717  11.768   2.781   5.629 -0.3109 -0.1438 -0.1650
10909W        W26718   1.349  10.382   3.803 -0.3281  0.1305  0.2297
10910W        W26719  16.190   1.175   4.820 -0.2112 -0.2856  0.2957
10911W        W26720  12.886  17.663   3.429  0.1466 -0.0706 -0.1763
10912W        W26721   3.735  15.212  12.731 -0.0175  0.2682  0.1303
10913W        W26722  17.031  17.812   1.774 -0.1270  0.1693 -0.2784
10914W        W26723  11.384  15.457  13.387  0.1199 -0.1963 -0.0196
10915W        W26724  10.547  15.947   0.180 -0.0253  0.1088  0.1396
10916W        W26725   0.828  16.423   1.835 -0.0759  0.2228 -0.1513
10917W        W26726   5.140   5.197   9.421  0.1682  0.0732 -0.2731
10918W        W26727   0.955   2.744  14.090  0.3832  0.1243 -0.3263
10919W        W26728   4.105   7.377  13.521 -0.4865 -0.1418 -0.3131
10920W        W26729   8.406  12.006   0.340 -0.1388 -0.2202  0.1159
10921W        W26730   8.043  15.480  11.636 -0.1377  0.0489  0.1888
10922W        W26731  12.467  16.218  10.910 -0.0919  0.0350  0.0737
10923W        W26732   3.225   2.596  14.031 -0.0639  0.0167  0.1449
10924W        W26733   1.949  11.573   1.753 -0.1965  0.1260 -0.5056
10925W        W26734  12.463   8.256   3.370  0.0647  0.0300  0.1730
10926W        W26735   4.167   5.249   4.715 -0.1726 -0.2973 -0.0419
10927W        W26736  15.088   2.140  14.684 -0.1329 -0.0724 -0.2488
10928W        W26737   2.472   4.312  15.017 -0.2447  0.1314 -0.3016
10929W        W26738   6.028   6.540   4.967  0.0062  0.0294 -0.0728
10930W        W26739   7.207   6.791   0.752  0.0242  0.2440 -0.2506
10931W        W26740  10.431   5.788   0.999  0.0772 -0.1218 -0.2577
10932W        W26741  14.978   8.132   5.693 -0.1438 -0.0404  0.1693
10933W        W26742  11.523  10.189  11.822  0.3501  0.0030  0.2121
10934W        W26743   1.896   6.751   3.278  0.0914  0.1078  0.0628
10935W        W26744  13.660  13.386   3.747  0.2860  0.1189  0.1635
10936W        W26745  12.593   8.881   2.102  0.0002  0.4053  0.1265
10937W        W26746   2.737  11.373   1.332 -0.1159 -0.0829  0.2938
10938W        W26747  15.914  12.211   9.722 -0.2195 -0.3252  0.1227
10939W        W26748  15.406  13.002  10.708  0.1391 -0.3084  0.1802
10940W        W26749   5.916  11.671  10.935  0.2018 -0.0183 -0.1466
10941W        W26750  16.317   6.486  13.612  0.5957  0.3710  0.1770
10942W        W26751  15.722  15.089   2.308  0.0277 -0.3171 -0.1838
10943W        W26752   1.913  13.644   4.013  0.0262  0.1116 -0.2060
10944W        W26753  12.672   7.913   5.104  0.4706 -0.1782  0.0177
10945W        W26754  16.391   5.273   5.647 -0.2769  0.1672  0.1458
10946W        W26755  11.449  15.624  10.690  0.0155  0.2862  0.1190
10947W        W26756  14.974   2.612   0.019  0.1889 -0.1093 -0.0796
10948W        W26757  11.285  12.612  10.788 -0.1729 -0.0641 -0.1194
10949W        W26758   6.017   6.143   5.225 -0.2893  0.1733 -0.3676
10950W        W26759   4.675   4.055   3.013  0.4254  0.2196 -0.1698
10951W        W26760  15.981  18.858  11.109  0.3631  0.2086  0.0157
10952W        W26761   4.920   4.976  12.157 -0.0682 -0.0251 -0.0757
10953W        W26762  13.323  16.626   0.755  0.1310 -0.3455  0.0614
10954W        W26763   7.520   0.414   4.878 -0.0680 -0.2656  0.0380
10955W        W26764  13.443   9.844   0.081  0.1629 -0.2200  0.0261
10956W        W26765  10.034  11.371  14.536 -0.1624  0.0338 -0.3231
10957W        W26766  18.106  10.597  13.313 -0.0128 -0.1598  0.0402
10958W        W26767   9.487   9.969   2.422  0.1271  0.0742 -0.1838
10959W        W26768   1.226   9.898  11.901 -0.1338  0.0070 -0.1328
10960W        W26769  11.907   5.378   0.404 -0.3596  0.3688  0.2902
10961W        W26770  12.598   9.535   3.953 -0.0175 -0.5006 -0.0541
10962W        W26771   7.138   6.669  14.460  0.1059 -0.0616 -0.1723
10963W        W26772  13.120   9.087  13.228  0.1033  0.1008  0.0605
10964W        W26773   2.226  10.882  14.192 -0.0763  0.0249 -0.0388
10965W        W26774  12.629  18.339  11.498 -0.0867  0.0329 -0.2539
10966W        W26775   5.231   5.429   2.621 -0.2176 -0.1300 -0.1386
10967W        W26776   4.226   3.812   1.941 -0.0246  0.1266  0.0691
10968W        W26777   7.438  14.059   0.259 -0.0120  0.2668  0.3421
10969W        W26778  14.761   8.749  12.243  0.1650 -0.2696 -0.0472
10970W        W26779   9.917  12.477   5.731  0.2148  0.1823 -0.0686
10971W        W26780   1.480   4.947   0.246  0.1916  0.1140 -0.2153
10972W        W26781  12.199   7.894   5.077  0.2263 -0.0882 -0.1459
10973W        W26782   1.427   7.549   4.761 -0.0898  0.3105  0.1220
10974W        W26783  13.699  10.277  14.573 -0.1144  0.2136  0.2079
10975W        W26784   8.465   0.029  10.924  0.0524 -0.1345  0.2290
10976W        W26785   7.556  14.730   4.243 -0.3785  0.2138  0.1602
10977W        W26786  16.813   2.249   1.588 -0.1100 -0.2438 -0.3351
10978W        W26787  14.692  15.593   3.592 -0.1443 -0.1598 -0.3054
10979W        W26788   0.624  15.209   0.538 -0.1149 -0.1253 -0.0844
10980W        W26789  17.273   9.500   1.696 -0.2341  0.0057 -0.0581
10981W        W26790   9.397  17.031  14.153  0.2712  0.1681  0.0570
10982W        W26791   5.915  17.976  15.091 -0.0759  0.2729  0.4170
10983W        W26792   5.490  13.773   1.495 -0.0778  0.0277 -0.1349
10984W        W26793   6.011  12.776   9.390 -0.3357  0.0162 -0.1970
10985W        W26794   4.282  10.754  15.017  0.0424  0.0523 -0.1636
10986W        W26795  18.205  13.149   5.468 -0.0391  0.1282  0.1833
10987W        W26796   9.468   4.463   0.524  0.1319 -0.1518  0.0436
10988W        W26797   3.738   2.981   1.324 -0.0018  0.0053 -0.3014
10989W        W26798   2.274  16.964   3.576 -0.0232  0.1317 -0.1329
10990W        W26799   2.408   6.232   3.952  0.0081 -0.0579 -0.0218
10991W        W26800   9.522   1.870  11.289  0.2951  0.0941 -0.0125
10992W        W26801   4.130  11.761  13.077 -0.3194  0.0122  0.1014
10993W        W26802  11.885   5.999  11.752 -0.2980 -0.0941 -0.2413
10994W        W26803  18.241  11.004  11.142 -0.2349  0.3647  0.1106
10995W        W26804   5.839   2.001  10.961 -0.2884  0.1163 -0.0941
10996W        W26805   8.656  11.315   1.413  0.1893 -0.1605  0.2660
10997W        W26806  17.800   7.182   2.660  0.0740 -0.3417 -0.2809
10998W        W26807  17.570  13.846  13.487 -0.0443  0.1905 -0.1157
10999W        W26808   6.393   3.705  14.919  0.4177 -0.2198  0.1116
11000W        W26809  13.077  13.619  11.145  0.3529  0.2494  0.3525
11001W        W26810  13.292   0.449   0.614  0.0833  0.0564 -0.0194
11002W        W26811  18.789  15.335   5.282 -0.3150  0.1200  0.0774
11003W        W26812   0.730   4.666   1.764  0.2821  0.1228  0.3497
11004W        W26813  12.240   9.092  15.065  0.2731 -0.2243 -0.0316
11005W        W26814  14.159   9.981  14.675  0.0316 -0.0856 -0.1932
11006W        W26815  13.650  12.075   3.368 -0.0123 -0.0683 -0.0160
11007W        W26816  11.355  14.909   1.911 -0.0895  0.0879 -0.0260
11008W        W26817   4.991   5.323   3.964  0.2440 -0.2296  0.0899
11009W        W26818   3.156  12.011   5.842 -0.1493 -0.0105 -0.0268
11010W        W26819  17.754   1.088  14.043 -0.1361  0.0294 -0.2258
11011W        W26820  11.666  17.686   2.509  0.2063 -0.0588 -0.0062
11012W        W26821   7.893  16.712  13.161  0.3357  0.0123  0.0685
11013W        W26822  11.947   6.866   0.099  0.0859 -0.1873  0.0087
11014W        W26823  17.250  14.545   1.292 -0.0843 -0.0179  0.1539
11015W        W26824  14.885  15.125  12.314  0.0262 -0.0651  0.3913
11016W        W26825   4.493   7.462  11.067 -0.0755 -0.0728 -0.2127
11017W        W26826  16.270   3.675  14.702  0.2570 -0.0351  0.0750
11018W        W26827   2.487   2.372   0.761  0.0134  0.0328 -0.3325
11019W        W26828   8.140   6.760   3.395 -0.0665  0.2134  0.0118
11020W        W26829   8.048   6.733   0.551  0.2115  0.0843 -0.3102
11021W        W26830  13.410  10.860   0.555  0.0620  0.4264 -0.2905
11022W        W26831   8.135  12.427   4.295  0.2156  0.1817 -0.1301
11023W        W26832  12.034  15.109   2.730  0.1462 -0.3486 -0.1923
11024W        W26833   2.049  14.660   2.803 -0.1970  0.1749  0.0914
11025W        W26834   8.283   2.660  14.562  0.3173 -0.0176 -0.1501
11026W        W26835   7.888   6.455   4.970  0.0582 -0.1257 -0.0448
11027W        W26836  15.089  11.165   4.159 -0.3228 -0.2395 -0.1780
11028W        W26837   3.578  10.563   4.728  0.2693 -0.1260  0.2539
11029W        W26838   3.383   0.538  11.292  0.0039 -0.1920 -0.2436
11030W        W26839   7.087  13.660   0.740  0.1127  0.0845 -0.2616
11031W        W26840   5.265   2.721  12.150  0.0582  0.2811 -0.0567
11032W        W26841  15.777  11.455  13.093 -0.0258 -0.1595 -0.1121
11033W        W26842  13.844  10.258  10.099  0.1556 -0.0595  0.0102
11034W        W26843  10.481   4.275  13.968  0.4078  0.1114 -0.2558
11035W        W26844  18.392  16.026  11.602 -0.1664 -0.3350  0.0844
11036W        W26845   7.577  12.759  12.450  0.1171  0.4358  0.0287
11037W        W26846  11.440   6.588   0.832  0.1245  0.1459 -0.0282
11038W        W26847   0.209   9.087   0.413  0.1350  0.3058 -0.1200
11039W        W26848   5.369  14.109   1.177  0.0588 -0.3722  0.0260
11040W        W26849   4.417   5.172  14.903 -0.1261  0.1282 -0.1392
11041W        W26850  10.470  10.950   4.591 -0.1050  0.0119  0.1626
11042W        W26851  18.293  11.245   3.815  0.0573 -0.0885 -0.3872
11043W        W26852   1.056   1.248   0.277 -0.2354  0.1073  0.2785
11044W        W26853  18.598  10.289   3.196  0.5023 -0.0893  0.0307
11045W        W26854  17.561   0.409  12.791 -0.0575 -0.0670 -0.0761
11046W        W26855   6.043  17.233   4.374 -0.1810 -0.0231  0.1410
11047W        W26856   3.148  13.270   0.140 -0.1749 -0.3621  0.3594
11048W        W26857  17.733   1.074  11.970  0.0519 -0.3100  0.0912
11049W        W26858  18.220  16.839  14.110  0.1905 -0.2251  0.0963
11050W        W26859  13.834   2.926   2.327 -0.0913  0.0260 -0.0369
11051W        W26860   7.369   2.631   4.778  0.1421 -0.1505 -0.2262
11052W        W26861  10.552  15.016  14.638  0.1371 -0.1293 -0.0277
11053W        W26862  14.753   8.294  13.228 -0.0390 -0.1977 -0.2208
11054W        W26863   9.484   4.853  12.170 -0.1522  0.0222 -0.1723
11055W        W26864  12.313   6.881   1.135  0.2258  0.0072  0.2066
11056W        W26865  10.085  11.101   3.269  0.0532 -0.1392  0.1951
11057W        W26866   4.868   0.006   0.024 -0.1742  0.2737  0.3083
11058W        W26867  15.707   4.158   1.046  0.1359  0.1925  0.0646
11059W        W26868   8.403  16.434   5.681 -0.1341 -0.3406  0.3765
11060W        W26869  15.631  11.063   3.782  0.2274 -0.1561 -0.1052
11061W        W26870  11.126  16.147  14.151 -0.0690  0.3204  0.3974
11062W        W26871   2.662   6.209  11.258  0.1094 -0.0603  0.0634
11063W        W26872  10.743  13.742   2.684 -0.1558 -0.0984 -0.1368
11064W        W26873  13.796  10.489  12.439  0.2058 -0.1229  0.1449
11065W        W26874  17.622   3.895   1.446 -0.1122  0.0411 -0.2476
11066W        W26875  13.019   6.481   3.752  0.0132  0.0562 -0.2210
11067W        W26876   0.909   9.792  14.940  0.4805  0.1673 -0.0122
11068W        W26877   6.558  14.332   5.162 -0.0327  0.0609 -0.0061
11069W        W26878  17.474  12.898  11.873  0.0580 -0.2736  0.1484
11070W        W26879  18.125   3.043   3.037  0.0338 -0.1468  0.3011
11071W        W26880  11.494   4.708   3.685 -0.1116 -0.0814  0.3366
11072W        W26881   5.746  17.822  12.924  0.2250 -0.1632 -0.2017
11073W        W26882   0.059   8.796  10.874 -0.0263  0.3308  0.0872
11074W        W26883  11.547   3.822   4.614  0.1260 -0.1241  0.1112
11075W        W26884  15.309  17.917   1.562  0.0855  0.0110 -0.1003
11076W        W26885  18.254  15.244  13.756  0.1579  0.0316  0.2548
11077W        W26886  18.364  12.658   0.216  0.5850  0.2011  0.6672
11078W        W26887  16.233   3.289   2.622 -0.0428  0.0182 -0.1409
11079W        W26888  10.028   4.804  11.400 -0.2099 -0.1077 -0.0454
11080W        W26889   2.347   5.156  13.475  0.2289 -0.1429  0.1461
11081W        W26890   0.569   1.675   3.280  0.0304  0.2331  0.3208
11082W        W26891   0.541  17.300   2.994  0.2005  0.2250 -0.0568
11083W        W26892   3.298  15.953   3.164 -0.1722  0.1066 -0.2478
11084W        W26893  10.051  18.724   1.274  0.0298 -0.0738 -0.1238
11085W        W26894   2.759  16.564  12.510  0.0310  0.1091 -0.2492
11086W        W26895   6.634   5.649  10.953 -0.3884 -0.0716 -0.0733
11087W        W26896   3.459  10.312   1.073  0.2045 -0.0720  0.0550
11088W        W26897   0.771   2.929  11.832 -0.5557  0.0881 -0.2257
11089W        W26898  11.179  10.656   1.505 -0.0766  0.0361  0.0041
11090W        W26899   1.096  14.191  11.445  0.1008 -0.5275  0.0387
11091W        W26900   7.972  17.257  12.866 -0.1024 -0.0712  0.1263
11092W        W26901   8.823   8.350   2.392 -0.2781  0.0023 -0.1677
11093W        W26902  13.328   0.494  10.434 -0.0997  0.1021 -0.2018
11094W        W26903  18.151   0.062   3.765 -0.1040  0.0990 -0.3348
11095W        W26904   4.291  10.257  14.649  0.0180 -0.1292  0.1892
11096W        W26905   8.579   5.084   1.179 -0.0090  0.0841 -0.2170
11097W        W26906   3.467  15.034   4.494  0.2748  0.0181  0.2244
11098W        W26907   2.016   5.167   0.386  0.2564  0.1382  0.1056
11099W        W26908   0.841  13.238  15.210  0.2861 -0.1792  0.1629
11100W        W26909  18.843   1.225   0.196  0.1806 -0.0796  0.0557
11101W        W26910  14.213  13.384   3.874 -0.0770  0.4956 -0.2669
11102W        W26911  14.088   1.266  11.377 -0.3927 -0.1940  0.1874
11103W        W26912   4.586  15.977  13.190 -0.0475  0.0074 -0.1985
11104W        W26913  14.688   1.575   2.027  0.0090 -0.4290 -0.0709
11105W        W26914   8.239  13.514   3.826 -0.1647 -0.2206  0.2177
11106W        W26915   4.237  17.064   0.240  0.0921 -0.3464 -0.0060
11107W        W26916  10.172   0.313   1.449 -0.0515 -0.1015 -0.1093
11108W        W26917  16.968   5.694   2.772  0.4507  0.0789 -0.0433
11109W        W26918   9.378   6.559  10.534  0.0085 -0.2418 -0.1956
11110W        W26919   4.794   7.649   4.412 -0.0548 -0.2392 -0.2932
11111W        W26920  13.822   4.673   3.730  0.0163 -0.0876  0.0539
11112W        W26921  14.943  16.281  11.067  0.2271  0.2070 -0.0882
11113W        W26922  12.110  14.001   4.840  0.1020  0.0395  0.3137
11114W        W26923  17.286  10.114  12.733  0.3463  0.0581 -0.1376
11115W        W26924   3.558   9.426   4.771  0.1421 -0.3523  0.1082
11116W        W26925   8.703   4.933  11.465  0.0653 -0.0833 -0.0885
11117W        W26926   5.142   4.102   3.853 -0.0591 -0.1098  0.0491
11118W        W26927   2.348   0.799  13.480  0.2136 -0.2621 -0.2657
11119W        W26928   5.391  13.791  13.496  0.2648 -0.1593 -0.1251
11120W        W26929   6.912   9.946   0.549 -0.0764 -0.0271  0.0593
11121W        W26930  15.474   5.675  10.992  0.0077 -0.1242 -0.2349
11122W        W26931   9.304  15.982   2.593  0.2359 -0.3191 -0.0530
11123W        W26932  18.713  14.021   3.334 -0.1192 -0.2247 -0.1538
11124W        W26933  11.915   9.505  12.437 -0.0142  0.2144 -0.2673
11125W        W26934  17.131   9.591   5.032 -0.0414  0.0318 -0.0787
11126W        W26935  13.089   7.760  12.554 -0.1818  0.0665 -0.0961
11127W        W26936   1.041   5.184   2.499 -0.2041  0.1156  0.0555
11128W        W26937  12.969  17.554   0.920  0.1453  0.0362 -0.3455
11129W        W26938   4.970   3.248  13.099 -0.1775  0.3033  0.2727
11130W        W26939   9.440   0.030   4.834 -0.1807  0.1375 -0.0740
11131W        W26940  10.971   0.281  11.405 -0.1939  0.1403 -0.3919
11132W        W26941  10.282   4.118   2.580  0.1135 -0.1710 -0.4367
11133W        W26942  14.358   0.145  14.317 -0.1375  0.1121  0.1899
11134W        W26943  14.439  14.456   4.434 -0.0227  0.2327 -0.0497
11135W        W26944   1.067  17.942  15.096  0.3350  0.0334  0.1121
11136W        W26945  13.579  16.718   4.726  0.3320  0.3791  0.0482
11137W        W26946  12.683  14.724  12.072  0.0064  0.2157 -0.1679
11138W        W26947   7.070  12.389   3.961 -0.2526 -0.0736  0.1024
11139W        W26948   1.617  12.916   0.045 -0.1111  0.1289  0.0844
11140W        W26949  15.374   6.496   5.697  0.1582 -0.0159  0.0230
11141W        W26950  10.034  11.059  15.005  0.0684  0.1340 -0.2481
11142W        W26951   8.259  11.162  14.344 -0.1394 -0.0069 -0.1798
11143W        W26952   4.159   0.674  11.161  0.0622  0.0076 -0.1582
11144W        W26953  15.526  10.754  11.652  0.2404 -0.2717 -0.1410
11145W        W26954   6.460   4.426   0.375  0.0882  0.1651  0.1505
11146W        W26955   9.298  15.814  13.106  0.3346  0.1505 -0.1816
11147W        W26956  12.413   4.310  11.168 -0.1771  0.2129  0.3931
11148W        W26957   0.536   8.595   5.226 -0.0832  0.0720 -0.1854
11149W        W26958   7.297  16.412  12.081  0.1621  0.0264 -0.0913
11150W        W26959  14.685  16.650  12.674  0.0977  0.1058  0.0938
11151W        W26960   1.509  17.404   3.794  0.0031 -0.1212 -0.3510
11152W        W26961  17.445   1.369  14.444 -0.1452  0.2421 -0.1579
11153W        W26962  12.080   1.604  11.231 -0.1342  0.0692 -0.3887
11154W        W26963   3.141  18.024   1.429  0.0426  0.1899  0.1716
11155W        W26964  16.775   3.851   0.660 -0.0576 -0.2345  0.0928
11156W        W26965  12.600  11.196   3.074 -0.0721  0.1611  0.0759
11157W        W26966   4.490  10.880   0.889  0.1943  0.2988 -0.1026
11158W        W26967   5.789   0.320  11.518  0.0021 -0.2574  0.2286
11159W        W26968  14.338  16.620  13.970 -0.0018  0.0110 -0.2150
11160W        W26969  14.069  14.713  13.926  0.1451 -0.2031 -0.0600
11161W        W26970   6.559   8.188  11.940 -0.1889 -0.0883  0.0544
11162W        W26971   2.650   8.371   1.753 -0.3609 -0.1377 -0.0802
11163W        W26972   6.945  11.343   9.317 -0.0727  0.0625  0.2366
11164W        W26973   5.408  17.112  11.039 -0.1421  0.1270  0.1877
11165W        W26974   6.223   5.550  13.983  0.0438  0.0079  0.2212
11166W        W26975  11.915  14.194  13.655  0.0905 -0.0658 -0.0119
11167W        W26976   2.395   4.354   3.301  0.3873 -0.2575 -0.2575
11168W        W26977  18.893   6.621   0.873 -0.1291  0.0436 -0.3029
11169W        W26978  17.176   0.904   1.534  0.0932  0.1590  0.1178
11170W        W26979  13.557  10.805   2.799  0.1183 -0.1641  0.0083
11171W        W26980   6.531  15.459   1.751  0.0811  0.0282  0.0208
11172W        W26981  11.289  11.858   3.962 -0.0916  0.1475  0.1520
11173W        W26982   2.767  13.139  12.915 -0.0347 -0.1705  0.0492
11174W        W26983  14.164   7.889   5.075  0.0696  0.1276 -0.1083
11175W        W26984   9.068   6.713   4.313  0.2704  0.3785 -0.1137
11176W        W26985  11.961  13.956   1.089  0.0443 -0.3968  0.1143
11177W        W26986  15.275   3.358  13.845 -0.1636  0.2137  0.2493
11178W        W26987  11.210   8.700  13.260 -0.1010 -0.0090 -0.0761
11179W        W26988   0.910  13.696   1.609  0.0798 -0.1725  0.1729
11180W        W26989  14.449   4.823   1.043 -0.1349 -0.1688 -0.2021
11181W        W26990   9.133   8.835  12.565 -0.2303  0.0789  0.2074
11182W        W26991  11.645   4.922  14.662 -0.1687  0.0301  0.0721
11183W        W26992   8.784   2.417  14.518 -0.3084 -0.0709  0.2878
11184W        W26993   6.983  14.266  10.267 -0.0284  0.0685  0.0077
11185W        W26994  14.459  17.178  14.785 -0.2113  0.1440 -0.0454
11186W        W26995   6.631  12.812  14.807 -0.1108  0.3202 -0.2614
11187W        W26996  16.172  11.070   5.073 -0.0513  0.1598 -0.3430
11188W        W26997  18.411   1.714   5.672  0.0820  0.0587  0.1938
11189W        W26998   5.427   4.315   3.478 -0.0506 -0.1565  0.1694
11190W        W26999  15.981  14.231   3.081 -0.0853  0.2206 -0.0542
11191W        W27000   2.967   0.861  13.998 -0.0443 -0.0041  0.2831
11192W        W27001   6.557  18.682   2.283 -0.2995  0.0197  0.0750
11193W        W27002   2.851   5.864   3.651 -0.1756  0.0257  0.0989
11194W        W27003   7.978  10.550   4.626 -0.3279  0.0375 -0.2927
11195W        W27004   8.145   3.776   2.735 -0.1110 -0.1259  0.0308
11196W        W27005  16.329   5.947  10.949  0.4048  0.0375 -0.1272
11197W        W27006   8.539   4.388   1.250  0.1388  0.0934  0.0902
11198W        W27007   1.118  12.277   0.233 -0.0997  0.0722 -0.1792
11199W        W27008   5.329  13.925   0.633 -0.1206  0.2076 -0.2367
11200W        W27009   8.470   9.352  11.564  0.2359 -0.0614 -0.1222
11201W        W27010  12.876  10.490  14.066  0.0512  0.3265  0.0182
11202W        W27011  10.269  11.192  13.597  0.1484  0.0743  0.1369
11203W        W27012  10.519  15.935   1.186 -0.0223  0.2613  0.0112
11204W        W27013   7.774  11.091   1.834 -0.1419 -0.0364 -0.1171
11205W        W27014   2.329  13.773  11.685  0.0525 -0.0461  0.1809
11206W        W27015   5.160  16.512  11.392 -0.1292  0.0816 -0.2546
11207W        W27016   8.503   9.246   1.480 -0.3246 -0.0084 -0.1532
11208W        W27017   0.403   4.988  11.835  0.0937  0.3017 -0.2158
11209W        W27018   8.572   5.016   2.091 -0.2363  0.0108  0.0777
11210W        W27019  16.433  12.406   4.942  0.0670 -0.1828  0.0987
11211W        W27020   7.222  15.572   2.082  0.0615 -0.2289  0.0328
11212W        W27021  12.328   0.339   2.815 -0.2847 -0.0581  0.1606
11213W        W27022  15.371  16.740  12.334 -0.0738  0.1289 -0.2707
11214W        W27023   8.645  10.745   6.220  0.1472 -0.2492  0.1264
11215W        W27024  14.276  10.274  14.144  0.3827  0.0164 -0.0278
11216W        W27025   4.036  14.461   1.110 -0.1818 -0.2482  0.0042
11217W        W27026   4.231  18.634  12.000 -0.0243 -0.4676  0.1172
11218W        W27027  10.401   5.070   2.937 -0.0398 -0.0659 -0.1985
11219W        W27028   7.880  17.879   2.027 -0.3112  0.2214  0.0481
11220W        W27029  17.224   0.051   0.084  0.2682  0.2650  0.0276
11221W        W27030   7.820  17.714  12.609  0.2801 -0.0946 -0.2558
11222W        W27031  15.340   3.088   1.548  0.4147  0.2819  0.1957
11223W        W27032   8.481  16.808  13.808 -0.1241  0.0768 -0.0640
11224W        W27033   2.943   6.912   2.885  0.1423  0.0551 -0.0746
11225W        W27034   0.362  11.541   0.604 -0.0157  0.1002  0.1833
11226W        W27035  16.939  18.909  12.110  0.1533  0.0427  0.1408
11227W        W27036  13.837   9.680   0.455  0.0797 -0.2529 -0.1485
11228W        W27037  11.834   6.194   0.813  0.2092 -0.1029 -0.1661
11229W        W27038  16.084  16.479   5.372 -0.1668 -0.0987 -0.0672
11230W        W27039  13.857  12.753   4.909  0.1809 -0.0210 -0.0564
11231W        W27040  16.004  14.560   1.449  0.0852 -0.0959  0.1021
11232W        W27041   4.443   0.892   4.798  0.1976  0.3979  0.0763
11233W        W27042   2.357   9.817  12.797 -0.2334  0.2464 -0.0491
11234W        W27043   0.231   7.003   1.196  0.1490  0.2661  0.2009
11235W        W27044  18.261  15.743  11.063 -0.0747  0.2211  0.1928
11236W        W27045  10.394  12.635   3.468 -0.1361 -0.0869  0.1179
11237W        W27046  10.759  17.185  12.019  0.1308  0.0709  0.1297
11238W        W27047   5.642   8.295   1.661 -0.0777 -0.0951  0.1470
11239W        W27048   7.778   1.316  14.598  0.0420 -0.3227 -0.0478
11240W        W27049   2.343  12.344  11.668  0.2793  0.3901 -0.0660
11241W        W27050   1.110  15.602   2.213 -0.2218 -0.1586  0.2390
11242W        W27051  12.980   0.683  11.999  0.0847  0.3834  0.1000
11243W        W27052  15.602   4.415  14.408 -0.0392 -0.0092  0.2338
11244W        W27053   9.213  18.356  15.101  0.0969 -0.4376  0.2524
11245W        W27054   2.861   8.545  13.012 -0.0746  0.1724  0.1448
11246W        W27055   8.970   2.811   5.575 -0.0944  0.0736  0.2212
11247W        W27056   4.420   3.555  14.058 -0.0947 -0.3386 -0.2785
11248W        W27057  17.729   5.078  15.273  0.1488  0.2439  0.1889
11249W        W27058   7.927  16.646   0.676  0.0510  0.2713  0.2851
11250W        W27059   9.611   6.328   1.211  0.1447  0.0661 -0.0701
11251W        W27060  16.111   7.346  10.888  0.0522  0.0245 -0.1032
11252W        W27061  15.343  15.997  11.107 -0.0365  0.2667  0.3211
11253W        W27062  18.061   2.039  14.070 -0.2624 -0.0079  0.4736
11254W        W27063   2.278  17.358  13.655 -0.1359  0.4845 -0.1636
11255W        W27064   5.501  12.917  12.652 -0.0765  0.0946 -0.2441
11256W        W27065   7.456   6.006  13.974  0.3535 -0.1307 -0.3765
11257W        W27066  16.813   5.134   4.486  0.2622  0.4526  0.2527
11258W        W27067   4.160  16.015  11.723  0.0726 -0.1005  0.1622
11259W        W27068  18.728   2.199  14.628  0.1604  0.1077  0.3324
11260W        W27069  11.486   6.687   3.526 -0.0026 -0.0442  0.0160
11261W        W27070  12.352   2.513  14.317  0.2098 -0.2862 -0.1495
11262W        W27071  12.339  18.157   4.294 -0.3269  0.0635 -0.0069
11263W        W27072  15.704   8.284   2.905 -0.3192  0.2044  0.2634
11264W        W27073  13.314  16.765  12.764 -0.0409 -0.1116  0.1520
11265W        W27074  13.997  17.468   1.764 -0.1178  0.0255 -0.0941
11266W        W27075   3.821   3.677  12.207 -0.0638 -0.0970 -0.1725
11267W        W27076   3.121  18.210  13.163 -0.0558  0.2544  0.0640
11268W        W27077   2.434   8.267   0.757 -0.2650  0.2058  0.0744
11269W        W27078   2.125   6.177  11.460  0.1399  0.0263 -0.1687
11270W        W27079   8.891  11.895  12.023 -0.1088 -0.2411 -0.3329
11271W        W27080   2.443  15.419   1.060 -0.0747  0.0644 -0.0731
11272W        W27081   0.090  17.310  12.929 -0.0967  0.1759 -0.1270
11273W        W27082   9.330   6.870   2.607 -0.3297  0.5179 -0.0688
11274W        W27083  10.372   3.449  13.691 -0.1564  0.1045  0.2489
11275W        W27084   2.422  13.567  12.953 -0.0610  0.4078  0.2792
11276W        W27085   1.693  16.018  13.239 -0.3656  0.1043  0.1556
11277W        W27086   8.021  14.709   1.084  0.0336  0.0008  0.4200
11278W        W27087   3.337   7.695   5.457 -0.0904  0.3399 -0.1861
11279W        W27088  12.793   7.414   3.148 -0.1708 -0.3495  0.1524
11280W        W27089  10.787   8.961   0.573 -0.1292  0.0759  0.1475
11281W        W27090  18.756   7.892   1.065  0.3903  0.0192  0.2283
11282W        W27091   3.320   2.111  11.892 -0.2132  0.0527  0.1257
11283W        W27092   3.495  11.715   2.358 -0.1479 -0.0135 -0.0889
11284W        W27093   7.722  17.655   3.912  0.2131  0.2045 -0.1050
11285W        W27094  12.255   6.020  10.923  0.0828 -0.0271 -0.1527
11286W        W27095  14.332  11.168   4.487  0.0822  0.1265 -0.0881
11287W        W27096  18.621   6.729  10.827 -0.1444  0.1543 -0.0710
11288W        W27097   2.434   0.088   1.875 -0.3514 -0.0477 -0.2511
11289W        W27098   6.232  12.850  11.325 -0.0459 -0.0883 -0.1327
11290W        W27099   8.160  15.252  13.981 -0.2455  0.3475  0.2177
11291W        W27100  11.597  17.809   4.679 -0.3954  0.3313  0.0050
11292W        W27101   9.043  16.122  12.141  0.2860  0.0653  0.0997
11293W        W27102  14.663  14.602   4.877 -0.0066 -0.1972 -0.2709
11294W        W27103  13.277  17.343  13.662  0.0565  0.0032 -0.2102
11295W        W27104  14.443  14.432   3.381 -0.0876  0.1433  0.3744
11296W        W27105   9.817   2.658   0.971  0.0905  0.0099 -0.0894
11297W        W27106   4.616  11.597   3.885 -0.0894 -0.1429 -0.2252
11298W        W27107  15.548   5.933  14.930  0.3944 -0.2713  0.0269
11299W        W27108   3.114  11.262  12.888  0.1225 -0.1443  0.0078
11300W        W27109   0.054   7.307   0.128  0.1593 -0.2192 -0.0232
11301W        W27110  15.141   6.840  14.292 -0.3505 -0.0375 -0.0743
11302W        W27111  14.309  13.596  10.631 -0.3122 -0.1501 -0.1476
11303W        W27112   4.954   0.436   2.228  0.2060  0.0371  0.2791
11304W        W27113   6.474   4.505  10.575 -0.1606  0.4145  0.0809
11305W        W27114   8.327   5.543   1.793  0.0129  0.4051 -0.1284
11306W        W27115   4.993  10.319   0.787  0.1672 -0.0281 -0.0713
11307W        W27116   7.498  16.063  12.384  0.0818  0.3110  0.1328
11308W        W27117   0.015   9.086  13.649  0.1177  0.1460 -0.3484
11309W        W27118   1.454   0.594   4.284 -0.0257 -0.2237 -0.0395
11310W        W27119   0.165  17.891  13.953  0.0675 -0.3248  0.0454
11311W        W27120  15.876   4.905   9.713 -0.3147 -0.0930 -0.1204
11312W        W27121  18.094   1.772  12.901  0.1800 -0.0610  0.3376
11313W        W27122  10.320  16.206  14.591 -0.1336  0.1584  0.0561
11314W        W27123   1.653   7.838   5.195 -0.0348  0.2090 -0.2137
11315W        W27124  14.095   1.180  13.177 -0.3390  0.3799 -0.0229
11316W        W27125  12.780  18.064  11.990  0.3080 -0.2385 -0.0981
11317W        W27126   6.216  10.642   0.714  0.0364  0.3095  0.0806
11318W        W27127   7.872   4.227  10.938  0.0846 -0.1647 -0.1178
11319W        W27128   8.016  18.779   2.350  0.0236  0.0521 -0.0863
11320W        W27129  12.501  13.519  13.377 -0.2338  0.2181  0.2176
11321W        W27130  16.529   8.090   4.592 -0.2618 -0.1209 -0.0871
11322W        W27131   4.996   4.102   2.573 -0.0619  0.0218 -0.1041
11323W        W27132   4.133  13.049   5.010 -0.0464  0.2346  0.0386
11324W        W27133   8.215   0.672  12.711  0.1521  0.0503  0.2258
11325W        W27134   3.778   3.465  15.303 -0.1671  0.1061  0.1373
11326W        W27135   7.345   3.827  12.316  0.4008 -0.0687  0.1816
11327W        W27136  13.151   6.694   2.510 -0.1722  0.1820  0.2522
11328W        W27137  10.865  11.451  10.580 -0.0656 -0.3960  0.0410
11329W        W27138   3.763  16.310   1.258  0.0995 -0.2219 -0.1284
11330W        W27139  11.638   0.427  12.289 -0.0574 -0.1331 -0.1284
11331W        W27140   0.020   4.104   3.785  0.0465  0.0825  0.1012
11332W        W27141   3.698   2.567  14.235 -0.1544  0.1313  0.0958
11333W        W27142   0.943  10.338   6.543  0.0562  0.3410  0.0750
11334W        W27143  13.007   7.384   6.030  0.0828 -0.2118  0.2242
11335W        W27144   8.747   1.065   5.120 -0.0458 -0.0807  0.1011
11336W        W27145  11.507  13.890   3.345  0.1468  0.1801 -0.4127
11337W        W27146  10.506   3.828   0.156 -0.0065 -0.0312 -0.1002
11338W        W27147   2.146   3.337  14.386 -0.0682 -0.2612 -0.0736
11339W        W27148   2.533   7.580   2.229  0.0092 -0.4988  0.0696
11340W        W27149  12.314   5.841   3.322  0.0767  0.1512  0.0863
11341W        W27150  16.160  12.199  10.589  0.0705 -0.2814  0.0549
11342W        W27151  12.466  12.430  12.906  0.0264  0.0137 -0.0208
11343W        W27152  17.474  17.072   3.342  0.4923 -0.0654 -0.2101
11344W        W27153  15.402  15.603  15.270 -0.2424 -0.0701 -0.1685
11345W        W27154  17.916   9.904  11.296  0.1850 -0.1938  0.0575
11346W        W27155   0.007  18.543   4.011  0.0854  0.0755 -0.2588
11347W        W27156  12.636  18.572   1.112  0.0409 -0.1677 -0.0522
11348W        W27157   8.431  10.823  13.859 -0.0015 -0.1252 -0.4086
11349W        W27158  17.734  11.549   2.925 -0.1160  0.1126  0.1232
11350W        W27159   6.752  10.874  15.170  0.0247  0.0788  0.0807
11351W        W27160  15.167   7.139   3.271  0.5471 -0.1419  0.1445
11352W        W27161   3.976   5.119  13.941  0.2953 -0.0816 -0.3141
11353W        W27162  10.309   6.355   3.239 -0.1855 -0.4640  0.0638
11354W        W27163   2.538   1.865   0.281  0.0281  0.1845 -0.0390
11355W        W27164   3.368   1.829  12.422 -0.0734 -0.0348 -0.2300
11356W        W27165  10.265  11.409   1.120  0.1066 -0.3634 -0.2743
11357W        W27166   9.493   7.760  13.083  0.1990 -0.0040 -0.1310
11358W        W27167  14.970   7.308   5.340  0.1771 -0.5292  0.2257
11359W        W27168  14.723  17.644  11.641  0.2391  0.0270  0.1984
11360W        W27169  12.205   4.732  14.703 -0.2552  0.3612 -0.1404
11361W        W27170  14.455   4.802  14.636 -0.0710 -0.2150  0.2307
11362W        W27171   0.317   2.542   0.748  0.3890 -0.4026 -0.1562
11363W        W27172  12.769   2.397  15.291 -0.0422 -0.2082  0.0337
11364W        W27173  16.444  12.812   4.612 -0.2357  0.2931 -0.1465
11365W        W27174   9.873  14.929  13.483  0.0322  0.1172  0.1771
11366W        W27175   6.761   6.109  11.134 -0.0677  0.2714 -0.5077
11367W        W27176  15.634  16.461   2.892  0.0678 -0.3323 -0.1037
11368W        W27177   7.017   6.409  15.315  0.0296 -0.0047  0.1857
11369W        W27178   2.896  14.327   2.522  0.1194 -0.2642  0.1627
11370W        W27179  18.527  18.307  13.946  0.0882 -0.1676 -0.1222
11371W        W27180   7.879   8.313   1.505 -0.2105 -0.0071 -0.0731
11372W        W27181  11.364   9.366  13.894  0.2942  0.4139 -0.0406
11373W        W27182   9.647   9.953   0.915  0.0960 -0.0961 -0.1663
11374W        W27183   8.870  15.535   0.993  0.3366  0.0473 -0.2245
11375W        W27184  15.295  16.409  14.057  0.5195  0.0183  0.0606
11376W        W27185  17.473  12.329   3.302 -0.2135 -0.2966 -0.0559
11377W        W27186   6.468  17.422  11.806  0.1218  0.0652  0.1666
11378W        W27187   9.151   8.676  14.987  0.1281  0.1037  0.1865
11379W        W27188  10.238   9.126  13.086  0.1986 -0.0365 -0.1836
11380W        W27189  12.929  12.611  12.285 -0.1782  0.0729 -0.1095
11381W        W27190   1.579  11.641   2.222 -0.3137  0.0283  0.2216
11382W        W27191  12.590  13.628  14.708 -0.0126  0.0957  0.2814
11383W        W27192  17.825  11.104  10.507 -0.0523  0.0547  0.1544
11384W        W27193   9.629   6.130   4.790  0.0614 -0.2259  0.1352
11385W        W27194   5.193  15.630   4.807 -0.0422 -0.0791  0.0233
11386W        W27195   6.148   1.206  13.459  0.1908 -0.0177  0.1244
11387W        W27196  16.535  16.491   4.660  0.2720 -0.0542 -0.0517
11388W        W27197   2.967  10.994  13.638  0.0735 -0.3276 -0.0156
11389W        W27198  11.455  18.280  15.194  0.0113  0.1406 -0.0839
11390W        W27199   1.547   9.356   3.577 -0.1894  0.1207 -0.0511
11391W        W27200   8.129  17.678  11.198  0.0079 -0.0692  0.0488
11392W        W27201  11.044   3.073  14.499 -0.1927 -0.1974  0.2863
11393W        W27202   2.888   1.883   5.610 -0.3476 -0.1477 -0.0844
11394W        W27203   7.854  16.850  12.587  0.1517 -0.2458  0.0783
11395W        W27204  14.597  10.880  11.453 -0.0167 -0.2530 -0.0939
11396W        W27205  16.588  12.043   2.603 -0.2025  0.2784  0.2805
11397W        W27206   5.038  10.380  12.237 -0.0682 -0.0101 -0.1401
11398W        W27207   6.801   6.521   3.708 -0.0091  0.0860  0.0010
11399W        W27208   5.350   6.020   2.732 -0.0114 -0.2472  0.1225
11400W        W27209  10.351  13.953   1.841  0.0488 -0.0793 -0.0835
11401W        W27210  14.215   4.700   4.543 -0.2119 -0.2655 -0.1262
11402W        W27211  11.502   1.636   0.283  0.0892  0.1312 -0.0347
11403W        W27212  10.854   4.672   5.181  0.2518 -0.2951  0.2556
11404W        W27213   2.522   1.696   3.446  0.2889 -0.0806  0.2651
11405W        W27214   7.830  11.357  12.612 -0.2705 -0.0906  0.0690
11406W        W27215   8.686  16.032  12.477 -0.0485  0.1222 -0.3434
11407W        W27216  17.859   2.942   0.729  0.1308 -0.0347 -0.1566
11408W        W27217   2.041   4.945  14.443 -0.1052 -0.1085 -0.1840
11409W        W27218   7.969   0.197  10.745  0.2570 -0.0044  0.0883
11410W        W27219   0.611   0.119   2.817  0.3525 -0.1589 -0.0565
11411W        W27220   9.252  12.858   4.629  0.1343  0.0134  0.4121
11412W        W27221   0.209  17.773  10.783  0.1521  0.0532 -0.0575
11413W        W27222   5.410  17.314  10.566  0.0279  0.1894 -0.0211
11414W        W27223   5.246   0.782   5.125 -0.0100  0.0448 -0.1836
11415W        W27224  13.253  17.492  11.061  0.3415 -0.1522 -0.0380
11416W        W27225  12.178   5.765  14.013 -0.0654  0.2693  0.0416
11417W        W27226  17.681   7.847   2.318  0.0657  0.0486 -0.0800
11418W        W27227   0.910  12.109  13.670 -0.2334  0.2619  0.0878
11419W        W27228  11.637  10.547   0.081 -0.3143 -0.0046  0.1664
11420W        W27229  12.670  13.047   2.922 -0.0673  0.0626  0.0829
11421W        W27230  15.337   4.870  10.920 -0.0366  0.2781  0.0189
11422W        W27231  14.403  14.492   2.497 -0.0154  0.4331  0.1531
11423W        W27232   4.790   0.157   4.660  0.0069 -0.2170  0.0802
11424W        W27233  16.929  14.517  12.080 -0.0829  0.2820  0.1146
11425W        W27234  15.809   3.252  14.005  0.1573  0.1301  0.0378
11426W        W27235  15.657   0.530   2.383  0.0394 -0.0424 -0.3205
11427W        W27236  17.905   4.026  13.231  0.0018 -0.2392 -0.1942
11428W        W27237   4.919   5.614   0.097  0.1534 -0.1916  0.1145
11429W        W27238  11.742  12.365  10.736  0.2491  0.1274 -0.0558
11430W        W27239   5.586   4.032   1.827  0.3594  0.0154 -0.1824
11431W        W27240  13.778   6.974   1.989 -0.3891 -0.0096  0.4539
11432W        W27241   1.927   6.527  13.514  0.0024 -0.2442 -0.0684
11433W        W27242   2.593  18.730  14.933 -0.2448  0.3408 -0.0248
11434W        W27243   8.127  18.474   3.278  0.0613  0.4529 -0.3980
11435W        W27244   6.394   1.623   2.260 -0.2454 -0.3888 -0.1631
11436W        W27245   0.425  18.448  11.661 -0.1517  0.4488 -0.0114
11437W        W27246  18.357   6.029  13.528  0.1344  0.2284  0.0063
11438W        W27247   4.721  16.677   1.464 -0.0612  0.1460  0.1688
11439W        W27248  11.117   1.372   0.328 -0.1834  0.0906  0.0496
11440W        W27249  18.687   1.137   4.896 -0.0195  0.1072 -0.0904
11441W        W27250  13.198   1.721   3.551  0.1580 -0.2952  0.0613
11442W        W27251  10.966  14.440  14.187 -0.0765  0.4904 -0.2146
11443W        W27252   3.611   0.129   2.448  0.0533  0.1117  0.3338
11444W        W27253   0.647   9.769  13.270 -0.0554  0.1728  0.3313
11445W        W27254   5.751   1.687  14.114  0.0738  0.0597  0.0373
11446W        W27255  15.302  15.368  13.259 -0.0674 -0.0844  0.1773
11447W        W27256  18.431  14.502   3.329  0.1966  0.3624  0.2569
11448W        W27257   8.051  18.828   0.340 -0.1636  0.0061 -0.1674
11449W        W27258   6.638   4.893  14.248  0.0909  0.1821 -0.0378
11450W        W27259  14.078  15.883   2.759  0.1076  0.0340 -0.1278
11451W        W27260   6.147  15.138  11.806  0.0989  0.0845  0.0955
11452W        W27261  11.190   4.109   1.597 -0.2287 -0.4060 -0.4526
11453W        W27262  17.258  13.381  13.030 -0.1860  0.3445  0.0476
11454W        W27263   8.839  15.499  10.916 -0.0233 -0.0239  0.1432
11455W        W27264   9.776   7.680   2.225  0.0449  0.1330  0.1017
11456W        W27265   7.209  14.608  15.185 -0.1755  0.3134 -0.1932
11457W        W27266  17.493  18.015  10.937  0.0191 -0.0195 -0.3529
11458W        W27267   1.636   6.243   0.038  0.0411 -0.1722 -0.1064
11459W        W27268   3.446  16.243   4.957  0.4032  0.1170 -0.2751
11460W        W27269   7.828  11.001   2.778  0.2134 -0.3098  0.1983
11461W        W27270  13.476  13.311   0.593 -0.0343  0.1344 -0.3371
11462W        W27271   8.019   3.201  14.645 -0.0244 -0.1122 -0.1010
11463W        W27272   3.144  16.163   3.602 -0.0082 -0.2274 -0.4465
11464W        W27273   2.292   4.971   0.016  0.0588  0.1849  0.2329
11465W        W27274  15.464   0.418  11.914  0.0075  0.1469 -0.3252
11466W        W27275  14.959   3.870  13.754 -0.0985  0.3671  0.0742
11467W        W27276   7.481  17.189  14.522  0.2339  0.0409  0.1776
11468W        W27277  11.577   9.220   1.501 -0.3403 -0.0872  0.1555
11469W        W27278  17.047   8.880  14.971  0.2449  0.0861 -0.0143
11470W        W27279  16.774  14.923  12.282  0.0735 -0.2794  0.0677
11471W        W27280   4.309   1.555  12.757  0.0699  0.0665  0.2616
11472W        W27281   2.506  12.575  10.644 -0.1874 -0.0283 -0.0119
11473W        W27282  15.525   8.108   4.300 -0.1245 -0.0005 -0.1008
11474W        W27283  11.489   7.350   5.037 -0.0166  0.2256  0.2122
11475W        W27284  15.350   4.740   2.241 -0.1805 -0.1951 -0.1284
11476W        W27285  13.312  15.403   2.425 -0.0756 -0.1959 -0.2922
11477W        W27286   2.308   1.116   1.460  0.1959  0.1156 -0.4341
11478W        W27287   5.357   0.545   1.328  0.1702  0.1027  0.1198
11479W        W27288   3.340  17.134   0.981 -0.5044 -0.1206 -0.1969
11480W        W27289  18.916   7.919  14.149  0.1540 -0.4369  0.0777
11481W        W27290   4.618  18.218   3.012 -0.1759  0.3555  0.0307
11482W        W27291  17.284   3.170  10.732  0.2413  0.1385  0.1923
11483W        W27292  16.685  12.775   2.229  0.0391 -0.3576 -0.0440
11484W        W27293   7.320  15.604  14.029  0.4772 -0.2848  0.0806
11485W        W27294   7.611  13.819  12.090 -0.1862 -0.0256 -0.1758
11486W        W27295   2.614   2.779  14.774 -0.0133  0.1272  0.4172
11487W        W27296   3.454   3.571   4.333  0.2099  0.0199  0.0553
11488W        W27297   9.550  12.155  11.520  0.2854  0.0899 -0.0453
11489W        W27298  12.182  11.404   4.403  0.0587  0.0396  0.0207
11490W        W27299   5.446  11.404  11.215  0.0806  0.4043  0.1152
11491W        W27300   3.015   3.594   0.191 -0.2010  0.0609  0.2112
11492W        W27301   8.792   9.520   3.692 -0.0515  0.1988 -0.2241
11493W        W27302  14.734   8.202   1.819  0.1367 -0.2867  0.1774
11494W        W27303   3.065  16.751   2.065 -0.3807 -0.1453  0.1415
11495W        W27304  16.893  18.647   2.588  0.1296  0.0113  0.1357
11496W        W27305   2.371  17.879   5.373 -0.2290 -0.0636 -0.0604
11497W        W27306  10.076  13.502   4.345 -0.3547 -0.1062  0.0095
11498W        W27307  13.240  12.738   0.043 -0.0371 -0.1535  0.0692
11499W        W27308   6.824  13.637   1.625 -0.0136 -0.3263  0.1917
11500W        W27309   0.909  17.063  11.786  0.2855 -0.2058 -0.0962
11501W        W27310   6.085  18.287   2.810  0.1235  0.3413 -0.0092
11502W        W27311  15.319   5.834  12.553 -0.0554  0.2785  0.2011
11503W        W27312   5.560   0.409   5.347 -0.2028 -0.1604  0.0347
11504W        W27313   3.857  11.306  11.353  0.0333  0.2545  0.0705
11505W        W27314  13.720   3.538  12.870 -0.0938  0.0435 -0.3751
11506W        W27315   7.176  15.977   1.258 -0.0167 -0.0277 -0.0005
11507W        W27316   2.275   5.231   2.715 -0.0307  0.1872 -0.1965
11508W        W27317  13.941   0.829   0.175 -0.0649 -0.0815 -0.2740
11509W        W27318  12.916   7.055  12.040  0.0247 -0.1205 -0.1730
11510W        W27319   3.080  13.776  10.629  0.3609  0.2380 -0.1309
11511W        W27320   0.016   3.110  14.375  0.2750 -0.1284 -0.2166
11512W        W27321   1.147  13.444  13.778  0.0469 -0.1391  0.2522
11513W        W27322   6.106   9.521  15.190 -0.2107  0.2121 -0.1156
11514W        W27323   8.377  16.165  11.209 -0.2125 -0.0674  0.0007
11515W        W27324  14.322  15.788   5.411  0.1234  0.4048  0.1963
11516W        W27325   4.796  17.712   4.903 -0.0600 -0.2782 -0.0101
11517W        W27326  18.833  13.147  13.402  0.0907  0.2025  0.2452
11518W        W27327  11.894  10.570  14.145 -0.1952  0.1240 -0.0608
11519W        W27328  16.808   6.562   0.927 -0.1010 -0.1676 -0.2678
11520W        W27329   5.040  10.851   0.816  0.1178  0.2663 -0.0826
11521W        W27330  10.805  14.954   4.470 -0.1574  0.2309 -0.1674
11522W        W27331   7.754  11.488  13.320  0.1324  0.0056 -0.0657
11523W        W27332   6.848   3.236   3.210 -0.1256 -0.1617  0.3260
11524W        W27333  11.822  11.950  10.997  0.3879 -0.1718  0.3705
11525W        W27334   2.545   2.903   5.030  0.2862  0.0974  0.0148
11526W        W27335  16.806   6.762  15.005 -0.0959 -0.1431  0.1210
11527W        W27336  18.406  11.541  14.177 -0.1343 -0.1034 -0.1609
11528W        W27337   8.336  18.409  15.153 -0.0944 -0.2817  0.0408
11529W        W27338   6.818   0.272   0.909  0.0113  0.0648 -0.0018
11530W        W27339   0.104   0.590  13.172 -0.2206  0.1959 -0.0213
11531W        W27340   4.711   7.832  15.006  0.0972 -0.1366 -0.4063
11532W        W27341   0.196  16.739   9.978 -0.1180 -0.0067 -0.2371
11533W        W27342   7.968   1.550   3.149  0.0296  0.1039 -0.1744
11534W        W27343   2.449  16.158   0.734 -0.5421  0.3509  0.0531
11535W        W27344   6.880   7.027  15.266 -0.0796  0.0599 -0.3334
11536W        W27345  11.179   1.000   5.574  0.0109 -0.1117 -0.0703
11537W        W27346   7.540  12.128   2.333 -0.0869 -0.1185 -0.0746
11538W        W27347  13.228  18.817   3.016  0.0901 -0.0122  0.0706
11539W        W27348   9.473   4.295   2.790 -0.0484 -0.1389 -0.2190
11540W        W27349   5.439   4.014   0.372 -0.0229 -0.0226 -0.0340
11541W        W27350   2.027   4.358  10.994 -0.5241  0.1294  0.0925
11542W        W27351   6.445   6.779  12.311 -0.1342 -0.0148  0.1417
11543W        W27352   0.422   6.385   9.915  0.1900 -0.0498 -0.0266
11544W        W27353   0.361   7.012  15.172 -0.1474 -0.2075  0.2697
11545W        W27354  12.431  10.526  12.837 -0.0712  0.0088  0.1324
11546W        W27355   2.085  11.684  10.632  0.0488 -0.2052  0.0363
11547W        W27356   3.045   9.814  10.909  0.1756  0.0326  0.1749
11548W        W27357   1.098  13.701   3.159 -0.3042  0.1872  0.2357
11549W        W27358   2.802   8.359   2.712  0.1373 -0.2258  0.0191
11550W        W27359  14.143  10.140   4.503 -0.1681 -0.2701 -0.1652
11551W        W27360  10.714   4.300  15.400 -0.2136  0.0525 -0.1638
11552W        W27361   3.911   4.664  10.015 -0.1203 -0.1905 -0.0652
11553W        W27362  17.013  13.655  10.528 -0.0760 -0.2607  0.0903
11554W        W27363   5.230  15.604   9.810 -0.1838 -0.1195  0.0314
11555W        W27364   5.763  15.022  15.127  0.2395  0.0011  0.0283
11556W        W27365   4.962   7.659  13.773 -0.1770  0.0018 -0.2325
11557W        W27366   9.884   3.684  14.779  0.1000 -0.1249  0.0720
11558W        W27367   7.749   3.925   4.942  0.2924  0.1000 -0.1425
11559W        W27368   1.765   7.045  12.832 -0.0787 -0.0551 -0.1695
11560W        W27369  18.159  13.255   1.799  0.1462  0.0214  0.3450
11561W        W27370  13.789  15.466   2.072  0.1685 -0.0508 -0.4123
11562W        W27371   4.119   9.464  13.055  0.0883  0.2253  0.2466
11563W        W27372  16.268  18.670   0.863  0.1675  0.0097 -0.2320
11564W        W27373   6.980  17.002   4.736  0.2281 -0.1669 -0.2295
11565W        W27374  17.625  11.363  11.416  0.0330  0.2361 -0.0590
11566W        W27375   6.690  12.325  12.721 -0.3040 -0.2391 -0.0168
11567W        W27376  17.545   1.234  14.998  0.0307  0.1774 -0.0084
11568W        W27377  11.803  17.142   1.153  0.2287  0.0514  0.0457
11569W        W27378  15.816   2.075   0.757 -0.1075 -0.1236 -0.0353
11570W        W27379  14.956   9.945   3.376  0.3989 -0.0631 -0.0110
11571W        W27380   3.258   2.901   3.532 -0.1373  0.4101 -0.3153
11572W        W27381  11.683   6.858  11.412  0.2232 -0.0074 -0.2502
11573W        W27382  14.779   6.954  13.959  0.1625  0.1066 -0.1670
11574W        W27383   3.086   9.562   1.743  0.2716 -0.3525 -0.3694
11575W        W27384   2.835  15.915  12.541 -0.0205 -0.0821  0.1194
11576W        W27385   4.238  17.712   4.927 -0.2140 -0.2294  0.1606
11577W        W27386   4.210   8.926   3.140 -0.3556 -0.2249  0.1186
11578W        W27387   0.064   4.809   2.835 -0.1541  0.0085 -0.0534
11579W        W27388   9.215  16.602  12.097 -0.1294  0.0990 -0.1863
11580W        W27389  12.228   8.680   3.188  0.0742  0.0858 -0.0829
11581W        W27390  18.667   4.852  12.033  0.1920  0.0366 -0.0884
11582W        W27391   1.852  12.765  13.023 -0.1282  0.3570 -0.1434
11583W        W27392  17.864  12.771  14.774 -0.0076 -0.1848 -0.1155
11584W        W27393  13.755  12.642   0.042 -0.0829  0.0641  0.0489
11585W        W27394  16.487  11.529   0.730  0.1920 -0.0888  0.3446
11586W        W27395   4.531  15.686   2.676  0.0154 -0.1694  0.0694
11587W        W27396   6.433   0.732   0.363  0.0319  0.4107 -0.2599
11588W        W27397   2.807   2.893   1.431  0.1701  0.1361  0.2519
11589W        W27398   0.362   3.305   1.060 -0.0067  0.2402  0.1079
11590W        W27399   7.118   5.504  13.196 -0.1408 -0.1018 -0.1522
11591W        W27400   4.379  15.155  13.021 -0.0793 -0.1051  0.1594
11592W        W27401  11.209  16.172  14.864 -0.0163 -0.3273  0.1366
11593W        W27402  11.624  12.675   5.308 -0.2058 -0.3016 -0.0933
11594W        W27403   4.351  15.212   5.045  0.2572 -0.1168  0.2974
11595W        W27404   7.688  12.494  11.357 -0.3467 -0.0028  0.1867
11596W        W27405  15.502   2.608   4.796 -0.1683 -0.0505 -0.0641
11597W        W27406  14.902  17.946   0.432 -0.1081 -0.1889 -0.5236
11598W        W27407   1.441  16.266  13.835  0.1249 -0.1111  0.0206
11599W        W27408  18.821  10.713  13.841 -0.0127 -0.0909 -0.1312
11600W        W27409   9.499   0.894  11.205  0.0126 -0.3406  0.4437
11601W        W27410  18.468   6.011   0.306  0.1045  0.3555 -0.0259
11602W        W27411   8.315  16.799  11.166 -0.0264 -0.2111  0.0291
11603W        W27412  16.826  16.890  14.010 -0.0235 -0.0688 -0.2379
11604W        W27413  10.709   0.029   0.327 -0.4735  0.1235 -0.1253
11605W        W27414  11.111  15.887   5.187 -0.0027 -0.4141 -0.1318
11606W        W27415  17.283   0.589   0.955  0.0718  0.1973  0.1261
11607W        W27416   8.333   4.832   3.431  0.1563 -0.2396 -0.0304
11608W        W27417  13.028   4.007  10.590 -0.0217  0.2937  0.3809
11609W        W27418  12.637   6.590   2.304  0.2058  0.0868  0.0331
11610W        W27419   4.738   1.314  12.873 -0.0762 -0.4216 -0.1648
11611W        W27420   7.258  17.712  15.054 -0.0786 -0.0939  0.2681
11612W        W27421  13.703  13.171  14.018 -0.1123 -0.2404  0.0264
11613W        W27422  11.533   9.075   4.645  0.2181  0.0588  0.0582
11614W        W27423   8.461   2.297   3.603  0.0052 -0.0431 -0.1208
11615W        W27424   8.935   4.356  12.595  0.1021  0.3296  0.0514
11616W        W27425   8.570   7.874   1.271  0.0204 -0.1702  0.0486
11617W        W27426   5.501   8.571  12.518 -0.2146  0.1539 -0.2128
11618W        W27427   8.539   4.626   2.885 -0.1827  0.2406 -0.1430
11619W        W27428  17.605  12.407  14.540 -0.3540  0.0163 -0.0604
11620W        W27429   5.393   5.456   1.554  0.0655 -0.3669 -0.1982
11621W        W27430  14.328   1.526   5.398 -0.0609 -0.0949 -0.0239
11622W        W27431   8.351   2.590   5.312  0.1232  0.0331 -0.1849
11623W        W27432  18.386  17.913  12.487  0.2813  0.0389 -0.3800
11624W        W27433  15.104   4.221   2.443 -0.0258  0.4980  0.0370
11625W        W27434  10.808   1.292   5.378  0.1586  0.0983  0.0772
11626W        W27435  10.514  17.559   0.298 -0.1714 -0.2109  0.0674
11627W        W27436  15.910  11.863  12.321 -0.1973 -0.0740  0.0551
11628W        W27437   5.123  17.031   2.249 -0.1681  0.0700  0.2169
11629W        W27438  18.193   7.114  12.025  0.1184  0.1798  0.0733
11630W        W27439  12.353   8.173  12.109 -0.0704 -0.0232 -0.1478
11631W        W27440   0.292  17.077   2.431  0.3228 -0.2820 -0.0087
11632W        W27441   8.344  13.257  11.754  0.0915  0.0994 -0.0451
11633W        W27442  12.769  17.037   2.852  0.2479  0.2201  0.1175
11634W        W27443   9.103  18.308  14.208  0.2847  0.0405  0.2284
11635W        W27444  16.040   2.306   3.498  0.0230  0.3034 -0.1864
11636W        W27445  16.255  11.853  11.003 -0.0240 -0.2804 -0.3005
11637W        W27446   6.780   3.735   5.291  0.0968  0.0925  0.3891
11638W        W27447   2.188  12.907  10.371 -0.0105 -0.0288  0.1627
11639W        W27448   3.037  17.203   4.590 -0.1056 -0.2416 -0.0036
11640W        W27449   7.679   0.816  11.903  0.2834  0.0275 -0.1038
11641W        W27450  14.859  14.526  14.869 -0.2818  0.2416  0.0923
11642W        W27451   7.550  10.664   0.950 -0.2696  0.2793 -0.2604
11643W        W27452  14.399  17.742   0.514 -0.2564 -0.1006 -0.0583
11644W        W27453  15.708  17.925  11.679 -0.0615  0.0492 -0.0338
11645W        W27454  15.593   5.559   3.277  0.0876  0.0526 -0.0498
11646W        W27455   3.717  12.021   0.742  0.1504  0.1305  0.0399
11647W        W27456  14.698  11.122  14.159  0.5123  0.0752 -0.2325
11648W        W27457   2.275  17.594   0.930 -0.2273  0.1335  0.0896
11649W        W27458   0.858   6.477  14.341 -0.3944  0.2259 -0.3233
11650W        W27459   4.477  17.961   1.206 -0.0532  0.1433  0.0297
11651W        W27460  17.302   3.465   5.119 -0.0897 -0.1084  0.1463
11652W        W27461  17.469   3.467   9.994 -0.0494 -0.1362 -0.0800
11653W        W27462   4.208   0.469   2.845 -0.0438 -0.1752  0.1514
11654W        W27463   9.093   9.199   6.003 -0.0687 -0.0480 -0.1150
11655W        W27464   0.871  10.227   4.612  0.2299 -0.3818 -0.1276
11656W        W27465   4.698   7.280  12.055 -0.0716  0.3456 -0.1066
11657W        W27466  15.743  15.153  13.413  0.0228  0.0118 -0.0703
11658W        W27467   6.022  13.385   3.300 -0.1814 -0.2727  0.0835
11659W        W27468  11.922   5.869  12.375 -0.0737  0.3119 -0.2647
11660W        W27469   5.870   9.608   0.758  0.1356 -0.2449 -0.2440
11661W        W27470   7.480   0.590  14.834  0.0000  0.2030  0.1841
11662W        W27471   4.271   8.495  13.381  0.0686  0.1552  0.0230
11663W        W27472  15.245   4.782  15.403  0.0834 -0.0239  0.0464
11664W        W27473  17.381   3.920   0.949  0.2222 -0.2457  0.0274
11665W        W27474   6.190   3.864  15.364 -0.0569 -0.2298 -0.1257
11666W        W27475   1.123  11.771  14.957 -0.0557  0.0261  0.1029
11667W        W27476  10.292   2.865   4.799  0.2405 -0.1455 -0.3547
11668W        W27477  12.154   5.950  13.155  0.1130 -0.0322 -0.1101
11669W        W27478   4.057   7.692  11.042  0.2004 -0.0775 -0.2688
11670W        W27479   7.425  12.403  10.914 -0.0310 -0.2759 -0.1312
11671W        W27480   9.567   7.438  11.843  0.0888 -0.1457  0.1201
11672W        W27481   6.337  11.267   0.606 -0.0498  0.0837 -0.1804
11673W        W27482   0.018  16.798   4.028  0.0237  0.3227 -0.1032
11674W        W27483   1.355  14.895  15.034 -0.3055  0.0110 -0.3129
11675W        W27484   8.539  14.509   3.568 -0.1205  0.0090  0.1093
11676W        W27485   0.905  11.858  11.320  0.0909 -0.2968 -0.3225
11677W        W27486   8.163  12.902  10.680 -0.0524  0.1449 -0.1090
11678W        W27487   9.198   7.161   5.186  0.2533 -0.1067  0.0472
11679W        W27488   8.831  15.942   4.844  0.0300  0.3362  0.1769
11680W        W27489  17.338  13.902  12.046 -0.0372 -0.2018  0.0080
11681W        W27490   5.755  13.371  12.623 -0.1323 -0.4591  0.0899
11682W        W27491   3.290  10.445   4.362  0.1097 -0.2984  0.1563
11683W        W27492   3.629   3.754  10.978  0.2508  0.1911 -0.2950
11684W        W27493  15.537   1.661   4.679  0.0655 -0.2753  0.0842
11685W        W27494  16.601   7.004   2.623  0.3403  0.0110  0.3252
11686W        W27495  17.226   6.279   4.988  0.2350  0.1035  0.1919
11687W        W27496   5.862   0.413  13.821 -0.3659  0.1652  0.2037
11688W        W27497   6.134  18.738  12.406  0.1043  0.3577  0.0388
11689W        W27498  15.336  14.775  12.312  0.4606  0.0616 -0.1188
11690W        W27499  14.956   4.738  14.630  0.2526  0.2995 -0.1989
11691W        W27500  13.077   9.661  11.537 -0.2222 -0.2049 -0.2759
11692W        W27501  14.179  10.646  13.671 -0.3303  0.0500 -0.2213
11693W        W27502  11.090   4.971  14.016  0.0881  0.0752  0.0033
11694W        W27503  13.597  15.237  13.485  0.1495 -0.0498  0.2297
11695W        W27504  18.188   1.841   1.490 -0.1060  0.0151  0.1314
11696W        W27505   4.245  16.813   1.904  0.2160 -0.2547  0.1424
11697W        W27506   3.358   1.419  15.124  0.1599  0.2181 -0.3486
11698W        W27507  14.554  16.180  14.834  0.0489 -0.0323  0.0272
11699W        W27508   3.508  15.210   0.263 -0.4423  0.4321  0.3276
11700W        W27509  11.354   8.414  15.406 -0.1368  0.0466  0.2239
11701W        W27510  10.332   2.410   4.555 -0.2523  0.0526  0.4840
11702W        W27511  11.420  14.639  11.637 -0.1562  0.2536  0.0564
11703W        W27512  13.315  11.096  14.570  0.0998 -0.2895 -0.3031
11704W        W27513   1.235   6.323   3.851  0.0742  0.0491 -0.1393
11705W        W27514   2.768  13.394   4.061 -0.1226 -0.2263 -0.4774
11706W        W27515   2.694   2.848  10.811 -0.3013 -0.2767 -0.1913
11707W        W27516  14.077   3.085  15.389  0.1274 -0.2855  0.0409
11708W        W27517  15.118  13.249  10.382 -0.0580 -0.1321  0.0652
11709W        W27518  13.970  10.924  13.226  0.0572 -0.2327  0.1073
11710W        W27519   4.198  16.690  15.403  0.0159  0.2175  0.0250
11711W        W27520  14.990  14.307   4.128 -0.1842  0.2585  0.0143
11712W        W27521  16.376  10.829  13.661 -0.0426 -0.0104  0.3809
11713W        W27522  12.101   2.031  11.518  0.0199 -0.0933  0.2787
11714W        W27523  11.308   1.833  11.660 -0.1137  0.2734 -0.1424
11715W        W27524   8.259  17.255   3.274 -0.0669 -0.0555 -0.1096
11716W        W27525  10.378   0.739  14.683 -0.1173  0.0050 -0.1934
11717W        W27526   2.607  13.955   9.499 -0.0548  0.2060  0.2284
11718W        W27527  16.093   9.995   4.181 -0.1660  0.0004 -0.2031
11719W        W27528   9.665   8.014   0.328  0.4575  0.2178 -0.2339
11720W        W27529  11.460  14.697   0.875  0.4027 -0.0644 -0.0664
11721W        W27530  14.686  10.900   4.861  0.1997 -0.0151  0.0180
11722W        W27531  13.657   5.236  11.722 -0.1031  0.2750  0.0174
11723W        W27532   1.946   8.430  13.543 -0.1580  0.1991 -0.3521
11724W        W27533   7.276   1.567  10.299 -0.0139  0.1058  0.5066
11725W        W27534   8.122  17.267  10.859 -0.3212  0.0492  0.2879
11726W        W27535  16.314  13.721  12.934 -0.3763 -0.6021 -0.1169
11727W        W27536   7.283   8.437   2.346  0.1869 -0.4023  0.0580
11728W        W27537   4.279  11.220   3.563 -0.1860 -0.2065  0.1381
11729W        W27538   1.610   0.255   2.941  0.1399 -0.0412  0.2774
11730W        W27539   1.415  17.103  10.173  0.0339  0.3490 -0.0966
11731W        W27540   7.626  11.471   3.947 -0.0774  0.2005  0.3370
11732W        W27541   0.844   6.326   0.775 -0.1986 -0.1066  0.5177
11733W        W27542   3.115  12.561  13.839 -0.0746  0.2632  0.4381
11734W        W27543  17.862  12.277   1.365 -0.1535  0.0949 -0.2057
11735W        W27544   4.850  13.957   3.631 -0.1940  0.0358  0.2410
11736W        W27545  11.408  12.326  14.815 -0.1688 -0.1407  0.3894
11737W        W27546   1.026   3.434  13.420  0.0845  0.0256  0.4011
11738W        W27547  16.161  12.613   2.883  0.1415 -0.1411 -0.1879
11739W        W27548  14.131  15.532  14.212  0.1805  0.2561  0.1649
11740W        W27549   6.491   9.734   3.868  0.1320  0.0180 -0.3203
11741W        W27550   2.219   3.003   3.687 -0.0617 -0.1455  0.1645
11742W        W27551   2.929  15.594   1.762 -0.0632  0.4861 -0.0017
11743W        W27552  18.861   3.696  11.715  0.2321 -0.1642  0.2327
11744W        W27553  12.029   2.039  10.960 -0.0410  0.0786 -0.2264
11745W        W27554   7.301  11.674   4.337 -0.4505  0.2016 -0.3914
11746W        W27555  13.086   7.664  12.052  0.0859 -0.0018 -0.0863
11747W        W27556   5.601   9.471  13.120 -0.1928 -0.0139 -0.2531
11748W        W27557  16.513   9.977   5.717  0.1043 -0.0095 -0.2440
11749W        W27558  12.459   0.631   3.810 -0.0356  0.4300 -0.0045
11750W        W27559   6.969  16.000  14.836  0.0084 -0.0298  0.0629
11751W        W27560  17.072   4.367   3.575  0.0816 -0.6490  0.1773
11752W        W27561   5.778   9.899  12.738 -0.0744 -0.0380  0.0189
11753W        W27562   1.415   1.617   0.529 -0.1011  0.0295 -0.3856
11754W        W27563   6.624  18.466  15.285  0.0313  0.0536  0.1025
11755W        W27564   6.191   4.981   3.450 -0.2708 -0.3874 -0.0980
11756W        W27565   8.192  11.461   3.693 -0.0479  0.0822 -0.1194
11757W        W27566  14.404   1.210   4.961  0.0027 -0.1140  0.0998
11758W        W27567   7.548  14.868  11.074  0.1069 -0.0686  0.1690
11759W        W27568  14.139   9.100  14.297 -0.0500 -0.0565  0.2215
11760W        W27569   0.963   6.166  13.977 -0.2134  0.2766 -0.1383
11761W        W27570  13.073   7.248  10.728  0.1386  0.3413 -0.0743
11762W        W27571   0.123   8.204  12.801  0.3688  0.3251  0.1742
11763W        W27572   8.569  18.331  10.479 -0.2429  0.0713 -0.0898
11764W        W27573  12.959  12.337   1.010 -0.0464 -0.2052  0.3274
11765W        W27574  13.798   8.803   2.171  0.0346  0.0031  0.0308
11766W        W27575   2.682  12.716  14.232 -0.2593  0.1130  0.0606
11767W        W27576  18.516  17.048   4.020 -0.1578 -0.2386  0.3692
11768W        W27577  16.226   4.436   5.189 -0.1824  0.0421 -0.1451
11769W        W27578   1.407   5.907   4.071 -0.0912  0.0706 -0.2684
11770W        W27579   3.824  15.216  10.336  0.3042  0.3807  0.0260
11771W        W27580  12.663   7.847  12.200 -0.4454 -0.1575  0.1810
11772W        W27581  13.763  13.006   2.066 -0.5141 -0.1282  0.4233
11773W        W27582  14.280  18.704   5.100 -0.2980 -0.0218  0.2538
11774W        W27583   1.962  18.189  11.186  0.5268 -0.0469 -0.0270
11775W        W27584  13.438  14.170   0.047  0.0627 -0.0388 -0.3787
11776W        W27585   1.578   2.019   3.514  0.0742  0.7446  0.2002
11777W        W27586  18.072   8.004   3.982  0.0266 -0.0528 -0.1829
11778W        W27587  10.747   8.613   4.465  0.0111 -0.0574  0.1086
11779W        W27588   8.991  10.196  10.514 -0.2572  0.0672 -0.2463
11780W        W27589   3.074   8.646  15.298 -0.1550 -0.1320 -0.3845
11781W        W27590   6.657  15.053  14.752  0.1023  0.2758  0.2424
11782W        W27591  11.647   5.733   0.692  0.3839  0.0922  0.2119
11783W        W27592   2.822   9.945  12.892 -0.0953  0.3504  0.1647
11784W        W27593   4.436   3.718   1.378 -0.0817  0.1693 -0.1353
11785W        W27594   1.387  16.429   3.320  0.1413 -0.0847  0.3479
11786W        W27595  11.517  12.854  11.584 -0.1479  0.2718 -0.3070
11787W        W27596  15.446  12.131  12.661 -0.1165  0.1328 -0.0523
11788W        W27597  11.031  17.089  15.212  0.1519  0.0141 -0.0223
11789W        W27598  14.276  10.147  10.888  0.0727  0.2479 -0.1677
11790W        W27599   7.295  18.345   2.552 -0.2518  0.1158  0.0463
11791W        W27600  12.821   1.304   3.682 -0.2415 -0.4423  0.0482
11792W        W27601  11.474   0.301   2.352  0.1293  0.0984 -0.1192
11793W        W27602   7.731  12.247  11.801 -0.1400 -0.1486 -0.2455
11794W        W27603   0.806  17.271  11.008 -0.1332 -0.1620 -0.1322
11795W        W27604  15.852  15.249  14.522  0.2288  0.0050  0.0829
11796W        W27605   1.176  15.664   4.088  0.0271  0.1988  0.2361
11797W        W27606  17.706   6.504   5.119 -0.3946  0.0694  0.1191
11798W        W27607   9.551   5.806  15.022  0.2586 -0.1995  0.0720
11799W        W27608  18.866  17.445   5.164  0.2747 -0.2421  0.2076
11800W        W27609   7.913   6.537  10.655  0.1615 -0.2410 -0.1534
11801W        W27610  11.515   4.161   3.057 -0.0192 -0.0076 -0.0283
11802W        W27611  12.457   4.044   1.034  0.1281  0.0473  0.1396
11803W        W27612  13.355  17.350  12.085  0.1853 -0.1247  0.2146
11804W        W27613  14.815  10.459  11.416 -0.0933  0.1625 -0.0915
11805W        W27614   3.141  12.441  12.476  0.2190 -0.1057 -0.0523
11806W        W27615  18.404  10.439  12.040 -0.5168 -0.0307 -0.0098
11807W        W27616  15.139   8.719   5.649 -0.0424  0.2278  0.0280
11808W        W27617  16.999   0.511  12.107  0.1174  0.1757  0.1130
11809W        W27618  16.815   3.591   2.974 -0.0842  0.3230  0.0120
11810W        W27619   3.999  11.500   0.548  0.0401  0.0700  0.3089
11811W        W27620   7.952  16.995   4.497 -0.1004  0.2952 -0.0000
11812W        W27621   2.547  11.504  14.899 -0.1764  0.1752 -0.2015
11813W        W27622   9.707   1.409  15.134 -0.0587  0.2444  0.1167
11814W        W27623  16.314  10.213   1.095  0.2254  0.1577 -0.0437
11815W        W27624  14.035   8.090  15.170  0.2250  0.2326 -0.2346
11816W        W27625  15.184  13.451   2.376 -0.1329  0.2151  0.2228
11817W        W27626  11.489  16.175   4.839  0.0829  0.2966 -0.1583
11818W        W27627   7.829   6.861   2.415  0.0812  0.1628 -0.1469
11819W        W27628   9.796   5.726  13.196  0.2102  0.2347 -0.0239
11820W        W27629   7.565  13.649   5.425 -0.2712 -0.1832 -0.1978
11821W        W27630  12.911   0.199  13.275 -0.0049 -0.2196  0.3096
11822W        W27631  11.473  10.518  12.775  0.0305 -0.2307  0.0840
11823W        W27632  16.841  12.311   5.264  0.1183  0.1196  0.2491
11824W        W27633   1.808   8.885   4.243  0.1523 -0.0959  0.2897
11825W        W27634   8.999  12.171   1.649  0.0004 -0.0929  0.0987
11826W        W27635  16.403   7.655   0.058 -0.1885  0.0000  0.1452
11827W        W27636  11.415  14.532  10.667 -0.2033 -0.2415  0.0527
11828W        W27637   9.311   8.885   1.806 -0.0354  0.0055  0.3717
11829W        W27638   9.837   1.102   3.275 -0.2541  0.1713 -0.0637
11830W        W27639  16.554  16.800   1.125  0.2805 -0.3187  0.0420
11831W        W27640   5.603   7.923   3.410 -0.1275  0.1343  0.2660
11832W        W27641  11.710  15.530  13.042  0.3083 -0.0093 -0.1812
11833W        W27642  14.591   1.024   4.506 -0.0024 -0.3479 -0.2141
11834W        W27643  18.713  14.935  13.784 -0.0454 -0.2035  0.0418
11835W        W27644  18.820  15.480   0.532 -0.0233 -0.1693  0.2650
11836W        W27645   4.681   5.507   0.825  0.0158 -0.0034  0.1447
11837W        W27646   7.954   8.202   3.455 -0.1068 -0.3968  0.2645
11838W        W27647   5.709  13.447   0.765 -0.1217  0.1806 -0.1907
11839W        W27648   4.568   7.917   1.367  0.0539  0.1496 -0.4275
11840W        W27649   8.899  17.254  15.362  0.2923  0.1766 -0.0040
11841W        W27650   4.843   7.296   2.553 -0.3674  0.2612  0.2798
11842W        W27651  12.572  12.448  14.262  0.0697  0.1036  0.0719
11843W        W27652   3.890  10.468  12.152  0.0178 -0.1437 -0.0650
11844W        W27653   7.781  17.787  14.653  0.1872 -0.4744  0.4906
11845W        W27654  14.898   7.960  14.979 -0.0365  0.1873  0.0201
11846W        W27655  11.445   3.728  12.791  0.1503  0.0063  0.0427
11847W        W27656  15.556  15.681  14.066 -0.3511  0.0360 -0.1481
11848W        W27657   2.042   4.806   0.764  0.3417  0.2767 -0.4307
11849W        W27658   1.988   3.664   0.321 -0.0084 -0.0428  0.0678
11850W        W27659  10.228   6.985  14.947  0.0998 -0.0912  0.5730
11851W        W27660  13.740   4.584   3.215  0.2310 -0.4443 -0.0152
11852W        W27661   0.445  16.905  13.049  0.1088 -0.2458 -0.0077
11853W        W27662   7.563   5.948   2.617  0.1527 -0.1261 -0.3436
11854W        W27663   1.455  11.178  12.992  0.1612  0.1722  0.2225
11855W        W27664  13.038   5.867  14.593  0.1606  0.2919 -0.1331
11856W        W27665  17.138   6.159   0.681  0.2538 -0.0284 -0.1602
11857W        W27666  15.210  15.835  12.009 -0.1124 -0.1068  0.0550
11858W        W27667   4.178   6.710   2.260  0.0742 -0.1623 -0.0724
11859W        W27668  15.818   8.815  14.079 -0.0837 -0.1543  0.0068
11860W        W27669   5.226  13.913  11.570 -0.1677  0.1974  0.2254
11861W        W27670   3.021   8.987  14.719  0.1207  0.3431  0.0078
11862W        W27671   3.137   9.182   4.698  0.2433  0.0192 -0.2604
11863W        W27672  15.077   3.806  12.420  0.1754 -0.0548  0.0203
11864W        W27673   6.172  13.865  13.759  0.2036  0.0207 -0.0099
11865W        W27674  12.178  13.009   3.022  0.0435  0.0998  0.2199
11866W        W27675   6.295  17.727  14.701 -0.2814  0.3623 -0.0554
11867W        W27676  18.726   0.659  11.812 -0.0096  0.0905  0.0392
11868W        W27677   1.932  10.174  12.909  0.1079 -0.0669 -0.1725
11869W        W27678  10.824   2.685  14.951  0.3798  0.0498 -0.1000
11870W        W27679  16.494   0.870   3.974 -0.1354  0.0149 -0.2878
11871W        W27680  11.045   5.129   0.835 -0.0601  0.2564 -0.0435
11872W        W27681   9.893  15.887   0.345 -0.1646 -0.0797  0.3569
11873W        W27682   0.118  11.062   2.101 -0.2311  0.1815  0.0642
11874W        W27683   8.772   8.729   2.051 -0.2280 -0.2859  0.0046
11875W        W27684   4.414  13.151  10.681 -0.0319  0.2029 -0.2725
11876W        W27685   6.444   2.194   5.164  0.1545 -0.3003 -0.0618
11877W        W27686  17.600   7.134  13.701  0.4844 -0.2470  0.0243
11878W        W27687   3.615  11.111  12.948  0.3794 -0.0040  0.1328
11879W        W27688  17.336   1.151  11.231 -0.0326  0.0922  0.0286
11880W        W27689   4.190   4.684   4.070 -0.0312  0.0658 -0.2610
11881W        W27690   5.699  17.431   2.467  0.3161  0.1094 -0.4350
11882W        W27691  16.426  18.140  12.717 -0.1011 -0.3371  0.2454
11883W        W27692  18.509  17.198   1.168  0.0177  0.0492  0.2148
11884W        W27693  16.941  16.780  10.940 -0.2133 -0.2885 -0.2119
11885W        W27694  10.502   5.685  12.412  0.3465 -0.2142  0.0525
11886W        W27695  13.318  15.241   1.256 -0.2153  0.0927  0.2295
11887W        W27696   9.927   2.070   4.425  0.0609  0.1195 -0.0971
11888W        W27697  14.104  10.776   2.054 -0.0054  0.0218 -0.4002
11889W        W27698  15.650   7.309  14.826  0.0176  0.1308 -0.0829
11890W        W27699  17.415   7.019  14.321  0.2797  0.0353  0.1684
11891W        W27700  13.552   0.746   2.143 -0.2424 -0.1341  0.3285
11892W        W27701   1.956  11.910   2.158  0.1064  0.1485  0.2549
11893W        W27702  16.602   3.975  10.855  0.0671 -0.1255  0.0320
11894W        W27703  18.039   9.320   3.371  0.1970 -0.2636 -0.1034
11895W        W27704   8.543   7.391   2.748 -0.1353 -0.1937  0.0637
11896W        W27705   7.428  17.913  13.806 -0.0924 -0.3035 -0.0944
11897W        W27706  13.454   4.887   4.578 -0.0209 -0.1908  0.3812
11898W        W27707  18.433  12.298   1.372 -0.3100 -0.2183 -0.3394
11899W        W27708   9.925   3.077  15.346  0.1730 -0.1937 -0.2624
11900W        W27709   0.333   4.439   0.223 -0.0397 -0.1101 -0.2563
11901W        W27710   5.544   1.280   4.683  0.1309  0.0245 -0.0238
11902W        W27711   9.972   1.095  14.778  0.0957 -0.2325 -0.0645
11903W        W27712  14.342  17.115   3.248  0.1219  0.4432 -0.2199
11904W        W27713   3.890   2.556   1.006 -0.1257  0.0791 -0.1664
11905W        W27714   5.615  13.159   0.370  0.1702 -0.0190  0.2543
11906W        W27715  10.206  16.910   3.807  0.0030 -0.0332 -0.0853
11907W        W27716   3.493   5.568  13.271 -0.1282 -0.0778 -0.1386
11908W        W27717  18.831   5.474   4.217  0.1068 -0.5694 -0.3881
11909W        W27718  14.309  10.533  11.214 -0.3548 -0.0643 -0.2186
11910W        W27719   1.331   7.452   0.148 -0.1348 -0.2112 -0.2713
11911W        W27720   7.958   9.664   4.258  0.0892  0.0452  0.3521
11912W        W27721  11.751   4.436   4.919 -0.2776 -0.1756  0.0224
11913W        W27722  10.599  13.846  15.267 -0.2068 -0.4365  0.1880
11914W        W27723   2.416   1.591   4.884  0.0679 -0.1159  0.1302
11915W        W27724  14.117   8.178   4.505 -0.2485  0.1730 -0.0934
11916W        W27725  12.319   5.539   4.307  0.0477 -0.1377  0.0994
11917W        W27726   0.383   8.634  14.543  0.2830  0.0491 -0.0531
11918W        W27727   2.705  10.271  15.303  0.2117  0.0538  0.1925
11919W        W27728   1.568  14.585  12.694 -0.0829  0.0927  0.0443
11920W        W27729  14.959  14.391   2.185  0.4072 -0.0491  0.1330
11921W        W27730   2.139   9.576  10.727 -0.3533 -0.1388 -0.2041
11922W        W27731  16.405   8.141   0.350 -0.1729 -0.0934 -0.2122
11923W        W27732  17.096   5.889  14.414  0.3482 -0.0856 -0.4886
11924W        W27733  14.394   1.645  14.846 -0.0977 -0.2771  0.1671
11925W        W27734  16.858  12.674  10.621  0.0939  0.4317  0.0073
11926W        W27735  14.088   3.087  14.537  0.2437  0.1414 -0.0161
11927W        W27736   5.763   3.316  15.328  0.0991 -0.0249 -0.0075
11928W        W27737   5.517   8.369  12.959 -0.0683  0.2647 -0.1318
11929W        W27738  18.444   9.451   4.336 -0.0774 -0.1751 -0.2998
11930W        W27739  10.639  15.520   1.593 -0.0095  0.3829  0.0130
11931W        W27740   6.226  18.859  11.534 -0.2284 -0.0774  0.2528
11932W        W27741  18.396   4.597   1.153 -0.1940 -0.0100 -0.0389
11933W        W27742   8.227   1.294  13.632 -0.2263  0.2542  0.1507
11934W        W27743  17.263   1.274   4.799  0.1620  0.1874  0.1551
11935W        W27744   3.482   3.306   0.401  0.1783  0.2157  0.1782
11936W        W27745  16.099  18.634   3.726 -0.0697  0.2285 -0.3944
11937W        W27746   3.085   8.474  14.733  0.2978  0.1567 -0.0798
11938W        W27747   9.992  17.503  12.489  0.0601 -0.1700 -0.0357
11939W        W27748   7.195   9.784   2.149 -0.2361  0.0450 -0.1405
11940W        W27749   0.472  17.454  13.868  0.0951 -0.4096 -0.1870
11941W        W27750   3.666  10.841  10.285  0.0459 -0.0271 -0.2529
11942W        W27751   7.029  16.144   2.720  0.0049  0.0038 -0.0229
11943W        W27752   0.698   9.489   4.055  0.4638  0.0032  0.0060
11944W        W27753   1.747  11.810   4.443  0.1895  0.0931 -0.1121
11945W        W27754  15.595   4.914  11.374 -0.0236  0.2923 -0.0815
11946W        W27755   5.604  11.820   4.504  0.4459 -0.1372 -0.4756
11947W        W27756  10.785  11.545  14.145  0.1875 -0.0651  0.0093
11948W        W27757   5.983  13.591  15.410  0.3234 -0.0153  0.0017
11949W        W27758   5.207   2.319   3.022  0.0819  0.1006  0.0213
11950W        W27759   9.065   4.612   2.936 -0.0132 -0.4218 -0.0463
11951W        W27760  17.558   9.883  11.973  0.3782 -0.2804 -0.0379
11952W        W27761   5.499   2.182   5.191 -0.0496  0.1733 -0.2425
11953W        W27762  12.951   6.704   4.213 -0.0955 -0.0670 -0.1187
11954W        W27763   9.078  15.294  12.203 -0.0509 -0.0130  0.3023
11955W        W27764  18.694   0.862  15.132  0.1925 -0.1813 -0.2385
11956W        W27765  11.670   0.880  13.893 -0.1773  0.0394 -0.2762
11957W        W27766   9.003   3.818   4.002  0.1531 -0.1943 -0.1316
11958W        W27767   9.935  11.087  12.820  0.1546 -0.0620 -0.0914
11959W        W27768   0.864  10.434   5.063 -0.0753  0.2270 -0.1177
11960W        W27769  16.884   6.599  10.402 -0.1746  0.1412  0.0131
11961W        W27770   4.592   3.187   1.550  0.0723 -0.0580 -0.1495
11962W        W27771   4.846  12.502   4.800 -0.0538  0.2378  0.3871
11963W        W27772   4.295   9.058   3.993 -0.1270  0.2488 -0.1337
11964W        W27773  10.855  16.382  10.895 -0.0367 -0.0627  0.1813
11965W        W27774  10.720  10.450   2.925 -0.1634  0.3112 -0.3390
11966W        W27775  12.270   8.400  15.275  0.1447 -0.3486 -0.0006
11967W        W27776   9.586  17.634  11.299  0.5146  0.1708 -0.0083
11968W        W27777   2.346  14.734  10.354 -0.1577  0.0358  0.1279
11969W        W27778  12.558  10.950  15.194 -0.0114  0.1581 -0.1279
11970W        W27779   7.347  17.728  12.441  0.0242 -0.0270 -0.0187
11971W        W27780  14.716   6.982   3.049  0.1575  0.0798  0.1133
11972W        W27781   7.336  16.496  13.281 -0.1049  0.0097  0.0066
11973W        W27782  10.099   4.953   5.072 -0.0859 -0.1242 -0.0097
11974W        W27783   5.802  16.444  12.973 -0.0135 -0.3222 -0.0163
11975W        W27784   2.479  13.370  11.266  0.1767 -0.2017  0.2005
11976W        W27785  15.497   6.529  14.181 -0.0610  0.0605  0.1185
11977W        W27786   6.851   3.430  12.987  0.2292 -0.4455  0.2099
11978W        W27787   1.375  10.102  14.972  0.0108 -0.0478 -0.1070
11979W        W27788   7.157  12.036   1.163  0.3580 -0.2761  0.0179
11980W        W27789   8.555  16.241   1.885 -0.1269  0.0286 -0.0331
11981W        W27790   3.603  17.427  10.426  0.1179 -0.0586 -0.0287
11982W        W27791  13.196   0.862   5.927  0.1425  0.0507 -0.0565
11983W        W27792   8.272   5.153  11.692  0.0550  0.0008 -0.0552
11984W        W27793  15.404   9.850   3.634 -0.2190 -0.1748 -0.1508
11985W        W27794  10.710  15.549   3.071  0.0602  0.0864 -0.2114
11986W        W27795  11.757   5.261   5.181 -0.0046  0.0054 -0.0358
11987W        W27796   6.953  12.123   1.590 -0.2916 -0.2562 -0.2399
11988W        W27797   3.934  15.019  14.952  0.1741 -0.0293  0.0000
11989W        W27798  12.901  18.169  13.575 -0.0879 -0.1080  0.1410
11990W        W27799  13.700   9.676   3.500  0.2621 -0.2442 -0.1680
11991W        W27800   5.248  11.819  12.578 -0.1710  0.0415  0.2330
11992W        W27801   5.824   9.807  13.982  0.1405 -0.0028  0.1566
11993W        W27802   8.501  13.223   3.390 -0.3221 -0.0496  0.2616
11994W        W27803   3.132   7.534  10.747  0.1859  0.2899  0.3500
11995W        W27804   8.981   7.487  14.951  0.1856 -0.1250  0.2114
11996W        W27805  10.351  14.804  14.249 -0.2915  0.3591 -0.3456
11997W        W27806   8.342   1.989  15.008  0.0225  0.3900 -0.6661
11998W        W27807  10.880   9.243  11.531 -0.1013 -0.0079  0.2882
11999W        W27808   3.719  13.399   0.779 -0.3340 -0.5753  0.1430
12000W        W27809  18.161  15.345  14.279 -0.3257 -0.1066 -0.3652
12001W        W27810   9.422   0.097  12.620  0.2432 -0.0909  0.0618
12002W        W27811   6.947  12.249  11.103 -0.0107 -0.2179 -0.0539
12003W        W27812   1.286   2.481  15.423 -0.0291  0.0678 -0.3673
12004W        W27813   5.070  17.437  10.943 -0.0579  0.3386 -0.4426
12005W        W27814   1.211  17.140  15.433 -0.2659  0.1163 -0.1176
12006W        W27815   0.221  13.987   4.265 -0.1320  0.4151  0.0836
12007W        W27816   6.432  17.565   1.922  0.2022  0.1188  0.3530
12008W        W27817  13.563   8.369  12.263 -0.0213  0.0681  0.2259
12009W        W27818  10.700   8.247  12.650  0.1777  0.3317 -0.1518
12010W        W27819   3.496   9.697  14.675 -0.0232 -0.3283  0.0567
12011W        W27820  10.903  17.460  14.345 -0.0963 -0.1931 -0.0249
12012W        W27821  18.167   0.678  14.356 -0.0911  0.0233  0.0974
12013W        W27822   1.645   4.441  13.739  0.2873 -0.0221 -0.1070
12014W        W27823   0.477   9.582  11.619  0.0057 -0.2849 -0.2020
12015W        W27824   1.560   8.337  13.825 -0.2235 -0.2443 -0.2378
12016W        W27825  14.206   5.443   1.433  0.2205 -0.0052  0.0094
12017W        W27826  10.056  14.278  14.252 -0.0755 -0.2999  0.0605
12018W        W27827   1.982   3.184  10.225 -0.1224  0.1656  0.2263
12019W        W27828  12.465   5.074   1.640 -0.2877 -0.3197 -0.0874
12020W        W27829   8.711   7.743   2.480 -0.0426  0.0302 -0.0938
12021W        W27830  14.630  17.448   4.221 -0.1867  0.0625 -0.1042
12022W        W27831  13.631   6.208  11.611  0.1154 -0.0709  0.5607
12023W        W27832  16.844   8.793   0.985  0.1000 -0.0919 -0.2106
12024W        W27833   1.006   1.347   0.823  0.0537 -0.0280 -0.0565
12025W        W27834  17.827  15.691   5.032 -0.0616  0.4362  0.3927
12026W        W27835  15.708   8.348  14.858 -0.2244 -0.1668 -0.2022
12027W        W27836   7.850  16.547   2.721 -0.2853 -0.2598  0.1874
12028W        W27837   0.057  11.087   4.700  0.0200 -0.3857 -0.2472
12029W        W27838   8.512   9.174   3.359 -0.2061  0.3108  0.1692
12030W        W27839  13.806   4.707   1.782 -0.2367  0.1638 -0.0307
12031W        W27840   4.828  17.146   0.457 -0.3812  0.3529 -0.0384
12032W        W27841   6.752   5.165   4.199  0.0734  0.0071 -0.2225
12033W        W27842   6.662  11.857  11.258 -0.0077  0.4439  0.0210
12034W        W27843   2.668   9.318  14.125 -0.1867  0.1555  0.0835
12035W        W27844   7.626  14.900  13.470  0.1437 -0.1473 -0.1311
12036W        W27845   3.311   8.595  13.774 -0.2144 -0.0268 -0.4072
12037W        W27846   4.755  15.147  12.696  0.0755  0.0651  0.1004
12038W        W27847  16.688   9.704   3.396  0.2013 -0.0772 -0.1297
12039W        W27848  15.995  17.986  14.049 -0.1281 -0.0429 -0.1291
12040W        W27849   5.078   7.318  13.408  0.0507 -0.1023  0.2653
12041W        W27850   8.539   9.014  13.824 -0.2418  0.4446  0.1242
12042W        W27851  16.868   9.054   2.794 -0.0878 -0.1775 -0.1402
12043W        W27852   5.510   6.628   0.538  0.0812 -0.1529 -0.0077
12044W        W27853   4.072  15.054  11.858 -0.0462  0.1448  0.0448
12045W        W27854   3.925   2.954   5.302  0.0818  0.1152  0.2213
12046W        W27855   2.764  14.084   1.058 -0.1753  0.0837  0.0397
12047W        W27856   7.679  16.370  10.446  0.0379  0.1467  0.0602
12048W        W27857  15.778  14.423  10.201  0.1363 -0.1444  0.1182
12049W        W27858   2.689   4.363  12.249 -0.0551  0.0717  0.0110
12050W        W27859   1.604   2.170  15.231  0.1607 -0.0356 -0.3066
12051W        W27860   6.231   1.810  10.432 -0.3019 -0.2159  0.3959
12052W        W27861   1.678   2.683   2.817  0.0794  0.0154  0.0803
12053W        W27862   2.106  16.479   1.140  0.1388  0.1523 -0.1264
12054W        W27863  11.051   7.560   2.220  0.1701  0.4564 -0.1231
12055W        W27864  13.186  18.617  14.678  0.0115  0.2140  0.0607
12056W        W27865   9.637  18.501  10.927  0.0319 -0.0250  0.0166
12057W        W27866   4.151  16.489  14.905 -0.2546 -0.1293  0.1503
12058W        W27867   5.731   3.826   4.661 -0.0216 -0.0948  0.3110
12059W        W27868   3.261  15.976   4.515 -0.0793  0.1128 -0.3088
12060W        W27869   4.036   9.232   4.806 -0.1751  0.0664  0.0942
12061W        W27870   2.954   1.856  12.785  0.0457  0.1027  0.0511
12062W        W27871   5.745   8.731   1.984  0.0036 -0.1599  0.1203
12063W        W27872   8.538   9.907  11.541  0.2863  0.2598 -0.0979
12064W        W27873   9.642   3.199  12.609 -0.1120 -0.3143  0.0919
12065W        W27874   2.169  18.114  14.239  0.4209 -0.0383  0.2447
12066W        W27875   8.550  13.686  11.742 -0.1970  0.2033  0.1769
12067W        W27876  15.765  16.379  11.301  0.0032  0.1685 -0.2611
12068W        W27877   3.060   9.579  14.851 -0.0502  0.0574 -0.1230
12069W        W27878  14.394  18.683   5.580 -0.2599 -0.2274  0.0869
12070W        W27879   2.000   6.393   1.057  0.0188 -0.0276  0.2838
12071W        W27880  15.298   2.961  15.210 -0.2320 -0.1517  0.2437
12072W        W27881  15.474  17.551   0.089  0.1309  0.1792 -0.1887
12073W        W27882  13.933   5.310   3.620 -0.0555  0.1043  0.0521
12074W        W27883   3.527  12.124  14.368 -0.0947 -0.2492 -0.0960
12075W        W27884   3.705  11.676  13.934  0.0263 -0.4113 -0.1553
12076W        W27885  18.763   2.703  14.650 -0.0533 -0.0913 -0.2476
12077W        W27886  12.418   5.144  14.784 -0.0304  0.0841 -0.0769
12078W        W27887  13.389   8.677   4.534 -0.0943 -0.0314 -0.1388
12079W        W27888  17.716  12.339   5.700  0.0720 -0.1331 -0.2971
12080W        W27889  13.984  10.940   3.142 -0.1956 -0.0389 -0.0045
12081W        W27890   5.321  12.344   4.884 -0.4924 -0.1565 -0.3832
12082W        W27891   9.362   7.096   2.140  0.0276  0.2416  0.2378
12083W        W27892   0.247   6.757   1.657 -0.2842  0.2814 -0.3185
12084W        W27893   0.005  12.739  15.113 -0.1763  0.3956 -0.4053
12085W        W27894  12.319  14.056   1.836  0.1948 -0.1870  0.1302
12086W        W27895   8.103   3.354   2.121  0.2504 -0.2924  0.0182
12087W        W27896  18.096  10.061  13.010 -0.1344 -0.3307 -0.1703
12088W        W27897  18.844   9.470  11.905  0.0538  0.1489 -0.2431
12089W        W27898   6.357   1.047   1.027 -0.2418  0.0193 -0.1023
12090W        W27899   1.332   6.190   1.001 -0.1089  0.2297 -0.1768
12091W        W27900  13.953  11.547  14.033  0.0308  0.0561 -0.0895
12092W        W27901   8.917  10.463   5.253  0.3185  0.2085 -0.1034
12093W        W27902  17.016  12.285   3.079  0.0785 -0.3783 -0.1312
12094W        W27903   2.558  13.737  14.933  0.0599  0.1807 -0.0685
12095W        W27904  18.146  18.020   0.848 -0.0468 -0.1256 -0.0168
12096W        W27905  18.064  18.299   1.247  0.0853  0.0226  0.0499
12097W        W27906  10.961   4.293   2.715 -0.1905  0.1182  0.1491
12098W        W27907   3.612   5.382   4.064  0.0696 -0.1325 -0.0984
12099W        W27908  16.324   2.909  10.928  0.0037 -0.0260 -0.0458
12100W        W27909  18.282  16.205   1.119 -0.1809  0.0790 -0.0858
12101W        W27910   2.462  10.289  11.568  0.1832  0.1201  0.1403
12102W        W27911  10.786   3.471  14.311 -0.0896  0.1629 -0.1177
12103W        W27912   7.963   9.970   3.824 -0.0796 -0.4707 -0.1951
12104W        W27913   5.888  11.803  10.397 -0.1436  0.0463 -0.4841
12105W        W27914  14.046  12.563   4.482  0.1585 -0.0250 -0.0862
12106W        W27915  13.635  17.982   0.354  0.0456 -0.0762  0.0547
12107W        W27916  17.881   4.416   0.356  0.1043  0.3426  0.0635
12108W        W27917   1.277   5.872  10.938  0.2954 -0.0785 -0.1234
12109W        W27918   2.053   1.683  10.623  0.0021  0.0696 -0.0763
12110W        W27919   5.428   7.047   2.067  0.0347  0.0347 -0.0304
12111W        W27920  10.647   0.672  14.161 -0.0874  0.2261  0.1198
12112W        W27921  16.958  11.009   3.835 -0.2134  0.1713  0.1073
12113W        W27922  15.370  11.454   1.502 -0.5705  0.1013  0.0232
12114W        W27923  14.054  15.549  11.550 -0.1092  0.1046 -0.3205
12115W        W27924   2.182   2.768  10.643 -0.1494  0.3425 -0.1937
12116W        W27925  15.923   1.065   1.608 -0.0465 -0.0946 -0.0074
12117W        W27926   1.279   6.480   2.421 -0.3331 -0.2336  0.0107
12118W        W27927   5.409   6.439   4.647 -0.0794 -0.0931 -0.0686
12119W        W27928   0.922   1.485   1.727  0.1883 -0.1813 -0.0669
12120W        W27929  17.512   0.109  14.751  0.1991 -0.0290 -0.2334
12121W        W27930   7.683   9.829   4.661 -0.1512  0.0558  0.0770
12122W        W27931   9.994  11.755   2.822  0.1148  0.2344 -0.0967
12123W        W27932  18.693   7.752   0.011 -0.3381 -0.3628 -0.0876
12124W        W27933  17.871   9.804  13.431  0.4074 -0.1901 -0.0215
12125W        W27934   7.582   3.408   2.168  0.0961  0.1445  0.0128
12126W        W27935  18.473  10.065  11.257  0.2183  0.1551 -0.3776
12127W        W27936  17.325  13.464  10.154 -0.2870  0.3639  0.1725
12128W        W27937   7.832  17.542   3.118 -0.0787  0.2429 -0.3422
12129W        W27938   8.895  12.394   3.979  0.0497 -0.1297  0.0496
12130W        W27939  17.909   1.911   2.565 -0.1848  0.0949  0.1347
12131W        W27940   5.880  15.668   4.083  0.0238  0.1462 -0.0169
12132W        W27941  15.602   3.969  13.156  0.0772  0.0098 -0.2018
12133W        W27942  12.825   5.172  13.244 -0.1492 -0.2622 -0.1821
12134W        W27943   5.296   8.095   4.971 -0.0633  0.2893  0.0008
12135W        W27944   4.465   9.693  13.454 -0.1194 -0.0898  0.2809
12136W        W27945  15.644  16.930   1.400  0.1214 -0.1509  0.0453
12137W        W27946   4.079  18.209   1.654 -0.0309  0.0032 -0.1964
12138W        W27947  18.041  13.801  11.386 -0.1085 -0.0407 -0.3923
12139W        W27948  13.372   4.505  11.507  0.0068 -0.2483 -0.0674
12140W        W27949   2.170  15.840  13.972 -0.1642 -0.1708 -0.1252
12141W        W27950   5.090   6.024  15.221 -0.1918  0.0276  0.0341
12142W        W27951   4.522   7.086   0.187 -0.1058 -0.5139 -0.1408
12143W        W27952   4.661  10.474   3.981 -0.2560  0.0103  0.2195
12144W        W27953  13.304  11.849  15.192  0.0428 -0.3341 -0.1677
12145W        W27954   6.548  16.957  10.655 -0.2033  0.2279  0.1664
12146W        W27955  14.183  12.640   1.032  0.0262 -0.0034 -0.2437
12147W        W27956  14.115   9.643   5.339  0.1066 -0.1275  0.0217
12148W        W27957  16.396  17.288  13.645  0.0273  0.4416  0.2181
12149W        W27958  16.780  14.667  11.083  0.0658 -0.1282  0.0611
12150W        W27959   7.483   8.634  11.075 -0.1015 -0.0773 -0.0590
12151W        W27960  15.013   9.593   1.565 -0.2353  0.1438  0.1719
12152W        W27961  17.336   4.948  13.630 -0.4713  0.0940 -0.1187
12153W        W27962  13.638  16.399  12.657 -0.0846 -0.2274  0.2575
12154W        W27963   8.283  10.922   4.618  0.2494  0.4040 -0.1786
12155W        W27964   0.386  13.035   4.237 -0.2073 -0.1421  0.0969
12156W        W27965  13.310   2.683   4.752 -0.2731  0.0941  0.2102
12157W        W27966   9.281   0.106  10.844 -0.0245 -0.2014 -0.3693
12158W        W27967  17.955   3.487   4.424  0.2113 -0.0631  0.0395
12159W        W27968   4.785  10.162   0.210  0.0816 -0.2376 -0.2212
12160W        W27969  11.409  13.819   5.503  0.1064 -0.2961  0.0199
12161W        W27970  15.847  17.954  13.547  0.3248  0.0353 -0.0862
12162W        W27971  12.819   5.864   1.268 -0.1620 -0.1138  0.0378
12163W        W27972  11.400  12.095  11.277  0.3885  0.4270 -0.0567
12164W        W27973   0.902  10.281  14.694  0.1262  0.5778 -0.2587
12165W        W27974   0.582   4.532  11.538  0.2798 -0.2023  0.0625
12166W        W27975  16.872  12.687   4.921 -0.1936  0.1378 -0.2454
12167W        W27976  18.189   5.991  12.173  0.0167  0.1190  0.1952
12168W        W27977   6.599   3.506   0.609 -0.0547 -0.1869 -0.0144
12169W        W27978  15.927  12.371  14.877  0.1791 -0.1083  0.1674
12170W        W27979  12.921  15.402   0.955 -0.1072  0.0199  0.3027
12171W        W27980  13.989   5.726  12.793  0.3213  0.1485  0.2536
12172W        W27981  14.718   1.467   1.429 -0.5570  0.1789  0.0354
12173W        W27982   8.420   1.132  12.630 -0.0037  0.4658 -0.0384
12174W        W27983   9.097  12.082  13.660 -0.0827  0.0411 -0.0408
12175W        W27984   7.674  18.731  10.592 -0.3776  0.0135 -0.3825
12176W        W27985  14.521   2.757   4.711  0.2323 -0.0749 -0.0996
12177W        W27986   5.610  11.224  10.768  0.0046 -0.5348  0.0182
12178W        W27987   7.796  13.993  14.079 -0.2362 -0.1228  0.1798
12179W        W27988   0.816  14.457   4.608  0.3110 -0.0507  0.4066
12180W        W27989   5.507   5.950   4.386  0.4160  0.4852 -0.0662
12181W        W27990  15.046   6.357   0.159 -0.3052  0.4871 -0.0233
12182W        W27991  13.402   3.056  10.877 -0.2143 -0.0180 -0.1542
12183W        W27992  16.293   7.306  11.710  0.0931  0.0276 -0.0462
12184W        W27993  15.725  12.293  13.678 -0.1165 -0.1090  0.0958
12185W        W27994  14.364   4.386   1.535 -0.1613 -0.1322 -0.1728
12186W        W27995   7.862   4.732   0.712 -0.3474  0.0478 -0.1964
12187W        W27996  11.289  10.849  11.514  0.0413 -0.0721  0.0236
12188W        W27997   6.127  12.267   1.866  0.0558  0.1914  0.0354
12189W        W27998  12.832  15.053  14.427 -0.0979 -0.0988  0.1539
12190W        W27999  14.231  15.044   0.543 -0.1444 -0.2380 -0.4596
12191W        W28000   6.982   1.048   0.227 -0.1236  0.1145  0.0849
12192W        W28001   9.608  18.826   4.006  0.4633  0.0685  0.1912
12193W        W28002   7.136   8.108   1.413 -0.2567 -0.0732  0.3068
12194W        W28003  13.708   5.109  13.808 -0.0483  0.0053 -0.1198
12195W        W28004  14.154  13.197   0.045  0.0589  0.0015  0.1083
12196W        W28005  11.799   9.404  12.953  0.0653 -0.0449  0.4574
12197W        W28006  17.741   8.082   2.994 -0.0790  0.1609 -0.2503
12198W        W28007   9.340  14.790  15.323 -0.1505 -0.0100  0.1764
12199W        W28008   2.772   1.816  13.758  0.3173  0.3012 -0.1594
12200W        W28009  17.502  18.231   1.233  0.2568  0.0918 -0.0419
12201W        W28010  10.415   6.113   2.785  0.3166 -0.1434 -0.1190
12202W        W28011   8.939  15.646  11.874 -0.1097 -0.1995 -0.3062
12203W        W28012   2.161  11.813  14.109 -0.0363  0.0266  0.0072
12204W        W28013   9.877   6.371  12.967 -0.1456 -0.0167  0.2030
12205W        W28014   9.545  11.625  14.505  0.0884  0.0887  0.2560
12206W        W28015   5.988  11.727   4.811  0.1203  0.0277  0.2407
12207W        W28016  17.292  15.022   1.045  0.1157  0.3918  0.0363
12208W        W28017   5.165   7.243   4.098  0.1991  0.3332 -0.0164
12209W        W28018   8.568   4.568   5.250  0.2697  0.2609  0.1431
12210W        W28019   1.256   2.389  14.765  0.0301  0.0859 -0.0362
12211W        W28020  13.031   5.184   1.734 -0.1421 -0.4140  0.0541
12212W        W28021   7.112   1.260   2.133  0.0681  0.0394 -0.3423
12213W        W28022   2.702  11.709   5.059  0.2809 -0.2625  0.4298
12214W        W28023   9.168  17.765   1.330  0.1954  0.0556 -0.0594
12215W        W28024   2.547   0.036  11.870  0.0564  0.3621 -0.2747
12216W        W28025   2.228   1.891  11.075 -0.4006  0.1693 -0.0040
12217W        W28026   7.588   2.942   0.016 -0.0125  0.1781 -0.0068
12218W        W28027   6.475   2.539   1.310  0.2810 -0.0051  0.0285
12219W        W28028  14.947   0.648  12.475 -0.2038 -0.0333 -0.1304
12220W        W28029   3.681  14.416   3.145  0.0087 -0.2071 -0.2669
12221W        W28030   3.050  10.681  15.237  0.1316  0.3291  0.0748
12222W        W28031   8.086   4.223  14.162 -0.0032  0.1651  0.3037
12223W        W28032   8.831   5.767  12.123 -0.5093  0.1551  0.0922
12224W        W28033   5.321  10.863  14.648 -0.1905 -0.3167 -0.2171
12225W        W28034   2.168  16.752   2.183  0.1943 -0.0017 -0.1059
12226W        W28035   4.407  11.146   3.048  0.3523  0.2353  0.3309
12227W        W28036  15.203  17.881   0.939 -0.3675 -0.1459 -0.0992
12228W        W28037   9.178   1.399  12.811 -0.0016 -0.0094 -0.0854
12229W        W28038   9.961  17.180   1.575  0.3099 -0.1585 -0.0706
12230W        W28039  11.599   6.282   3.975 -0.1363 -0.2234  0.0332
12231W        W28040  12.863   2.655  14.321 -0.0443 -0.1655  0.1841
12232W        W28041  18.704  12.350   0.438  0.4856 -0.0849  0.1311
12233W        W28042   0.341   3.027   9.590  0.1726  0.0855  0.1605
12234W        W28043  13.826  18.420  13.800 -0.1985 -0.0381  0.2443
12235W        W28044   7.000   9.765   4.105 -0.4858 -0.1233 -0.0370
12236W        W28045   5.415  16.386  14.118 -0.0621 -0.0517 -0.0906
12237W        W28046  16.797  18.355  13.913 -0.0559  0.2023 -0.0780
12238W        W28047  17.984  14.253   2.686 -0.1338  0.0928 -0.2450
12239W        W28048   0.386   0.230  15.078 -0.1249  0.1306  0.0923
12240W        W28049  10.252   8.455   3.893  0.0038 -0.1258 -0.0862
12241W        W28050  12.779  11.424  12.883  0.2015  0.1095  0.1910
12242W        W28051  12.225   3.495  14.636 -0.0264  0.2262  0.0377
12243W        W28052  14.881   1.069   1.912  0.2798 -0.0875  0.2292
12244W        W28053   3.156   7.046   4.948  0.0055 -0.0614  0.2279
12245W        W28054  11.216  18.776  12.779 -0.2001  0.0854  0.1946
12246W        W28055  18.779   3.627   2.142 -0.0363  0.1346 -0.2230
12247W        W28056  13.730   1.602  15.063  0.1465 -0.0395 -0.0516
12248W        W28057  10.120  13.781  14.554  0.2594 -0.1018  0.2404
12249W        W28058  18.162   8.310  14.254 -0.4352  0.0086  0.0279
12250W        W28059  15.065  10.766   6.104 -0.0841  0.0722  0.0243
12251W        W28060   1.286   7.656  12.002 -0.2873  0.0381  0.1177
12252W        W28061   6.321   6.281   1.762 -0.1582 -0.0217 -0.1657
12253W        W28062  15.855  17.893   0.296 -0.1555  0.1760  0.1004
12254W        W28063   3.230  12.176   4.909  0.0076  0.1473  0.2738
12255W        W28064   4.043   9.420  13.525  0.0817  0.1802  0.0261
12256W        W28065  14.878   8.340  11.742  0.0346  0.1688 -0.1573
12257W        W28066   3.419   8.864  14.305 -0.1367 -0.0851 -0.0248
12258W        W28067   5.697  11.793  13.886  0.0096  0.5462  0.2242
12259W        W28068   9.332   2.829   0.911 -0.1113  0.1160 -0.1578
12260W        W28069   4.026  18.447  13.128 -0.0426  0.0495  0.2491
12261W        W28070   5.906  15.193  14.211 -0.1343 -0.2070 -0.0119
12262W        W28071   4.557  17.868  15.372  0.0994  0.1065  0.0689
12263W        W28072   3.803  11.391   3.588  0.1441 -0.0482  0.0790
12264W        W28073  15.152   4.672  12.059  0.0884  0.3267 -0.1074
12265W        W28074   5.770  13.343  14.420 -0.0445 -0.3573 -0.0916
12266W        W28075  10.006   9.524  13.540 -0.0507  0.1554  0.0338
12267W        W28076   8.255   5.493   4.187 -0.0536  0.1416  0.0300
12268W        W28077   0.515   3.308  14.171 -0.0555  0.0507  0.0333
12269W        W28078   3.085   4.086  12.337 -0.2168 -0.1378 -0.4082
12270W        W28079  11.068  16.662   0.014  0.0953  0.2051 -0.3358
12271W        W28080  17.459  14.274  14.357 -0.0181 -0.1816 -0.2858
12272W        W28081   0.959   5.900   0.449  0.0586  0.1077  0.2039
12273W        W28082   1.522   9.677   2.646  0.0190  0.1038  0.0402
12274W        W28083   4.295   5.762   9.367 -0.1291 -0.2236  0.2261
12275W        W28084   7.436  14.597   3.139 -0.1213 -0.1566  0.0477
12276W        W28085  11.709   6.095   5.741  0.1311 -0.0970  0.1347
12277W        W28086   9.909  16.342  13.754 -0.4533 -0.0955 -0.2261
12278W        W28087  14.558   0.387   3.522  0.3162  0.2749  0.1772
12279W        W28088   0.416  18.915  11.903  0.0981 -0.0133  0.0149
12280W        W28089   3.130  13.508  13.067 -0.2613  0.1084 -0.3271
12281W        W28090   2.125   9.845  11.195  0.1699  0.1461 -0.0593
12282W        W28091  12.379  15.386  14.430 -0.1919  0.2991 -0.0370
12283W        W28092  12.757  18.476   2.812 -0.1883  0.1006 -0.2934
12284W        W28093  11.733   7.725  11.667  0.0989 -0.2342  0.0248
12285W        W28094   7.129   5.446   1.473 -0.4218 -0.1427 -0.4291
12286W        W28095  17.131  16.306  11.926  0.0497 -0.0082  0.0209
12287W        W28096   9.662   2.471  13.689  0.2549 -0.3174  0.0976
12288W        W28097   6.212   6.824   2.680 -0.0752 -0.2202 -0.0455
12289W        W28098   4.420   4.979   3.744 -0.1606 -0.2629  0.0365
12290W        W28099   8.403   6.086   1.186 -0.0743  0.2618 -0.0259
12291W        W28100   1.201  12.018   0.677  0.1731 -0.0735  0.1971
12292W        W28101   6.182   3.143   4.331  0.3183 -0.2701  0.1087
12293W        W28102  16.088  11.448   1.582 -0.1019  0.1732 -0.1880
12294W        W28103  14.647   9.004  14.364 -0.0778  0.2793 -0.5323
12295W        W28104   9.600   8.823  14.729 -0.1934  0.0580  0.1072
12296W        W28105   3.883  17.756   3.305  0.1614  0.0274 -0.1361
12297W        W28106   2.274  16.419  13.392 -0.0428  0.0873 -0.2405
12298W        W28107   2.374   7.485  15.040 -0.0887 -0.0803  0.2171
12299W        W28108  14.843   1.197  11.974 -0.3562  0.4227 -0.2009
12300W        W28109  10.068  14.449   2.659 -0.0784 -0.2496 -0.0572
12301W        W28110  18.721   3.522   5.606  0.1348 -0.2800 -0.0710
12302W        W28111  10.194  13.555   5.898  0.5052  0.1562 -0.1473
12303W        W28112   8.154  18.821   0.833  0.0261 -0.0725 -0.3605
12304W        W28113  18.062  12.003   4.812  0.3528  0.0503  0.1297
12305W        W28114   8.028   9.084  12.996 -0.0566 -0.1001 -0.0221
12306W        W28115   6.351   7.916  10.614  0.1603 -0.3913 -0.3119
12307W        W28116  17.239   0.222   2.631 -0.1485  0.0940  0.0116
12308W        W28117  11.184  13.719   5.929  0.0952  0.0250 -0.4187
12309W        W28118  11.539   6.185   3.379  0.2097 -0.1687  0.1375
12310W        W28119   8.971   0.267   1.252 -0.1864  0.0288  0.1626
12311W        W28120   7.386   8.556   1.436 -0.1860 -0.0568 -0.0956
12312W        W28121   7.758   6.079  12.324 -0.1240  0.0031  0.0907
12313W        W28122   9.149   4.927   5.048 -0.2446 -0.0766  0.1564
12314W        W28123   8.280  10.844   1.390 -0.0823 -0.2635 -0.0305
12315W        W28124  12.376  15.161   0.868 -0.1947 -0.0948  0.0813
12316W        W28125   7.879   5.217   3.154  0.0519 -0.0080  0.2131
12317W        W28126   0.308   5.762   0.517 -0.2209  0.1910  0.1550
12318W        W28127  11.459   7.890  10.530 -0.4426 -0.1409  0.0042
12319W        W28128   3.900   5.508   5.005 -0.1828  0.1317 -0.0369
12320W        W28129  12.392   2.774   4.567  0.1908 -0.1433 -0.0329
12321W        W28130   8.871   5.483   5.557  0.0591  0.3354  0.1375
12322W        W28131   1.038   5.136   0.589  0.1803  0.4850  0.1475
12323W        W28132  11.127  10.918  13.163  0.0938 -0.0435  0.0305
12324W        W28133  14.166  14.094  10.379  0.3652  0.1030  0.1193
12325W        W28134   8.109  11.251  13.091 -0.5558 -0.3917 -0.1434
12326W        W28135  11.030  12.891   1.332 -0.0748 -0.1950  0.0539
12327W        W28136  10.363   1.105   3.251  0.1297  0.0177  0.0126
12328W        W28137   7.892  12.781  12.050  0.2457 -0.4005  0.0967
12329W        W28138   5.614   9.683   5.554  0.1438  0.0638 -0.1199
12330W        W28139   1.796   6.306   3.170  0.1081  0.3239  0.1628
12331W        W28140   7.336   0.557  12.150 -0.3858 -0.0348 -0.0732
12332W        W28141  13.853   7.156   2.852 -0.4882 -0.1155  0.2461
12333W        W28142   8.277  17.720   2.774  0.0335 -0.1982 -0.3331
12334W        W28143  14.061  10.486   2.575  0.5312 -0.0836  0.0257
12335W        W28144   8.959  18.884   3.352  0.0413 -0.1863 -0.0902
12336W        W28145   1.375  11.469  15.243 -0.2640 -0.1187  0.0023
12337W        W28146   5.987  16.604  14.313  0.1356  0.1297  0.0224
12338W        W28147  11.408   5.281  11.599  0.5217  0.1286  0.1279
12339W        W28148  11.237  17.152   1.144  0.1108 -0.4013 -0.0688
12340W        W28149   4.513   6.557  10.839  0.0413 -0.2973 -0.0700
12341W        W28150  13.043   4.732   5.051  0.0521  0.0595 -0.0086
12342W        W28151   2.484   3.453   3.887 -0.3696 -0.0662 -0.0181
12343W        W28152   7.522   5.886   1.622  0.1400  0.0379  0.0189
12344W        W28153  17.391   8.119   2.671  0.1372 -0.1058 -0.0820
12345W        W28154   7.620   5.485   0.499 -0.3118 -0.2731 -0.2115
12346W        W28155   9.826  14.807   3.906 -0.0182 -0.1075 -0.0546
12347W        W28156  18.161   4.230   6.060 -0.2397 -0.1362  0.2507
12348W        W28157   3.601  17.455   1.670  0.0815  0.0940 -0.1063
12349W        W28158   6.700   5.082   3.398 -0.0125 -0.2572 -0.0239
12350W        W28159   1.176  14.347   4.215  0.3037 -0.0048  0.0500
12351W        W28160   3.922  13.560  11.590  0.0544 -0.4288 -0.1041
12352W        W28161   0.053   5.657  14.921 -0.0270  0.0375 -0.2830
12353W        W28162  12.876  13.195  13.684 -0.1573  0.0960 -0.0029
12354W        W28163   6.737   8.780   3.601  0.0310  0.1681 -0.1984
12355W        W28164  15.187   4.824   1.254 -0.3118  0.0637 -0.3244
12356W        W28165  13.668   3.407  12.415 -0.0419  0.2877  0.0683
12357W        W28166   5.757   5.786  10.711 -0.0088  0.0182 -0.0145
12358W        W28167  17.244   5.686  11.205 -0.0277 -0.0579 -0.1168
12359W        W28168   8.897  18.474  12.074 -0.1963  0.0806 -0.2456
12360W        W28169   2.636  13.750   4.499 -0.0614 -0.1471 -0.1776
12361W        W28170   7.489   4.728  13.831 -0.1435 -0.0850  0.0955
12362W        W28171  14.324  13.828  11.613  0.0952 -0.1557  0.0201
12363W        W28172   5.582  10.724   3.933 -0.1008 -0.2241  0.1548
12364W        W28173  11.936   6.065  13.699 -0.1756  0.1449 -0.2152
12365W        W28174  13.517   1.065   2.930  0.1709  0.1903  0.1702
12366W        W28175   7.423  10.120   5.837 -0.1324  0.1865 -0.2284
12367W        W28176   6.132   1.333  12.940  0.3515 -0.0130  0.4331
12368W        W28177  18.591   3.934  12.345  0.0401  0.0519  0.0652
12369W        W28178   4.852   7.170   4.580 -0.1134 -0.2021 -0.0342
12370W        W28179  17.664  15.051  11.352  0.1759  0.1674 -0.3432
12371W        W28180   0.344   5.833   1.493  0.1205  0.2542  0.2092
12372W        W28181   0.203  10.893  15.208  0.0994 -0.0653  0.1178
12373W        W28182   4.109   9.489  11.823  0.2603  0.2379  0.3011
12374W        W28183   8.414   5.847   0.448 -0.1328  0.0824 -0.0894
12375W        W28184  14.108  10.933   1.620  0.2440 -0.1075 -0.3115
12376W        W28185  16.268  15.267  10.751  0.2287 -0.2987 -0.3199
12377W        W28186   1.526  13.176  12.615 -0.0310  0.0380  0.1605
12378W        W28187  11.440  15.733  14.434  0.1145  0.2647 -0.0720
12379W        W28188  13.689  17.502  13.361  0.0023 -0.1870 -0.1580
12380W        W28189  11.712   6.991  10.879  0.0823 -0.0212 -0.0444
12381W        W28190  10.084   8.886  14.700 -0.4303 -0.0908  0.2682
12382W        W28191   5.011  16.717   4.462  0.0795 -0.5205  0.2092
12383W        W28192  11.780  16.988   5.366 -0.1131  0.2008  0.1323
12384W        W28193  13.044  16.401  11.555 -0.0109  0.3253 -0.1864
12385W        W28194  18.910  11.809   0.156  0.0391 -0.0095 -0.2598
12386W        W28195  15.861  13.869  11.709 -0.0904  0.0026 -0.0823
12387W        W28196   9.605  17.774   1.050  0.2271  0.0866 -0.0009
12388W        W28197  12.897   3.971   2.774  0.1983 -0.0339  0.4077
12389W        W28198   7.629   1.823  14.650  0.0671 -0.0315 -0.0898
12390W        W28199  14.286  17.899   1.047  0.2695 -0.0264  0.1205
12391W        W28200   9.576   0.046  11.706 -0.2247 -0.1530  0.0188
12392W        W28201  15.790   7.081   0.047  0.1158  0.1990  0.0273
12393W        W28202  16.386  10.317  12.674 -0.2359  0.0552  0.0775
12394W        W28203  13.259  14.468   0.941  0.1167 -0.0390  0.3007
12395W        W28204   4.271   1.533   2.640 -0.1471  0.1204  0.0851
12396W        W28205  15.144  18.913  11.193  0.1089  0.2557  0.0427
12397W        W28206  11.192   5.319   3.574 -0.0572 -0.1741  0.1639
12398W        W28207   5.757   6.681  13.643  0.0753 -0.0658 -0.1485
12399W        W28208  13.342   3.007   3.302 -0.0326  0.2403  0.0287
12400W        W28209   1.208  10.274   1.173 -0.0456 -0.1166 -0.1715
12401W        W28210  13.209   8.056   4.262 -0.2135 -0.1796  0.1292
12402W        W28211   5.484   8.109  13.376  0.1450  0.0771  0.1619
12403W        W28212  15.374   5.766   1.910  0.0153  0.0569  0.1534
12404W        W28213  12.902  13.099  10.155  0.0196 -0.0268 -0.2277
12405W        W28214  14.094   3.471  11.426 -0.0000 -0.0695  0.2662
12406W        W28215  16.305   1.863   0.927  0.0563  0.1547  0.0264
12407W        W28216   4.047   2.255  14.067  0.0313  0.0951  0.2753
12408W        W28217   8.719   8.725   3.310 -0.0219  0.0716 -0.1986
12409W        W28218   1.085   3.050  12.412 -0.1371 -0.3063  0.1441
12410W        W28219  11.719  13.345  11.311  0.0280  0.1036 -0.2225
12411W        W28220   7.887  15.275  15.402  0.1375 -0.1296 -0.0910
12412W        W28221   6.787   0.443  12.167  0.1967 -0.1326  0.4623
12413W        W28222   4.978   1.231  11.994 -0.1091 -0.1088  0.5252
12414W        W28223   4.539  15.149  10.233 -0.2204  0.3228  0.4385
12415W        W28224  13.967  15.999  12.720 -0.0086 -0.0557 -0.1565
12416W        W28225   4.025  12.375   0.962 -0.1257 -0.1473  0.2486
12417W        W28226   5.101  13.624   3.004  0.3615 -0.0778 -0.0107
12418W        W28227   2.680   4.686  11.407  0.1413 -0.1045 -0.0272
12419W        W28228  18.417  16.697   2.095 -0.2034 -0.1810  0.0435
12420W        W28229  18.764   9.188  14.091 -0.1393  0.3919 -0.1608
12421W        W28230  16.091   6.901   4.517 -0.1578 -0.1015  0.0770
12422W        W28231  10.990  10.216  13.821  0.0675  0.0128  0.2735
12423W        W28232  10.834   9.265   4.896 -0.3175 -0.2980 -0.1703
12424W        W28233  10.956   0.756   0.125 -0.0199  0.1267  0.0175
12425W        W28234  18.227  13.492  14.151  0.0519  0.0821 -0.0324
12426W        W28235  11.864   2.367   0.026 -0.1675 -0.0594  0.0174
12427W        W28236   2.359   5.765  11.078  0.3563  0.0934  0.1844
12428W        W28237  14.151  14.204   5.616 -0.1826  0.2118  0.0531
12429W        W28238  10.423  12.425   0.090  0.0474 -0.2738  0.1088
12430W        W28239   0.197   7.089  13.798  0.0290 -0.3653  0.0456
12431W        W28240   1.518  17.074   1.404 -0.0605 -0.1117  0.0940
12432W        W28241  18.359  17.389   4.330 -0.0119  0.1284  0.0802
12433W        W28242   6.330  12.415  10.390 -0.2672 -0.1511  0.0987
12434W        W28243   7.515   0.558   0.421  0.0278 -0.0724 -0.0201
12435W        W28244   5.619  17.389  11.404 -0.4393 -0.5005 -0.2305
12436W        W28245   3.224  16.827  12.398  0.2198  0.1200 -0.0138
12437W        W28246  11.202   2.397   3.241 -0.0495  0.1356 -0.0498
12438W        W28247   1.283  16.084   5.022  0.0502  0.2840  0.0299
12439W        W28248   0.933  17.973   0.537  0.0280  0.0117  0.2050
12440W        W28249   0.757   1.236   3.348 -0.0561  0.0594 -0.1639
12441W        W28250   9.231   5.225   4.583  0.1498  0.0883  0.1492
12442W        W28251  14.932   9.073   5.322 -0.2113 -0.1279 -0.1537
12443W        W28252  16.050   4.741  12.922  0.0238 -0.0346  0.0102
12444W        W28253   8.403   5.955   4.355  0.2065  0.0301 -0.1776
12445W        W28254   4.104   7.869   1.312  0.0909  0.1718  0.1581
12446W        W28255   4.061  13.046  13.651  0.0317 -0.1207  0.1488
12447W        W28256  14.625  18.227   3.724 -0.1051  0.1792  0.3451
12448W        W28257  18.815  13.195   2.485 -0.0542  0.0194 -0.0711
12449W        W28258   9.731  10.788   5.350 -0.0038 -0.1311 -0.0110
12450W        W28259   2.253   8.965   5.153  0.0748 -0.0083  0.1196
12451W        W28260   3.954  12.125   4.465  0.0399 -0.3104  0.3238
12452W        W28261  10.820   0.319  12.947 -0.1564  0.0582  0.0894
12453W        W28262  16.639   6.535  14.047  0.0508  0.0334 -0.3066
12454W        W28263  18.762   1.927  11.032  0.1211  0.1008 -0.0399
12455W        W28264  18.757   8.174   5.017 -0.0804  0.0192  0.0873
12456W        W28265   1.949  17.719   3.069  0.1784  0.0129 -0.0162
12457W        W28266  16.086   4.563  14.476  0.1477  0.2870  0.1369
12458W        W28267   7.557  11.940   3.993  0.1305  0.0120  0.1401
12459W        W28268   8.840   4.525  10.685 -0.2721 -0.0218 -0.2188
12460W        W28269  14.577  17.824  12.942  0.0618 -0.0694 -0.0455
12461W        W28270  18.799  17.027   4.503  0.0386  0.0096  0.2005
12462W        W28271   3.611   2.830  11.980 -0.1096 -0.1876 -0.3068
12463W        W28272   5.100  16.706  10.956 -0.2260  0.0334  0.1933
12464W        W28273   4.701   7.480  15.380 -0.1362 -0.1893 -0.3721
12465W        W28274   0.713  12.442  14.651 -0.4224  0.0502 -0.0449
12466W        W28275  17.581   4.221   3.615  0.1537  0.0610  0.2862
12467W        W28276  17.501   5.456  14.403 -0.0894 -0.2442  0.4375
12468W        W28277   6.495  16.385   0.854  0.1615  0.2427  0.1455
12469W        W28278  10.509  10.067  14.055  0.1936  0.0595  0.1735
12470W        W28279  14.915  11.587   0.377 -0.2217  0.1916  0.1194
12471W        W28280  10.996   3.254   0.738 -0.0304  0.2604 -0.1492
12472W        W28281   9.532   3.475  13.292  0.1888  0.2862 -0.1299
12473W        W28282   4.886  13.925   5.265 -0.0163 -0.0272 -0.0964
12474W        W28283  12.203  15.320  12.987  0.1614  0.0326  0.3378
12475W        W28284  15.724   3.680  14.891 -0.6656  0.0619 -0.1701
12476W        W28285   0.944  14.473  13.889 -0.2151 -0.1065  0.2958
12477W        W28286  13.356   8.894   4.022 -0.1340 -0.2928  0.0452
12478W        W28287   6.054  15.407  15.280 -0.2908  0.0123  0.1434
12479W        W28288   3.404  12.957   0.702  0.1386  0.0177  0.2163
12480W        W28289  10.129  16.973  11.898  0.0658  0.0077 -0.1333
12481W        W28290  14.944  12.537   2.678  0.0747 -0.1493  0.0416
12482W        W28291   6.837  18.469   3.386 -0.0986 -0.1544  0.0947
12483W        W28292   3.338   0.976  10.588  0.2506 -0.3729 -0.1234
12484W        W28293  13.315  11.376  12.966  0.2522 -0.0783 -0.0069
12485W        W28294   5.997   3.318  12.051  0.2254 -0.2761  0.2709
12486W        W28295   3.150   4.431  14.820  0.2053  0.5436 -0.3071
12487W        W28296  14.374   3.605   4.579 -0.1993 -0.0558  0.2607
12488W        W28297   7.246   4.562  12.194  0.5447  0.0519  0.0265
12489W        W28298  11.686  14.003  10.019  0.2913 -0.0307  0.0385
12490W        W28299   4.693   0.981   2.078 -0.0414  0.1219  0.1322
12491W        W28300   2.154  11.758   5.395 -0.0456 -0.0103 -0.0230
12492W        W28301  13.437  11.113   2.218  0.1742 -0.0676 -0.1088
12493W        W28302  11.237   2.599  10.550 -0.1204 -0.0289 -0.1712
12494W        W28303   7.375   7.501   0.205 -0.1129 -0.0322 -0.1948
12495W        W28304   9.911   8.550  14.375 -0.1449  0.0986  0.0770
12496W        W28305   0.208  16.719  14.963  0.1564  0.4098  0.3267
12497W        W28306   8.670   3.233  10.083 -0.0639 -0.3800 -0.1872
12498W        W28307   7.483   2.442  12.311 -0.4492  0.1887 -0.1212
12499W        W28308  13.062   9.661   3.690 -0.1162 -0.2163  0.0859
12500W        W28309  10.712   0.739   3.079  0.2438  0.0671  0.0066
12501W        W28310  10.136   5.106   4.585  0.1050  0.2345 -0.1946
12502W        W28311   3.331   0.483   3.446 -0.1976 -0.1526 -0.3876
12503W        W28312  15.748  11.187  14.178  0.1445 -0.1799 -0.1160
12504W        W28313  13.534  14.272   6.062  0.0044  0.2798 -0.1704
12505W        W28314  14.288   7.337   0.998 -0.1336 -0.2252 -0.4088
12506W        W28315   1.919   3.518  13.979  0.1849 -0.1605  0.0808
12507W        W28316   2.974   6.572   0.124 -0.2912 -0.0245  0.0601
12508W        W28317   2.014   4.008  13.959  0.1585 -0.1734 -0.1559
12509W        W28318  10.872   4.031  13.693  0.1636 -0.0118 -0.0020
12510W        W28319   1.354  10.120   5.102 -0.1546  0.2302 -0.0977
12511W        W28320  16.860  11.364   3.281  0.2178  0.0594 -0.0378
12512W        W28321   6.345   9.149   3.863 -0.0096  0.1159  0.1377
12513W        W28322   1.754  17.895  12.861  0.0429  0.1968  0.2162
12514W        W28323   4.134   6.290  11.784  0.3595 -0.1511  0.4840
12515W        W28324  13.322   7.992   2.697 -0.0793 -0.2174  0.3012
12516W        W28325   1.835   1.801   2.725  0.1793  0.0485 -0.0468
12517W        W28326   1.389  16.042   2.117 -0.2740 -0.3947 -0.1851
12518W        W28327  11.830   5.103  11.312 -0.1106  0.1699  0.5523
12519W        W28328   2.475  16.780   1.360 -0.0321 -0.2265 -0.0370
12520W        W28329   5.051   6.026  12.470  0.0339 -0.0373  0.2321
12521W        W28330   6.582   5.756  11.455 -0.1437  0.3521  0.0602
12522W        W28331  12.846  13.506   0.317 -0.4706 -0.1462 -0.2860
12523W        W28332  13.918   5.722   3.309  0.4484 -0.2137  0.0700
12524W        W28333   9.767  15.801  11.738  0.0232 -0.1252 -0.1949
12525W        W28334   9.680  11.139  10.996  0.0837  0.2416  0.2240
12526W        W28335  11.453  13.353  14.471  0.1727 -0.0683 -0.0363
12527W        W28336   1.690   4.208  12.136 -0.0200  0.1090 -0.0948
12528W        W28337   3.166   2.867   0.311  0.1122 -0.0562  0.0724
12529W        W28338   4.108  10.783   4.896 -0.0434 -0.4869 -0.0400
12530W        W28339  16.360   3.464   1.183 -0.1511  0.1888 -0.1254
12531W        W28340   7.799  15.353  14.465  0.1295 -0.2412  0.0945
12532W        W28341  14.403   9.997  11.356 -0.0003  0.0275  0.5954
12533W        W28342   8.255   8.025  11.201  0.1969  0.1525 -0.2151
12534W        W28343  18.555  15.843   3.721 -0.3604 -0.3779 -0.0752
12535W        W28344   9.524  14.423  12.969  0.0683  0.2190  0.1996
12536W        W28345  14.801  17.174   4.593  0.1948  0.0766  0.2228
12537W        W28346  12.115   9.972  12.363 -0.0583  0.2199 -0.2875
12538W        W28347  18.311   1.752  13.759  0.3639  0.0025  0.2391
12539W        W28348   0.823   7.576   0.731  0.0440  0.0510 -0.2969
12540W        W28349  15.933   8.255   5.930 -0.1060 -0.2106 -0.0476
12541W        W28350  15.524   9.967   5.277 -0.0394  0.0301  0.3105
12542W        W28351  16.378  15.444  11.697  0.3571  0.1109  0.1030
12543W        W28352   0.468   9.491   5.452  0.1658 -0.2703  0.0838
12544W        W28353   8.631   4.021   3.652 -0.3672 -0.0005  0.0147
12545W        W28354  15.803  12.531  10.767 -0.1067  0.2156  0.1179
12546W        W28355  12.886  17.628  13.750  0.1723 -0.0397 -0.1203
12547W        W28356  12.652   8.093  11.751  0.1828  0.1195 -0.0679
12548W        W28357  10.208   0.409   6.003  0.1807  0.1508  0.1563
12549W        W28358  17.640   1.426   0.045  0.0167  0.2481  0.0660
12550W        W28359  13.789   3.310   1.357 -0.0018  0.0440  0.0118
12551W        W28360   2.226   0.133  14.796 -0.3258 -0.1273  0.1548
12552W        W28361  13.271   4.254   0.603  0.0424 -0.0552 -0.0888
12553W        W28362   3.533  10.693  10.731 -0.2337  0.0395 -0.0389
12554W        W28363  11.374   4.668  11.906  0.5954  0.2091  0.1753
12555W        W28364   8.729   1.496   3.070 -0.0308  0.3435  0.2011
12556W        W28365  15.893   5.171   3.369  0.3478  0.4654 -0.0881
12557W        W28366   0.468  15.317  12.690 -0.3926  0.0649  0.0963
12558W        W28367  13.350  13.802   1.544  0.0556  0.1518 -0.0539
12559W        W28368  10.719   9.550   3.911 -0.4087  0.1269 -0.1661
12560W        W28369  10.104   7.456   0.849  0.2211 -0.0616  0.2068
12561W        W28370  18.204  10.068   1.763  0.2039  0.0482  0.2620
12562W        W28371  12.756  11.502  13.889  0.1649  0.1547 -0.1242
12563W        W28372  17.953   9.841   9.752  0.0617  0.0876  0.0299
12564W        W28373   2.618   2.052  10.570 -0.1236  0.3839  0.1362
12565W        W28374  15.167  16.716   3.504  0.1500  0.0082  0.2094
12566W        W28375   0.113   1.984   1.898 -0.0039  0.0741 -0.0846
12567W        W28376  17.003   1.835  14.489 -0.0013  0.0789 -0.1173
12568W        W28377   2.900   4.699  12.686  0.0546  0.2471  0.3303
12569W        W28378   9.113   8.764   2.459 -0.2907  0.1677  0.2970
12570W        W28379  15.894   1.016  11.232  0.5151 -0.2298  0.2529
12571W        W28380   3.846  12.821  14.497 -0.0664 -0.0656 -0.1167
12572W        W28381  16.911   8.941  14.221  0.2394  0.1875 -0.2205
12573W        W28382  10.510  16.532   3.089  0.1598 -0.0391  0.1920
12574W        W28383   5.542   9.210   1.757  0.2628  0.0531 -0.3538
12575W        W28384   1.556   0.900   1.925 -0.0197  0.2758  0.1215
12576W        W28385  12.327  18.401  14.759  0.2960 -0.0527 -0.3251
12577W        W28386   6.414   1.209  14.374 -0.1314  0.2357 -0.0399
12578W        W28387   0.622  12.897  11.102  0.2227  0.0853  0.0023
12579W        W28388  14.830   4.453   3.352 -0.0322  0.0815  0.2731
12580W        W28389  17.311   8.466  14.929  0.1518  0.0772  0.0401
12581W        W28390  11.616   7.865  14.164 -0.5034 -0.0493  0.1433
12582W        W28391   9.027   1.574  12.389 -0.1412  0.2345  0.3171
12583W        W28392   2.270   3.322  10.648 -0.2716 -0.2950  0.1360
12584W        W28393   4.989   7.739  11.785 -0.1487  0.1156 -0.0270
12585W        W28394   9.334   8.245  11.178 -0.0442 -0.1770 -0.1373
12586W        W28395  11.514  13.803  14.720  0.0023 -0.5965  0.0178
12587W        W28396   0.153  10.877  10.942 -0.0033 -0.0911 -0.2290
12588W        W28397   3.584  16.267   0.802  0.0308 -0.0970  0.1195
12589W        W28398   0.000   5.353   3.746  0.0747 -0.1839 -0.0113
12590W        W28399  16.328   1.762   2.111 -0.0966 -0.1564 -0.0058
12591W        W28400   4.134   8.410   2.377 -0.4026  0.0838  0.0418
12592W        W28401   9.065  16.291   3.509 -0.3556  0.2400 -0.0173
12593W        W28402   6.354  16.775   4.411 -0.2277 -0.0907  0.3539
12594W        W28403   0.251   3.685   4.173  0.5617  0.0506 -0.0524
12595W        W28404  14.738   0.519   4.674  0.0035  0.1256 -0.1458
12596W        W28405   8.600   8.122   0.251  0.3695 -0.2562 -0.1939
12597W        W28406   3.874   4.732  13.103 -0.1871 -0.2002 -0.0105
12598W        W28407   3.661  12.289  12.378 -0.0279  0.0218  0.1006
12599W        W28408   0.922   2.649  10.883 -0.0852 -0.2920  0.0782
12600W        W28409  14.235  18.265   5.412 -0.2508  0.0441 -0.1427
12601W        W28410  10.635   3.472   1.625  0.0863  0.1179  0.1077
12602W        W28411   8.784   1.509   0.827  0.2762 -0.1233  0.3526
12603W        W28412  10.005   6.833   4.049 -0.3630 -0.1248 -0.0443
12604W        W28413   7.845   5.363  11.683  0.0857 -0.1506  0.2573
12605W        W28414   5.027   4.765   0.684 -0.0219 -0.3452 -0.0853
12606W        W28415   2.145   9.513   5.082  0.0072  0.2130  0.2846
12607W        W28416   0.962   1.479  14.255  0.3291 -0.0067  0.1065
12608W        W28417   6.560  11.837   4.591 -0.1669 -0.1401 -0.1398
12609W        W28418   9.038  17.094   0.794  0.1364  0.0737 -0.0694
12610W        W28419   5.704   8.425  11.628 -0.0484 -0.0319  0.0683
12611W        W28420  18.309  18.670  11.040  0.2654  0.2131 -0.0398
12612W        W28421   9.481   2.330   0.074 -0.0923  0.0724 -0.1931
12613W        W28422   9.960  11.846  11.450  0.1431 -0.0043 -0.1864
12614W        W28423   2.525  11.580  10.894  0.1115  0.2212  0.1782
12615W        W28424  13.798  15.395   4.010 -0.0664  0.0519 -0.0057
12616W        W28425  12.659  17.410  12.562  0.2451 -0.0417  0.3168
12617W        W28426  16.166   2.939  15.189 -0.0344  0.0659  0.2113
12618W        W28427   1.703  11.221  14.781  0.2083 -0.0133 -0.2104
12619W        W28428  12.208   0.804   1.660 -0.3696  0.0937 -0.0434
12620W        W28429  17.300   1.707  12.031  0.1856 -0.0939  0.1953
12621W        W28430   0.206   4.825  12.298  0.1543  0.2691 -0.2878
12622W        W28431  13.084   2.073   2.694  0.1547 -0.0628  0.2811
12623W        W28432   5.150  12.934  13.991 -0.1167  0.2019 -0.2863
12624W        W28433   5.897   5.272   1.582 -0.0953 -0.0647  0.2706
12625W        W28434   7.668  18.420   4.699  0.2837  0.1397  0.1493
12626W        W28435   2.430   1.285   2.572  0.4115 -0.0325  0.0248
12627W        W28436  17.550   1.048   9.637 -0.0890  0.0696  0.1206
12628W        W28437   0.451  10.386  14.490  0.0930 -0.1126  0.0067
12629W        W28438  15.138  10.257  12.472  0.0102 -0.1194  0.1909
12630W        W28439  15.142  17.440  13.674  0.0389 -0.1904  0.2764
12631W        W28440   1.524   0.456  10.568 -0.1889 -0.0784 -0.3137
12632W        W28441  16.428  15.570   3.805  0.1265 -0.0036  0.1099
12633W        W28442   4.942  13.333   3.481 -0.0549  0.0920  0.0265
12634W        W28443  14.293  16.743  15.128  0.0083 -0.2983  0.0358
12635W        W28444   6.366   5.211   1.363  0.1330 -0.1225 -0.0195
12636W        W28445   4.767   9.055  14.371 -0.0296  0.0314  0.3540
12637W        W28446  14.016  15.084   4.342  0.3238  0.2255 -0.1060
12638W        W28447  15.106   7.397  11.220  0.0473  0.0916  0.0172
12639W        W28448   9.973   9.547  13.024  0.3879  0.1790 -0.0050
12640W        W28449   0.324   4.359  14.259 -0.0533 -0.6018 -0.0370
12641W        W28450  13.331  15.000  14.275 -0.0490 -0.2132 -0.0107
12642W        W28451   7.158  17.085  10.663  0.1662 -0.2438  0.0195
12643W        W28452   0.389  14.313   9.450 -0.1587  0.3673 -0.2019
12644W        W28453   6.752   7.478  15.040 -0.0082  0.1274  0.0643
12645W        W28454   7.579   5.238  10.735 -0.2472 -0.1879  0.1433
12646W        W28455   0.866  17.588  13.570 -0.1115  0.1924 -0.0087
12647W        W28456   1.760   6.559  13.011  0.2114  0.0933  0.2047
12648W        W28457   4.947   2.355   2.530 -0.0241  0.0822  0.0205
12649W        W28458   1.577   3.182   3.717 -0.0459  0.0917 -0.0597
12650W        W28459   0.588   3.005  10.769 -0.0290  0.0123  0.1142
12651W        W28460  11.054   1.768  10.960  0.0101  0.1066  0.1252
12652W        W28461   8.376   4.689  14.459  0.2275  0.1755 -0.1072
12653W        W28462   3.971  14.513  11.689 -0.4167  0.1311  0.0495
12654W        W28463   6.297   7.213  13.062 -0.4537 -0.2216  0.1589
12655W        W28464  12.478  14.859  14.115  0.2466  0.0432 -0.0062
12656W        W28465   8.305   2.841   1.942  0.2487  0.2926  0.0395
12657W        W28466  17.106  13.269  12.547  0.2976  0.0718 -0.1519
12658W        W28467   7.124   5.467  15.191 -0.0464  0.1813 -0.1810
12659W        W28468  14.947  13.776  12.786 -0.0263 -0.1044  0.1033
12660W        W28469   5.984   7.828  13.661 -0.2782  0.0147 -0.2437
12661W        W28470   6.349  18.540   3.566 -0.1587  0.2030  0.1520
12662W        W28471   4.258   6.138   4.760  0.0443 -0.3184 -0.0778
12663W        W28472  16.707  15.455  10.525 -0.2167 -0.2819  0.2575
12664W        W28473   6.700   0.100  15.189  0.2341 -0.0699 -0.0004
12665W        W28474   0.664   7.143   5.230  0.0040 -0.0505 -0.0615
12666W        W28475  11.575   5.551   3.258  0.0986  0.3179  0.1791
12667W        W28476  17.126  14.838   5.203  0.1606  0.1968  0.0390
12668W        W28477  11.252  18.886   2.676 -0.0032  0.2710 -0.3268
12669W        W28478   5.272   2.502   4.137 -0.1762  0.3086 -0.1597
12670W        W28479  18.470  11.803   1.539  0.2949 -0.1124 -0.0079
12671W        W28480  12.761  11.500  12.035 -0.1085  0.2729  0.1767
12672W        W28481   9.271   4.396  12.079 -0.2282 -0.1559 -0.1077
12673W        W28482  12.028  10.387   5.095  0.0972  0.1604 -0.1582
12674W        W28483  17.539  16.622  11.970 -0.1195  0.1460  0.2119
12675W        W28484   5.673   8.127  11.286  0.2400  0.3016 -0.0166
12676W        W28485   6.061  10.071   4.325 -0.3735  0.2153  0.0874
12677W        W28486   2.844   3.134   0.030  0.0165 -0.2331 -0.0264
12678W        W28487   5.033  13.571  15.308  0.1324 -0.1551 -0.2136
12679W        W28488   3.219   9.545   3.840 -0.3145 -0.1127  0.1718
12680W        W28489  13.783  10.395  13.525  0.2696  0.3812 -0.2055
12681W        W28490  16.079   5.507   4.067  0.1082 -0.3089  0.2101
12682W        W28491  17.656   3.806   9.691 -0.1660 -0.0641 -0.4071
12683W        W28492  15.016  12.833  12.771  0.0510 -0.2389  0.0059
12684W        W28493  15.816  14.276  14.675  0.2895  0.1180  0.0917
12685W        W28494   6.495  17.038   3.145 -0.2322 -0.0163  0.1533
12686W        W28495   3.030  11.938   2.271 -0.0664 -0.0926  0.1890
12687W        W28496   4.921  13.034   4.794 -0.1508 -0.1212 -0.0171
12688W        W28497   9.412   3.460   5.038 -0.2176 -0.1957  0.2459
12689W        W28498   3.751   0.228  11.041 -0.1708  0.1047 -0.2231
12690W        W28499  12.030   6.514  11.132 -0.2888 -0.1960 -0.1696
12691W        W28500  18.111  13.272  13.470  0.2629  0.2654 -0.1990
12692W        W28501   6.312  18.511  13.936 -0.3691  0.1444 -0.1572
12693W        W28502  12.695  13.046   1.715 -0.2924 -0.0367 -0.5747
12694W        W28503  11.479  18.467   1.317  0.1916  0.2301 -0.2106
12695W        W28504  13.405  18.397   2.170 -0.1813  0.0205  0.3238
12696W        W28505  12.243  10.952   0.939 -0.0697 -0.0559  0.1790
12697W        W28506   4.303  15.735   4.862  0.0960 -0.0281  0.3411
12698W        W28507  17.755  14.725  14.960  0.2757  0.2952  0.1911
12699W        W28508   5.048   0.195   9.931 -0.1411  0.2118 -0.1506
12700W        W28509  18.896   2.681   3.695  0.2074 -0.1937  0.0784
12701W        W28510  16.325   5.828   1.940 -0.0469  0.1450 -0.1243
12702W        W28511  10.716  14.615   4.138  0.0441 -0.1671  0.0296
12703W        W28512  16.068   5.690   3.610 -0.2097 -0.0020  0.1641
12704W        W28513  16.780  14.412   2.575  0.0037  0.1261 -0.0212
12705W        W28514   9.714  10.575   5.970  0.1348 -0.0943 -0.2940
12706W        W28515   1.501   0.280   2.427  0.3799 -0.2392  0.0830
12707W        W28516   2.432   5.755   4.910  0.1040  0.5604 -0.1404
12708W        W28517  10.152   0.881  11.807  0.1200 -0.2240  0.1727
12709W        W28518  18.851   2.331  11.358  0.1248 -0.5034 -0.3219
12710W        W28519   9.359   9.098  15.135  0.2170  0.0707 -0.1480
12711W        W28520  17.656  10.154  15.037  0.0750  0.3767 -0.3530
12712W        W28521   2.901   8.187  13.493  0.3677 -0.0451  0.1607
12713W        W28522   0.952  16.508  13.598 -0.0956  0.3973  0.1299
12714W        W28523   5.819  14.806   5.048  0.1953 -0.0113 -0.0794
12715W        W28524   8.096   7.443  13.417 -0.0063 -0.0823  0.0002
12716W        W28525  16.542   0.744   5.873  0.0364  0.0513 -0.2533
12717W        W28526   7.790   9.514  13.456 -0.0442 -0.0232 -0.1143
12718W        W28527  16.628   3.313   4.274 -0.0405 -0.2402  0.0568
12719W        W28528   1.140  14.554   0.258  0.0242  0.0278 -0.0604
12720W        W28529   0.719   8.566  13.840  0.1381  0.1599 -0.0838
12721W        W28530  17.299  17.701   2.629  0.1156 -0.0211  0.1134
12722W        W28531   8.759   8.141  11.123  0.3184 -0.0037  0.0004
12723W        W28532   8.852  15.448   1.510  0.0031  0.1373  0.2462
12724W        W28533   5.296  11.804   3.552 -0.3741  0.0342 -0.2834
12725W        W28534  15.959   8.837   0.778 -0.0097  0.2498  0.1045
12726W        W28535   7.192   4.517  12.990 -0.1559 -0.0774  0.2400
12727W        W28536   5.620   1.129   5.236 -0.2586 -0.1019 -0.2546
12728W        W28537   2.859   9.810  14.319 -0.1172 -0.1765  0.1795
12729W        W28538   3.502   2.384  10.344 -0.0337 -0.1645 -0.1372
12730W        W28539   3.446   0.191   4.918 -0.3694  0.2954  0.0950
12731W        W28540   5.907  11.629  13.025  0.1294  0.0651  0.0876
12732W        W28541   5.122  12.441   9.597 -0.0707  0.0245  0.2126
12733W        W28542   0.283   9.213  14.908  0.1380 -0.0721 -0.0215
12734W        W28543   9.579   5.363   1.287  0.1079  0.1655  0.4216
12735W        W28544   5.803  13.891   4.933 -0.3934 -0.2237  0.0690
12736W        W28545   5.615   8.386  15.106  0.3899  0.0718 -0.3429
12737W        W28546   5.946   2.290   3.437  0.0516 -0.2994 -0.2115
12738W        W28547  13.539   7.159   5.205  0.1167 -0.0727 -0.1073
12739W        W28548   4.432   5.210  12.284  0.2365  0.1765  0.0093
12740W        W28549   7.098  13.242  12.826  0.2427 -0.1242  0.0699
12741W        W28550   8.470  12.679   4.066 -0.2761 -0.1781 -0.0527
12742W        W28551   1.820   0.515  13.372  0.1117  0.4570  0.0619
12743W        W28552  18.398   9.068  12.996 -0.1335 -0.0705 -0.1020
12744W        W28553  15.606  16.025   5.053  0.1731 -0.1176  0.2181
12745W        W28554   1.233  15.755   1.718  0.2485  0.2247  0.0039
12746W        W28555   2.818   5.743  11.147 -0.1894  0.0408  0.0320
12747W        W28556   3.915  14.017   1.313 -0.2153  0.1092  0.0116
12748W        W28557  17.776   0.987   3.472  0.0723 -0.1313 -0.0615
12749W        W28558  17.097   1.544   2.365  0.1749  0.2831 -0.0719
12750W        W28559  12.719   7.859   2.575  0.0056 -0.1720  0.0395
12751W        W28560   6.860  16.226  11.802  0.2386  0.0014 -0.7339
12752W        W28561  14.817   5.080   4.067 -0.2126 -0.2570 -0.0922
12753W        W28562   9.495  16.165  13.954  0.0240 -0.1823 -0.0295
12754W        W28563  10.112  15.386  11.253  0.0852  0.0537  0.1261
12755W        W28564   8.619   6.492   0.891 -0.2197 -0.0509  0.2733
12756W        W28565   8.465   0.125   2.238 -0.1810  0.1554 -0.0033
12757W        W28566  14.196  11.415  11.761  0.2397  0.1327  0.0826
12758W        W28567  11.511   1.760   3.074 -0.4064  0.3949  0.2510
12759W        W28568  11.799   8.846   4.995  0.0974  0.1251  0.1122
12760W        W28569   6.408   3.235  15.139 -0.0393  0.1692 -0.2680
12761W        W28570  16.416   1.773   6.318  0.1467 -0.0557 -0.0060
12762W        W28571   3.645   7.744  12.405 -0.0774 -0.0215  0.0385
12763W        W28572  12.383   8.953  13.024  0.0693  0.1907  0.0170
12764W        W28573   4.974  18.726  11.581  0.1088 -0.1272  0.1992
12765W        W28574  14.497  10.828  11.931 -0.2320 -0.4562 -0.2588
12766W        W28575   9.713   0.720   1.562  0.0009  0.0888  0.2426
12767W        W28576  10.478  11.131   5.357 -0.0297 -0.1555 -0.0549
12768W        W28577   7.367   0.344   2.307  0.0379  0.0404 -0.1969
12769W        W28578  14.824  14.288  14.011  0.1816 -0.1990  0.1111
12770W        W28579  13.543   5.080   3.885 -0.0768 -0.0655 -0.1759
12771W        W28580   7.892   2.418  12.635  0.1595  0.0066  0.2422
12772W        W28581  10.638  15.474   4.136  0.2522 -0.2944 -0.3828
12773W        W28582  11.164   0.685  11.642  0.0041  0.1187 -0.0125
12774W        W28583  17.860  12.355  10.673  0.0907  0.2101  0.1506
12775W        W28584  14.734   0.329   0.089  0.0714  0.0338  0.0687
12776W        W28585  18.605  11.424   2.302 -0.3239  0.1572  0.0135
12777W        W28586   3.072   0.258   5.737  0.0267  0.2164  0.0787
12778W        W28587   2.709  10.570   5.670 -0.1641 -0.1610 -0.1877
12779W        W28588   5.217   4.517   2.453 -0.1828  0.0040  0.0620
12780W        W28589   8.626  18.738   0.015 -0.1375  0.1849 -0.2809
12781W        W28590   0.449  17.229  10.654 -0.2482  0.2737 -0.2321
12782W        W28591  10.485  18.127  11.151  0.0985 -0.0798 -0.2607
12783W        W28592   6.406  10.174  11.487  0.2012 -0.1254 -0.1697
12784W        W28593   2.896  14.152   1.580 -0.1364  0.0250  0.2911
12785W        W28594   7.284   4.644  10.535  0.0415 -0.1177  0.1228
12786W        W28595   3.874   7.885   9.711 -0.0185 -0.0118  0.1048
12787W        W28596   5.661   8.121   0.524 -0.1126 -0.2073  0.2612
12788W        W28597  17.020   0.133   3.091  0.0820 -0.0647  0.1731
12789W        W28598   7.162   0.874   4.721 -0.0024 -0.3492 -0.0246
12790W        W28599  12.636  17.628   0.208  0.0077 -0.1282 -0.0108
12791W        W28600  13.136  12.392  11.827 -0.1746 -0.0114 -0.0093
12792W        W28601  16.712   8.404  11.958  0.3020  0.0024 -0.0476
12793W        W28602  17.701   0.830  10.426 -0.0250  0.0263  0.0246
12794W        W28603  11.480   0.886  14.398 -0.0084 -0.0611  0.3147
12795W        W28604  11.913   9.735   4.076 -0.3568  0.0569 -0.4658
12796W        W28605   3.260   0.581   0.309 -0.1914  0.1602 -0.2180
12797W        W28606   0.576   4.239   2.060 -0.0423  0.0862  0.0614
12798W        W28607  13.358   6.606   2.064  0.1619 -0.0340  0.0710
12799W        W28608  12.766  16.237  13.982 -0.0526 -0.0805 -0.2897
12800W        W28609   1.453  17.736  15.310 -0.0803 -0.0341 -0.0202
12801W        W28610   7.647  18.368   3.335  0.1709 -0.0296  0.5187
12802W        W28611  16.168   1.399   1.244 -0.3037  0.0415  0.0982
12803W        W28612   4.502   8.162  12.864 -0.0482 -0.1496 -0.1693
12804W        W28613  10.696   5.342   0.078  0.0756 -0.0524  0.0523
12805W        W28614  12.814  16.785   0.846 -0.1381 -0.0753 -0.1382
12806W        W28615   7.123   0.342   1.855 -0.2465  0.3195 -0.2343
12807W        W28616  10.348  15.928   4.007  0.1085  0.2296  0.1839
12808W        W28617   4.465   1.501  13.271  0.2124  0.1170  0.0383
12809W        W28618   6.845   3.553  14.545  0.0712 -0.4513  0.0723
12810W        W28619  10.203   4.460   2.214  0.0427 -0.3087 -0.0243
12811W        W28620  10.720  15.328  12.967 -0.2584  0.2449 -0.1287
12812W        W28621  16.704   9.870  12.791 -0.0814  0.2260  0.4059
12813W        W28622  15.044  17.789  14.755 -0.1807 -0.1127 -0.0076
12814W        W28623  18.371   1.998  11.408 -0.0171 -0.2330 -0.0838
12815W        W28624  14.933   6.052   1.721 -0.1600 -0.2280  0.1031
12816W        W28625  17.670  17.683  14.004 -0.0107  0.2071  0.0611
12817W        W28626   7.288   6.436   3.131  0.0990 -0.0905 -0.1208
12818W        W28627  14.246   4.023  14.905  0.1621 -0.2269  0.0760
12819W        W28628   0.528   5.259  15.338  0.1029  0.2724  0.0784
12820W        W28629   5.114   3.366   3.348  0.0744 -0.2124 -0.2132
12821W        W28630  13.169   7.012  14.707  0.1759  0.2088  0.0141
12822W        W28631  17.854   1.568  14.071 -0.2680  0.1489  0.3006
12823W        W28632   0.280   8.578  13.579 -0.1133 -0.0891 -0.1653
12824W        W28633   7.381   5.032   3.394  0.2122 -0.0158  0.2021
12825W        W28634   3.180   9.197   2.154  0.1266  0.1672  0.4998
12826W        W28635   6.182   5.971  13.025 -0.2092  0.0452 -0.2539
12827W        W28636  13.348   8.018   5.374 -0.1435 -0.0719  0.2593
12828W        W28637   8.236  14.735  14.136 -0.0858  0.0577  0.1667
12829W        W28638   8.633   8.526   5.510 -0.2067 -0.1632  0.1072
12830W        W28639  18.005   7.055  13.333 -0.0541 -0.0145  0.4121
12831W        W28640   8.151   4.724   2.051  0.1896 -0.0179  0.0948
12832W        W28641   9.008   8.372  12.877  0.1157 -0.0092 -0.1115
12833W        W28642  15.438   0.268  13.689  0.0573 -0.0268 -0.2503
12834W        W28643   5.344  15.727  14.811 -0.0244 -0.1412  0.0186
12835W        W28644  11.791  18.444  14.491 -0.1290  0.0885 -0.0825
12836W        W28645  11.035   7.580   3.614  0.1247 -0.1051  0.0745
12837W        W28646  15.367   0.549  14.413  0.0768 -0.1564 -0.0931
12838W        W28647   2.090  13.608   1.603 -0.0003  0.1511 -0.0073
12839W        W28648   5.897  18.810  13.784  0.2136 -0.0864 -0.0568
12840W        W28649  14.173  15.218  13.255  0.4247 -0.0540 -0.0450
12841W        W28650  17.842  17.867   1.343 -0.1822  0.1970 -0.3234
12842W        W28651  14.233  15.363   5.131  0.0379  0.2050  0.1434
12843W        W28652   7.396   5.156   1.092  0.0004 -0.2445  0.1635
12844W        W28653  11.760  18.580  13.260 -0.0591  0.0738  0.0778
12845W        W28654   5.454   6.355  14.942 -0.0576  0.3317  0.1041
12846W        W28655   1.177   5.198  13.336  0.1386  0.2443  0.2154
12847W        W28656   3.522   0.653   1.634  0.3793 -0.0995  0.0824
12848W        W28657   0.405   8.220  12.338 -0.0278  0.2841 -0.1321
12849W        W28658   8.006  10.924  11.680 -0.0961  0.4108  0.0769
12850W        W28659   2.051   9.002  11.725  0.1339  0.1164  0.1607
12851W        W28660   0.683  16.153   4.680 -0.0059  0.2986 -0.2027
12852W        W28661  17.422  11.579   4.845  0.1670 -0.1535  0.1985
12853W        W28662   1.715   4.721  15.305  0.2077  0.4338  0.0410
12854W        W28663  14.047   2.740   4.303 -0.0348  0.1372 -0.1619
12855W        W28664   8.210  17.791   4.461  0.1379  0.2389 -0.1026
12856W        W28665  18.504  13.652   2.620 -0.0121  0.2323  0.3084
12857W        W28666   8.313  14.605   2.502  0.0740 -0.0888 -0.0347
12858W        W28667   4.957  14.009  10.654  0.0077 -0.1233 -0.2815
12859W        W28668  11.359   2.354  14.241 -0.2776  0.0792 -0.0683
12860W        W28669   3.297  11.011  11.223 -0.5154 -0.1196 -0.1492
12861W        W28670  10.173   6.769  13.978  0.0347 -0.1308 -0.2411
12862W        W28671  13.275  11.037  12.522  0.0607 -0.2010  0.0384
12863W        W28672   6.394   3.419   1.499 -0.2279  0.0805 -0.1490
12864W        W28673   3.160   3.082  12.159  0.1575 -0.0409 -0.2377
12865W        W28674  12.050   7.925  11.325 -0.2135 -0.0871  0.1239
12866W        W28675   8.846   6.118   9.793 -0.0811 -0.2179  0.0018
12867W        W28676   6.057   1.840   3.166  0.3520  0.2652  0.2040
12868W        W28677  15.033   9.289  15.264  0.1843  0.0591 -0.0566
12869W        W28678   8.002  14.674   0.606 -0.2180  0.0402 -0.1153
12870W        W28679   3.819  18.027  14.110 -0.2099  0.2084 -0.0506
12871W        W28680   6.233  10.485   0.133 -0.0272  0.2099  0.0571
12872W        W28681   6.849   7.966  10.536  0.1956 -0.0671  0.2390
12873W        W28682   9.026   3.886  13.870 -0.1349  0.1913 -0.0437
12874W        W28683  16.505  11.134  14.212  0.1948 -0.0032 -0.3128
12875W        W28684   1.475   4.829  14.503 -0.1621 -0.1220  0.1427
12876W        W28685  13.902  15.503  14.764 -0.1811  0.1646 -0.2997
12877W        W28686   0.237   8.397  14.074  0.0918  0.0861 -0.3255
12878W        W28687   5.199   8.915  11.089  0.1606  0.3766  0.4101
12879W        W28688   9.330   8.332   3.718 -0.0594  0.0139  0.2740
12880W        W28689  17.786   6.647  14.873 -0.0430 -0.1654  0.0203
12881W        W28690   8.454  16.323   1.077  0.2440  0.1235  0.0227
12882W        W28691  16.722   4.376   2.225  0.2428  0.1798  0.1119
12883W        W28692  18.507  13.221  12.582  0.1011 -0.0147  0.2227
12884W        W28693   3.008  18.374   2.680 -0.5288 -0.1886 -0.2649
12885W        W28694   3.237   1.981  13.877 -0.1437 -0.0667  0.2212
12886W        W28695   7.633   9.720  11.644  0.0486  0.0080 -0.1608
12887W        W28696  16.185   0.209   1.775  0.1081 -0.0087  0.0336
12888W        W28697  15.652   1.088  10.325  0.2494 -0.3405 -0.2583
12889W        W28698   8.152   6.336   0.828 -0.0637 -0.4518 -0.2123
12890W        W28699  15.208   3.276   5.138 -0.0668 -0.3452 -0.1166
12891W        W28700  10.972   4.641  10.886 -0.1987  0.0152 -0.1908
12892W        W28701   1.717  11.971  14.293  0.4113  0.2049  0.3393
12893W        W28702  15.831   7.170   4.181  0.2210  0.2361  0.0732
12894W        W28703   7.741  13.196   5.371 -0.2807  0.2364  0.1873
12895W        W28704  15.767  14.537  12.174 -0.1568  0.1112 -0.0539
12896W        W28705   3.805  13.513  14.916  0.0594 -0.0788  0.0737
12897W        W28706  14.746   3.597  10.660  0.2236  0.0249  0.1342
12898W        W28707  10.011   5.559   2.994 -0.1299 -0.0025 -0.1640
12899W        W28708  16.119   5.893   4.456  0.2030 -0.0296  0.3873
12900W        W28709  16.126  10.869   1.854 -0.0103 -0.1080 -0.0850
12901W        W28710  17.014   8.282   4.819 -0.0708 -0.0097  0.0392
12902W        W28711   1.097  12.943   3.904  0.1157 -0.1137 -0.2093
12903W        W28712   3.479   9.110   0.606 -0.1199  0.0841 -0.2825
12904W        W28713   5.335   5.649  12.191  0.2858 -0.0160  0.0101
12905W        W28714  13.390  17.383   1.121 -0.2721 -0.0687  0.0264
12906W        W28715  16.175  10.321   0.482 -0.1478 -0.0674 -0.0402
12907W        W28716  10.339   6.241   0.138  0.2980  0.0418 -0.1671
12908W        W28717  16.164  12.858  11.871  0.2391  0.1489  0.0547
12909W        W28718  14.643   2.381   2.412  0.3268  0.1147  0.0545
12910W        W28719   4.559   3.251  14.358 -0.5730  0.1751 -0.3034
12911W        W28720   1.723  17.923   1.672 -0.0517  0.2441  0.1453
12912W        W28721  12.686  17.174   2.115  0.0250 -0.0722  0.0614
12913W        W28722   3.975  16.185  15.265 -0.0341 -0.0573  0.6851
12914W        W28723   8.192  14.394   9.694  0.3206 -0.0670  0.1905
12915W        W28724  14.806  11.888   4.366 -0.2478 -0.0404 -0.2966
12916W        W28725   6.313  11.676   2.832  0.2737 -0.1025 -0.2844
12917W        W28726  12.852   4.400   0.954  0.1337 -0.0086 -0.1496
12918W        W28727   1.523  16.481   2.493 -0.1512  0.2423 -0.1125
12919W        W28728   2.653  11.942   5.548 -0.2968 -0.1295  0.1160
12920W        W28729   9.913  13.363   3.379  0.0682 -0.1249 -0.2883
12921W        W28730  14.537   7.266  15.295 -0.0886 -0.1434 -0.1154
12922W        W28731  15.549  16.017  11.567 -0.0613 -0.1694  0.1370
12923W        W28732   1.586   1.205   4.607  0.1024  0.3148 -0.2364
12924W        W28733  14.309   2.261   4.709 -0.3798 -0.0194  0.2060
12925W        W28734  10.837   9.779   4.685 -0.0441 -0.0076 -0.0779
12926W        W28735  17.109  13.402   2.441  0.0337 -0.1350  0.0041
12927W        W28736   8.760  17.741   1.684  0.2153 -0.1923  0.3547
12928W        W28737  13.977   9.294   4.925  0.1398 -0.1397 -0.3801
12929W        W28738   9.144  11.209  12.660 -0.0948 -0.1510 -0.1200
12930W        W28739  11.397   0.482   4.463 -0.0681  0.2340  0.0309
12931W        W28740  12.267   6.895   0.450  0.1329  0.1800 -0.2026
12932W        W28741   5.391   1.607   3.579  0.1682 -0.0516 -0.1759
12933W        W28742  17.844  12.096  13.051  0.0649 -0.1629  0.0752
12934W        W28743  14.630   1.194  13.822 -0.0343  0.4199  0.1015
12935W        W28744   2.164   0.288   9.280 -0.1942  0.0341  0.0162
12936W        W28745   4.032  17.354  14.805  0.2198  0.2260  0.0171
12937W        W28746  16.609  14.177   2.100  0.2402 -0.1659  0.3357
12938W        W28747  15.433   8.162  15.189 -0.2250  0.0647 -0.1096
12939W        W28748   9.341   0.576   2.504 -0.0641  0.0114  0.1185
12940W        W28749   5.668  16.001   2.733 -0.0244 -0.1119 -0.3330
12941W        W28750  16.600  17.748   3.857  0.1303  0.1877 -0.0118
12942W        W28751   4.291  18.355  15.370  0.0990  0.0308 -0.0127
12943W        W28752  10.285  11.926   4.833 -0.3488  0.0227  0.3377
12944W        W28753   0.362  12.082   3.956 -0.2557 -0.1422 -0.0834
12945W        W28754  12.073  17.720   3.820 -0.1209  0.1718  0.4355
12946W        W28755  12.997   1.762  11.228 -0.3417  0.2553  0.0499
12947W        W28756  11.441  11.663  12.781  0.0799  0.1938 -0.2962
12948W        W28757  11.911  15.494  14.917  0.1009  0.1120 -0.1718
12949W        W28758  14.825   8.718  13.563 -0.3899 -0.2168 -0.1889
12950W        W28759  11.008  10.104   3.109  0.0150 -0.0688 -0.0830
12951W        W28760  17.795  14.801   4.373 -0.2250 -0.5435 -0.0833
12952W        W28761   0.766   1.163   5.144  0.0845  0.0715  0.2239
12953W        W28762   3.315  18.919   3.261  0.1491  0.1801  0.4586
12954W        W28763   1.430   7.687   1.922  0.2800  0.2264  0.1704
12955W        W28764   7.511  11.436  11.066 -0.3118 -0.0174  0.3819
12956W        W28765  16.014   6.985  14.590 -0.2046 -0.3638  0.0839
12957W        W28766   8.055  16.460   4.723  0.1945  0.0460 -0.1777
12958W        W28767   6.930  13.518   4.619  0.1462  0.1668  0.2478
12959W        W28768   4.008   1.283  11.047  0.4261  0.2723  0.3054
12960W        W28769   7.960  18.820   4.838 -0.0896  0.0722  0.1493
12961W        W28770   0.112  10.000  11.415  0.1247 -0.0816 -0.0821
12962W        W28771  12.958   2.679  12.996 -0.0039  0.1206 -0.3525
12963W        W28772   4.336  13.192  11.532 -0.1761  0.1632 -0.0638
12964W        W28773  14.602   8.712   3.460 -0.0112  0.1644 -0.1590
12965W        W28774   8.442  10.994   1.845  0.0792 -0.1666 -0.0563
12966W        W28775  17.462  14.166   4.894 -0.0636  0.1088  0.2427
12967W        W28776  13.315   4.118  13.693  0.0966  0.4537 -0.0549
12968W        W28777  15.318   6.979   5.012  0.2978 -0.1874 -0.0041
12969W        W28778   6.338   8.989  10.601 -0.1722  0.4219 -0.0756
12970W        W28779   7.384  12.631  10.455 -0.2846 -0.0353 -0.1368
12971W        W28780   1.258  12.213  12.991 -0.1735 -0.0429 -0.0404
12972W        W28781  17.444  12.390   1.106 -0.2576  0.0508 -0.2536
12973W        W28782  11.420  11.800   1.802 -0.1716  0.2893  0.1312
12974W        W28783   7.326   6.436   1.414  0.0540  0.2264  0.2301
12975W        W28784   1.107  11.414  10.532 -0.1274 -0.0114 -0.0826
12976W        W28785   7.458  12.462   1.343  0.4451  0.2894  0.1874
12977W        W28786  18.294   6.698  14.670 -0.0470 -0.0436  0.1807
12978W        W28787  18.483   2.181   1.997 -0.1169  0.0602  0.1397
12979W        W28788  11.277   2.461   1.722 -0.2129  0.2500 -0.0182
12980W        W28789   6.270   2.086  11.189 -0.3609 -0.0281 -0.0322
12981W        W28790   6.540  13.284  14.860 -0.2682  0.0315 -0.2903
12982W        W28791  11.920   0.307  11.128  0.0474 -0.1609  0.0084
12983W        W28792   0.182   1.813  12.861 -0.1842 -0.0463 -0.3875
12984W        W28793  17.955   2.561  13.851  0.0094 -0.4203 -0.3249
12985W        W28794  10.637   7.731  15.144 -0.5376 -0.0305  0.2555
12986W        W28795  17.381   5.457  15.362 -0.1425  0.1522 -0.0263
12987W        W28796   0.387   4.663  11.044  0.0991 -0.2735 -0.1130
12988W        W28797  16.804  15.365  12.046  0.0913 -0.0034  0.0115
12989W        W28798   3.322   1.052   2.368  0.3979  0.1490 -0.0485
12990W        W28799   7.979  15.781  13.684  0.0396  0.0854 -0.0827
12991W        W28800   9.171   7.713  13.459  0.2795  0.1206  0.2511
12992W        W28801   9.435   0.125   3.547  0.0144 -0.1309  0.1438
12993W        W28802  16.079   3.213   2.095 -0.0089 -0.0235  0.1372
12994W        W28803   6.787  12.655  12.227  0.0829 -0.1489 -0.1293
12995W        W28804  18.130   7.804   4.539  0.0931  0.0668  0.0566
12996W        W28805   1.083  14.629  13.002 -0.1857 -0.1946  0.1933
12997W        W28806  16.218   1.000   5.593 -0.2165 -0.2745 -0.2012
12998W        W28807   7.041   8.442   1.797  0.0160 -0.1547 -0.2562
12999W        W28808   4.361  15.297   2.354 -0.2918  0.1669 -0.0621
13000W        W28809  14.896  11.383  13.754 -0.0203 -0.2092  0.2378
13001W        W28810   0.864   8.838   2.574 -0.1749 -0.1186 -0.1734
13002W        W28811   8.213  17.480  14.894  0.0667  0.0611  0.1340
13003W        W28812  18.608   6.202  12.246 -0.0213 -0.0132  0.1458
13004W        W28813  14.193   6.195   3.936  0.0881 -0.1540  0.1031
13005W        W28814  14.434  12.984  14.318  0.0183 -0.1359 -0.0518
13006W        W28815  13.685   2.976   4.700 -0.1569  0.1924  0.1641
13007W        W28816  10.817  12.246   4.770 -0.0005  0.0141  0.0084
13008W        W28817   5.530   5.240   5.523 -0.2376 -0.0539  0.0600
13009W        W28818  18.098  16.078   0.614  0.0168 -0.0138  0.1838
13010W        W28819  18.506   9.843   2.660 -0.0414  0.3660  0.0400
13011W        W28820  18.606   6.512   1.802  0.0339  0.1143  0.0361
13012W        W28821  16.271   5.307  12.425  0.1020  0.0756  0.3428
13013W        W28822   1.141  12.691  14.672  0.2802  0.0385  0.0306
13014W        W28823  11.239   8.043   3.790 -0.2074 -0.0107 -0.1437
13015W        W28824   6.168  11.886  14.411  0.1164 -0.0714 -0.3693
13016W        W28825  18.000   5.204  14.315  0.0000 -0.0298 -0.1961
13017W        W28826   5.288   9.758  12.640  0.1612 -0.0686  0.0956
13018W        W28827  16.102  16.197   4.677 -0.0988 -0.0894 -0.1234
13019W        W28828   6.405  16.291  14.329 -0.0393 -0.2839  0.0621
13020W        W28829  16.700  10.245   0.360  0.2342 -0.3321  0.3582
13021W        W28830   8.141  14.279  13.812  0.1577  0.2245  0.0515
13022W        W28831   5.331   9.895   0.183 -0.0246  0.0495  0.0381
13023W        W28832   8.026  17.520   2.358 -0.0925  0.1093 -0.0749
13024W        W28833   7.897  13.746  13.250 -0.0202 -0.0723 -0.0556
13025W        W28834   9.599  11.381   4.371  0.0099 -0.2276 -0.0038
13026W        W28835   5.395   2.893  13.521  0.1186  0.1466  0.2275
13027W        W28836   7.863  10.985   1.217  0.1650  0.1511 -0.1673
13028W        W28837   3.278  17.819   1.889  0.1353  0.1795 -0.0080
13029W        W28838  11.292  18.817  11.180 -0.2350 -0.0289  0.2792
13030W        W28839   5.237   5.842  13.119 -0.1218  0.0072 -0.0113
13031W        W28840   6.895   7.902   0.566 -0.1468  0.0871 -0.2212
13032W        W28841   6.338  13.049   4.024 -0.0340 -0.1739  0.3142
13033W        W28842   2.972  14.342   4.025 -0.0355  0.0755 -0.5041
13034W        W28843  13.644  15.945   4.004 -0.1897 -0.1263  0.1154
13035W        W28844  15.621   1.854   5.310  0.0432 -0.2301  0.0859
13036W        W28845   1.692   7.153   0.029 -0.1872  0.2001  0.1179
13037W        W28846  13.392  13.116   2.429  0.1060  0.3282 -0.0869
13038W        W28847  13.954   9.647   2.342  0.2590  0.0476 -0.1322
13039W        W28848   0.566  17.053   4.776 -0.5788  0.2987  0.2968
13040W        W28849  18.152   6.428  13.271 -0.0602 -0.0728 -0.0409
13041W        W28850   1.089  15.092  11.165  0.2286 -0.2487  0.3724
13042W        W28851   1.957  15.908   0.306 -0.3156  0.0704  0.0084
13043W        W28852   0.360  14.298   1.941 -0.1304 -0.1184 -0.2522
13044W        W28853   6.854  16.543  13.390 -0.1020 -0.0965 -0.1170
13045W        W28854  16.328  10.307  14.815 -0.1884 -0.4587  0.0839
13046W        W28855   4.278  17.929  11.587 -0.2857 -0.1051 -0.0124
13047W        W28856  16.436  17.904  14.391  0.0698 -0.0907 -0.1357
13048W        W28857  17.555  16.432   4.755 -0.1030  0.0909 -0.2385
13049W        W28858  14.899   8.749  15.385  0.2677 -0.2089  0.4688
13050W        W28859   4.968   0.623  14.332 -0.1535 -0.2507  0.0016
13051W        W28860  14.118  13.284   1.858 -0.1647 -0.0375 -0.1835
13052W        W28861  18.692  17.229   0.658  0.0783 -0.1429 -0.0740
13053W        W28862   0.714   9.902  13.995  0.1650  0.4042 -0.0428
13054W        W28863   9.931  12.270  11.073  0.0264  0.5503 -0.1462
13055W        W28864   8.890  15.914   2.257 -0.3548  0.2347  0.1634
13056W        W28865   9.536   5.038   0.876  0.1442 -0.0939  0.1797
13057W        W28866  16.033   0.975   2.982  0.3745 -0.2018 -0.1671
13058W        W28867  10.487  14.374   1.682  0.3449 -0.0592 -0.1879
13059W        W28868  15.141  17.432   3.355  0.1457 -0.0495 -0.2766
13060W        W28869  14.753   3.040  12.212 -0.0168  0.1338 -0.0070
13061W        W28870   2.084   0.596   2.065 -0.0780  0.4360  0.1084
13062W        W28871  17.414  12.264   0.630  0.0371 -0.0687  0.1741
13063W        W28872   4.373   9.983  14.247  0.2588 -0.1794  0.0301
13064W        W28873  18.223   0.740  14.938 -0.0769  0.1317 -0.2496
13065W        W28874   1.047  13.173  11.351 -0.0787 -0.2786 -0.0666
13066W        W28875  16.083   4.983  11.631 -0.2768  0.1217  0.1837
13067W        W28876  17.322  15.548   2.872  0.0310 -0.3267  0.2283
13068W        W28877  10.487  13.171   4.186  0.0183 -0.1211  0.0697
13069W        W28878  11.098  15.116   3.154 -0.2335 -0.1170  0.0121
13070W        W28879   5.205   9.831   4.735  0.1602  0.2165 -0.0155
13071W        W28880   2.189   0.578   3.061 -0.1570  0.0622 -0.0074
13072W        W28881   1.412  18.109   2.541  0.2651  0.1657  0.2898
13073W        W28882   5.204   4.277   4.708  0.1643 -0.0369  0.0673
13074W        W28883   4.454  15.483  15.352  0.1745 -0.0719  0.0192
13075W        W28884   2.857   8.525   0.373 -0.1127 -0.2103  0.2078
13076W        W28885   4.477   1.568   2.181 -0.0607 -0.1771 -0.0726
13077W        W28886  18.322  11.541   0.235  0.0110 -0.1254  0.1476
13078W        W28887   3.655  10.928  15.069  0.3027  0.2464 -0.2080
13079W        W28888  17.087   1.715   0.348  0.0626 -0.3292  0.1587
13080W        W28889   9.290   1.148  13.283  0.4973 -0.1821  0.0730
13081W        W28890   1.467   0.024   4.206 -0.3175  0.2820 -0.4053
13082W        W28891  18.342  11.693  14.762 -0.5470  0.0191 -0.0237
13083W        W28892  15.390   4.535  13.099  0.0103 -0.1373 -0.1153
13084W        W28893   6.702   8.703  13.612  0.0194 -0.1022  0.0707
13085W        W28894  17.062   4.207   1.889  0.2383  0.0649 -0.0529
13086W        W28895   8.056  12.832   3.803  0.1310 -0.1933  0.2688
13087W        W28896  18.177   4.793  14.496 -0.0161  0.2502  0.0447
13088W        W28897   0.293  12.848  13.568  0.0252 -0.0932 -0.1026
13089W        W28898   7.129   1.413   0.572  0.2909 -0.2045  0.1984
13090W        W28899  12.352   8.312   5.294 -0.3509 -0.3358 -0.3116
13091W        W28900   9.759   5.040   3.311  0.0722 -0.2194 -0.1251
13092W        W28901   4.563  17.148   1.733  0.1416 -0.0178 -0.0131
13093W        W28902  16.699  17.041   4.938 -0.5171  0.0175 -0.2308
13094W        W28903  16.479   3.212   3.054  0.1129  0.1332  0.4800
13095W        W28904  10.039   1.044  15.250  0.2212  0.0428  0.1300
13096W        W28905  17.298   3.727  12.311  0.1096 -0.1596 -0.0240
13097W        W28906  14.109  15.870   4.778 -0.0088 -0.3627  0.0681
13098W        W28907   7.587  17.402  15.283 -0.1405 -0.2335  0.0253
13099W        W28908  18.698   0.340  15.296 -0.0624 -0.1698  0.0421
13100W        W28909   5.212   5.755   3.121 -0.1035 -0.1420 -0.2176
13101W        W28910   6.894  15.441   1.013 -0.4761 -0.3157 -0.0609
13102W        W28911  18.640   3.078   2.747  0.3719  0.0268 -0.0381
13103W        W28912  14.707  13.036   3.787 -0.2463 -0.1268 -0.3099
13104W        W28913   5.260   6.548  10.606 -0.0192 -0.1280  0.0957
13105W        W28914   8.681   5.183  15.412  0.0604  0.1404 -0.1769
13106W        W28915   7.744   8.750  11.715  0.1198 -0.1992  0.2204
13107W        W28916  16.449  13.428   2.730 -0.1532 -0.3465  0.1480
13108W        W28917   8.525  18.652  14.215  0.1594 -0.0717  0.1548
13109W        W28918   1.153  13.544   4.636 -0.1150 -0.3400 -0.0001
13110W        W28919   9.902   3.171  10.462 -0.3932  0.0952 -0.0622
13111W        W28920  17.047   3.317  12.107  0.1382 -0.1699 -0.2082
13112W        W28921  18.034   3.063  12.165  0.0479 -0.0809 -0.1641
13113W        W28922   7.078  14.385   3.499 -0.1062  0.0239  0.0693
13114W        W28923   7.615   6.827   1.492  0.1128 -0.1877 -0.0252
13115W        W28924   9.823   9.665  14.056  0.1434 -0.4660  0.2476
13116W        W28925  17.113  17.826   5.030 -0.2889  0.0645 -0.0665
13117W        W28926   7.230  10.673  15.116 -0.1314  0.0574 -0.0304
13118W        W28927  10.720  11.572  14.943  0.1546 -0.2663  0.0413
13119W        W28928   3.122   1.770  11.482  0.2626 -0.0362  0.1997
13120W        W28929  10.498   6.695   1.340  0.1015  0.1429 -0.1087
13121W        W28930   8.912  15.867   3.300  0.2278 -0.2548 -0.2678
13122W        W28931   3.711  11.382   2.075 -0.0041  0.1157  0.3252
13123W        W28932   7.424  12.580  13.845  0.0648 -0.0758  0.1707
13124W        W28933  11.611   6.400  11.753  0.2594  0.1519 -0.0511
13125W        W28934  11.448   1.529  13.681 -0.1770 -0.1954 -0.2852
13126W        W28935  11.830   1.114   1.759 -0.0732 -0.0499 -0.1293
13127W        W28936   4.751  14.442   0.687  0.0831  0.0493  0.0494
13128W        W28937   3.469  16.903   2.357  0.0503 -0.2272  0.3066
13129W        W28938   0.952  18.760   3.076  0.4375  0.0641 -0.0023
13130W        W28939  13.092   6.199   4.245  0.1496 -0.2110  0.2580
13131W        W28940  11.670  13.955   2.823 -0.0101 -0.0333 -0.0338
13132W        W28941   0.286  16.731   4.495  0.3114 -0.0604  0.1045
13133W        W28942  11.575   8.152  13.558  0.2087 -0.2209 -0.2936
13134W        W28943   1.995   6.909   1.022 -0.1188  0.0960  0.1381
13135W        W28944   1.332   9.451  12.694 -0.0570 -0.1613  0.2075
13136W        W28945  16.410   9.131  14.241  0.1562  0.0426  0.2911
13137W        W28946  15.649   1.474   3.586  0.1445 -0.2767 -0.0917
13138W        W28947  17.367  18.537  14.768 -0.1648  0.0788 -0.1419
13139W        W28948  16.779  17.848  13.003  0.2617 -0.1887 -0.2593
13140W        W28949   7.216  12.730   0.016  0.2520  0.3476 -0.1615
13141W        W28950   8.605   1.744   4.349  0.0084  0.0188 -0.1455
13142W        W28951  14.043   1.590  11.856 -0.4844 -0.1933  0.1553
13143W        W28952   7.212  18.459  13.392 -0.1384  0.0235 -0.3035
13144W        W28953  12.517  11.692  11.665  0.1650  0.0200 -0.2515
13145W        W28954   7.576   3.044  14.138 -0.0047  0.0932  0.0258
13146W        W28955   9.005  12.351  15.205  0.1905  0.4106 -0.0569
13147W        W28956  12.080   6.243   3.056  0.1770 -0.1150 -0.0436
13148W        W28957  17.264   2.242   0.302  0.2277  0.1501 -0.2664
13149W        W28958  17.070   5.167   0.212  0.0252  0.0001 -0.2559
13150W        W28959  15.820   7.857   1.898 -0.1712 -0.1091  0.2283
13151W        W28960   0.057   8.145   0.429  0.3706  0.2119 -0.1995
13152W        W28961  11.547  12.381  12.258 -0.0670  0.0160  0.1701
13153W        W28962  17.843   6.648   0.772 -0.0252  0.3388  0.1112
13154W        W28963   5.098   4.171  12.193  0.2076  0.0950  0.6093
13155W        W28964  12.620   4.937   0.214 -0.0911 -0.0266 -0.0204
13156W        W28965  18.468  13.877   0.816  0.6043  0.3387 -0.2129
13157W        W28966  16.236  15.295   5.423 -0.2101 -0.1780  0.1725
13158W        W28967  10.112   2.781   3.063  0.0550  0.1603  0.1680
13159W        W28968  12.471   2.121   5.931  0.1801 -0.1759  0.0883
13160W        W28969   8.155   3.269   0.503 -0.2207  0.1031  0.0267
13161W        W28970   5.953   3.569  14.150 -0.0070  0.1010  0.0077
13162W        W28971   8.344  17.900   0.178 -0.6408  0.2391  0.0008
13163W        W28972  14.081   8.559  10.512  0.0945  0.0560  0.0809
13164W        W28973  10.804   1.515   1.017  0.1211  0.0835  0.0783
13165W        W28974  16.352  14.569  12.253  0.3187 -0.1398  0.1700
13166W        W28975   1.990  16.888  11.905  0.2654  0.0883 -0.1647
13167W        W28976   2.012   8.457   5.852 -0.3844  0.0821  0.1118
13168W        W28977  17.551  11.331   0.561 -0.0182  0.1650 -0.1072
13169W        W28978   3.211  10.033   0.050  0.0457  0.3743 -0.3952
13170W        W28979   1.830   1.023  13.248  0.1405 -0.1087  0.0940
13171W        W28980  15.768  13.806   5.740 -0.1923 -0.0258  0.0168
13172W        W28981  17.873   6.581   1.306  0.0865 -0.0162  0.1595
13173W        W28982  12.293   5.939   4.023  0.1507 -0.1365 -0.0486
13174W        W28983  15.984  10.927   4.115  0.0115  0.3562 -0.0861
13175W        W28984   0.522   2.997   1.732 -0.1766  0.3969  0.2778
13176W        W28985   1.690   3.075  11.239  0.0586  0.0491  0.4472
13177W        W28986   5.838   6.618   4.152  0.1213 -0.2856 -0.2411
13178W        W28987   9.665   0.623  11.701 -0.0646 -0.2054  0.0122
13179W        W28988  15.987   4.726   1.146  0.1015 -0.1235  0.2741
13180W        W28989  17.430  13.522   0.008 -0.0794  0.2216  0.2214
13181W        W28990   9.739   7.345   1.671 -0.1632  0.3553  0.1666
13182W        W28991   5.544   5.966  14.361 -0.1022 -0.0879  0.5232
13183W        W28992  16.899  10.375   2.508  0.1790 -0.5087 -0.0692
13184W        W28993  15.275   0.396   2.872 -0.1552  0.0950  0.0266
13185W        W28994   7.908  12.435   2.530  0.1291 -0.1159  0.0379
13186W        W28995  17.009  11.036  14.399  0.0267 -0.0564 -0.2412
13187W        W28996  11.060   3.861   3.139 -0.2256 -0.0122  0.1539
13188W        W28997  17.651   5.592   3.134  0.1985  0.1248 -0.0123
13189W        W28998  13.770  11.282  14.642  0.0565 -0.2059 -0.1953
13190W        W28999   4.895   0.059   3.881 -0.0842 -0.0065  0.1256
13191W        W29000  10.889  13.453   0.771  0.2445 -0.1542  0.0199
13192W        W29001   6.008  17.935  10.165  0.0387  0.0557  0.4173
13193W        W29002   5.648   5.900  15.176  0.2178 -0.3785  0.0247
13194W        W29003   2.390  12.792   0.732 -0.1106 -0.3819 -0.0975
13195W        W29004   8.267  11.435  10.423  0.1071  0.2432  0.0289
13196W        W29005  11.503  16.734  12.148  0.0888  0.3915  0.0063
13197W        W29006   0.581   6.690  13.813  0.1424 -0.2141  0.0200
13198W        W29007   5.518   7.119  11.344  0.3917  0.2724  0.0865
13199W        W29008  17.186   6.418   3.809  0.0545 -0.3014  0.1480
13200W        W29009  16.949  15.186   4.393  0.1730 -0.0010 -0.1663
13201W        W29010  10.761  18.423  14.582  0.2321 -0.1319  0.0277
13202W        W29011  17.159   7.428   3.727  0.0807 -0.3345  0.1696
13203W        W29012   5.981  11.423   4.340  0.1721  0.0101 -0.1619
13204W        W29013  14.029  16.939   2.301 -0.0853 -0.2567 -0.2650
13205W        W29014   4.202  13.450   0.355  0.1641  0.1132  0.3127
13206W        W29015   0.724   8.216  11.301  0.2217 -0.1948  0.0615
13207W        W29016  14.820   4.597  12.853 -0.2286 -0.0552  0.3270
13208W        W29017  10.771   5.950  12.088  0.1557  0.0448 -0.1024
13209W        W29018  13.133  11.322   0.384 -0.0228 -0.4427 -0.1429
13210W        W29019   2.478  11.059   5.732 -0.1659 -0.2509 -0.0294
13211W        W29020  11.039  10.729  13.805 -0.2420  0.0480 -0.1048
13212W        W29021   2.801   8.639   5.342  0.1941 -0.1250 -0.1457
13213W        W29022  10.226   6.739   4.503  0.3043  0.1596  0.0045
13214W        W29023   9.399  16.588  14.614 -0.1729 -0.0214  0.1271
13215W        W29024   2.106   3.052   3.210 -0.1755 -0.3363 -0.0657
13216W        W29025  14.380   1.618  13.171  0.1128  0.0195  0.2066
13217W        W29026  12.260  17.243  11.833  0.0541  0.0530 -0.0485
13218W        W29027  17.549   3.740   3.502  0.0102  0.1918  0.2506
13219W        W29028  12.606   6.478   4.598  0.3695  0.0095  0.0694
13220W        W29029  12.005  14.800   3.211 -0.1490 -0.2462 -0.1941
13221W        W29030  15.071   7.173   2.735  0.1419  0.3243  0.0584
13222W        W29031  10.912   9.739  14.028 -0.0902  0.3092  0.0425
13223W        W29032   2.663  12.495   0.267  0.1252  0.2336 -0.1948
13224W        W29033  16.614  10.554   0.783 -0.1536 -0.1036 -0.1085
13225W        W29034   5.964   8.099  14.112  0.0114  0.2803  0.2956
13226W        W29035   4.767   8.153   4.100  0.4945  0.1766 -0.1712
13227W        W29036  13.079  14.075   3.931  0.0801  0.1390 -0.0644
13228W        W29037  10.150  10.990   0.092 -0.1189  0.1488 -0.2740
13229W        W29038   8.623  10.710  14.815 -0.1563  0.3876 -0.0227
13230W        W29039   0.963  10.403   4.115  0.1158  0.0570 -0.0546
13231W        W29040   2.094  15.835  11.370 -0.2282  0.0376  0.0384
13232W        W29041   1.825   5.914   1.150  0.0467  0.2553 -0.3776
13233W        W29042   1.885   2.563  12.799 -0.0600  0.4098  0.3661
13234W        W29043  12.513   8.285   0.716  0.0556  0.1100  0.0127
13235W        W29044   2.040  15.148   2.860 -0.0566  0.1484 -0.0193
13236W        W29045   5.130   6.486  15.320  0.1341  0.0055 -0.2040
13237W        W29046  13.594  16.073  15.203  0.3563 -0.0374 -0.1164
13238W        W29047  13.705   1.483   2.142  0.3101 -0.0037 -0.0956
13239W        W29048   7.505   5.617  12.406  0.0931  0.4057  0.0582
13240W        W29049   5.993   3.433   0.593 -0.1632 -0.2328  0.2391
13241W        W29050  18.141  16.397  11.168  0.1852  0.3448 -0.0705
13242W        W29051  12.389   0.441  13.296 -0.1131  0.1318  0.0930
13243W        W29052   4.182  13.588   4.021 -0.1531  0.0182  0.0520
13244W        W29053   5.002  12.049  11.160  0.0000  0.1340 -0.0960
13245W        W29054   5.510   2.321  14.872  0.0559  0.0571 -0.3062
13246W        W29055   0.361   0.775   3.160  0.3653  0.1216  0.2042
13247W        W29056   9.170  10.921  11.148  0.0492 -0.0907 -0.1546
13248W        W29057   4.907   1.942  12.654 -0.1792 -0.1374 -0.2326
13249W        W29058   3.741  13.439  13.744 -0.1078 -0.0730 -0.0442
13250W        W29059   5.705   9.734   4.820  0.0401  0.1501  0.0695
13251W        W29060  17.785  11.153  11.011 -0.3211 -0.0994  0.3802
13252W        W29061   4.314   1.627   4.803  0.2177  0.0592  0.1588
13253W        W29062  14.134   5.510  15.174  0.1321  0.0718  0.0531
13254W        W29063  11.765   7.407  12.112  0.1810  0.1760 -0.0483
13255W        W29064  14.990  13.916   3.082  0.0246 -0.0361  0.3345
13256W        W29065  18.577   0.448   3.404  0.0507  0.0544 -0.0053
13257W        W29066  18.253   0.260   0.844  0.0935 -0.0970 -0.0345
13258W        W29067  10.877  15.664  14.103  0.2175  0.2346 -0.0936
13259W        W29068   9.197  15.654   2.982  0.1823 -0.0122  0.1568
13260W        W29069   8.653   6.309  11.249 -0.4097  0.1249  0.1684
13261W        W29070  15.505  17.898   2.006  0.1096  0.0335  0.4184
13262W        W29071  17.135  14.970   3.964  0.1823  0.1421 -0.1065
13263W        W29072   2.465   3.519   3.331 -0.0219 -0.1278 -0.3940
13264W        W29073  18.218   0.834   5.646  0.0407  0.1284 -0.1208
13265W        W29074   6.490   0.176   5.432  0.1923 -0.1176 -0.0052
13266W        W29075  18.907   2.995   0.903  0.1594 -0.1928  0.2836
13267W        W29076   1.934   3.184   4.700  0.1952  0.0526  0.1351
13268W        W29077  16.053   6.840   2.094 -0.1523 -0.4362 -0.3235
13269W        W29078   1.243   1.461  15.263 -0.0288  0.2283  0.0297
13270W        W29079   1.803  10.138   3.017  0.0216  0.0218 -0.1698
13271W        W29080  14.840   8.918   2.345  0.0592  0.2082 -0.0584
13272W        W29081  18.591  17.666   3.841  0.3963 -0.3591 -0.2763
13273W        W29082   3.864  17.637   4.562 -0.3362 -0.0120  0.3254
13274W        W29083   5.756   7.196  14.404  0.2081  0.1116  0.1019
13275W        W29084  18.226  14.221   0.493 -0.1067 -0.3444  0.0588
13276W        W29085   1.350   6.597  13.431 -0.0030 -0.2507  0.0291
13277W        W29086   4.406   6.028   3.630  0.2050  0.1056 -0.0429
13278W        W29087  17.174   8.771   0.304 -0.0559 -0.1345  0.1107
13279W        W29088  18.319   5.176   4.901 -0.4271  0.0985 -0.0724
13280W        W29089  15.368  14.726   2.871  0.1578  0.3966 -0.3296
13281W        W29090  12.089   1.582  12.943 -0.0106  0.2679  0.1903
13282W        W29091   5.318   5.597  12.667 -0.0624 -0.2578 -0.0489
13283W        W29092   2.555  10.215  14.197 -0.2028  0.4705  0.1029
13284W        W29093  11.176   6.516   3.113 -0.2106  0.2793 -0.1646
13285W        W29094  10.451  18.579   1.585 -0.1453 -0.0622 -0.0154
13286W        W29095   2.585   8.749  10.831 -0.2840 -0.3075  0.3558
13287W        W29096   9.211   9.957  11.707 -0.0313 -0.2945 -0.3086
13288W        W29097   2.828  11.543   0.417  0.0759 -0.1924 -0.0379
13289W        W29098  16.661   0.987   5.350 -0.1479  0.1401 -0.2471
13290W        W29099   4.596   5.101   1.645  0.2753 -0.3444 -0.0718
13291W        W29100   9.868  10.939   0.537  0.0222 -0.0230  0.1607
13292W        W29101  12.767   1.633  11.923  0.1129  0.0597  0.0013
13293W        W29102  11.504   1.539   1.779 -0.0062 -0.1786  0.0452
13294W        W29103  15.272   8.075  11.532  0.1737  0.2790 -0.1146
13295W        W29104   1.353   5.359  15.412 -0.0924 -0.0100  0.2261
13296W        W29105  17.996   5.583  12.005 -0.1114  0.1603 -0.2327
13297W        W29106   8.032  11.879   4.091 -0.0983 -0.0522 -0.3060
13298W        W29107   3.892  17.797  15.007 -0.0534 -0.2131  0.0325
13299W        W29108  16.586  12.190  14.756 -0.1295  0.2878  0.0896
13300W        W29109  16.117   1.094  11.972  0.0103  0.1747  0.0002
13301W        W29110   7.737  14.550  12.706  0.1974 -0.2990  0.0386
13302W        W29111   5.319  14.033   2.768 -0.0434  0.3004 -0.0489
13303W        W29112  12.622   0.976  13.489  0.1399 -0.0285  0.2332
13304W        W29113   8.060  18.373  14.337 -0.0824 -0.1764 -0.0181
13305W        W29114   6.257   7.428  13.831  0.0687  0.1588  0.0066
13306W        W29115   8.854  17.996   3.797  0.0536 -0.2719 -0.1362
13307W        W29116  16.348   9.443   0.517  0.0539  0.0772  0.1700
13308W        W29117  12.884   7.438   0.033  0.1783  0.0930  0.0124
13309W        W29118   3.186  14.108  14.236  0.0161 -0.2749 -0.1516
13310W        W29119  16.231   3.871   0.902 -0.0028  0.2471  0.3109
13311W        W29120  14.297   7.133   4.932 -0.1418  0.0615 -0.2688
13312W        W29121   6.507   1.395   1.374  0.0852 -0.3394  0.0878
13313W        W29122  18.428  14.193  13.172  0.2231  0.0591 -0.0326
13314W        W29123   6.266   0.150   3.816  0.3079  0.3064 -0.1430
13315W        W29124  11.815  12.987  10.969 -0.2053  0.0813  0.3913
13316W        W29125   6.849  13.965  11.595 -0.1247 -0.1543  0.2087
13317W        W29126   6.637   2.344   4.048  0.0303 -0.0566  0.1273
13318W        W29127   2.359   6.100  14.918  0.0743  0.0286  0.1275
13319W        W29128   1.492   0.616  13.738  0.4482  0.2321 -0.1892
13320W        W29129   2.358  14.217   1.901  0.0873 -0.2486 -0.1025
13321W        W29130   1.650  15.468   0.772 -0.0611  0.0636  0.3078
13322W        W29131   0.774   3.698   2.730 -0.0173 -0.3198 -0.0439
13323W        W29132   4.394   2.712   1.714 -0.1308 -0.0235  0.0816
13324W        W29133   9.750  14.337   5.695  0.2117  0.1274 -0.2890
13325W        W29134   9.887  15.125   4.534  0.3032  0.0229  0.2322
13326W        W29135  13.404   2.163   1.642  0.1911  0.0391 -0.0294
13327W        W29136   1.352   8.224  14.362 -0.0905  0.3039 -0.1897
13328W        W29137  10.955   4.577   4.279  0.0762  0.1255 -0.3700
13329W        W29138  12.177  12.640   2.074 -0.0578  0.0294  0.2527
13330W        W29139   8.213  13.563  11.276  0.2166  0.3097 -0.0036
13331W        W29140  18.609  15.362   4.459  0.2337  0.0152  0.1184
13332W        W29141  15.005  10.010   9.794  0.0453  0.0747 -0.2696
13333W        W29142   5.627  16.393   1.041  0.1753 -0.0887 -0.1299
13334W        W29143  16.037  13.655   1.029 -0.1329  0.3706  0.0673
13335W        W29144   1.252  12.992  15.085  0.1139  0.0185  0.2173
13336W        W29145   6.339   1.660  10.924 -0.0852 -0.1187  0.0117
13337W        W29146   2.572  14.911   1.083 -0.0020 -0.2996 -0.0127
13338W        W29147  11.656  11.227   4.272  0.0950 -0.1141  0.4320
13339W        W29148   5.499   7.589  13.448  0.1087  0.0923  0.3781
13340W        W29149  13.270  16.700  10.859  0.0660  0.1486  0.1666
13341W        W29150   8.146   8.786   6.021 -0.0751 -0.0452 -0.4073
13342W        W29151   7.397  10.046  13.498 -0.1780 -0.1508 -0.2230
13343W        W29152  18.314   4.661   9.949  0.1313  0.1160 -0.2465
13344W        W29153   3.455   9.774   1.979 -0.2039  0.1253  0.0738
13345W        W29154  11.698  17.944  12.158 -0.2684  0.2256  0.2671
13346W        W29155   7.378  14.798  14.334  0.2773 -0.1601  0.0617
13347W        W29156   1.398   5.459  11.444  0.0473 -0.2400 -0.0952
13348W        W29157   4.122   6.932   1.413  0.2185  0.1284  0.1721
13349W        W29158  10.496  11.172  15.131 -0.4140  0.0588 -0.0255
13350W        W29159  15.245  18.229  10.775 -0.0161  0.0354  0.1185
13351W        W29160  14.909   3.697   4.965 -0.2279 -0.2166  0.2073
13352W        W29161  10.855  12.013   2.409  0.1486  0.0526 -0.2615
13353W        W29162  16.401   3.803  13.735 -0.0431  0.3583 -0.5515
13354W        W29163   0.884   3.950  14.820  0.1080 -0.0635 -0.0254
13355W        W29164  17.699  13.586  11.788  0.0704  0.0536  0.1822
13356W        W29165   0.561  16.885   0.233 -0.0281 -0.0606 -0.1988
13357W        W29166  17.254   3.787   0.426 -0.0274  0.0344  0.1792
13358W        W29167   9.018   3.155   4.820  0.1330  0.0590 -0.1382
13359W        W29168  12.320  15.933  10.532 -0.2585  0.0430  0.3339
13360W        W29169   0.533   6.686   3.867 -0.1032 -0.2195 -0.2015
13361W        W29170  17.498   4.270   6.212  0.1640 -0.0497 -0.2684
13362W        W29171  12.475  18.055  15.199  0.1247  0.1667 -0.2739
13363W        W29172  15.148   0.370  12.878 -0.4242  0.4085 -0.1025
13364W        W29173  18.699   8.679  13.761  0.0037  0.2655 -0.0526
13365W        W29174  17.785  10.629  11.908 -0.2534 -0.0795 -0.0381
13366W        W29175  17.321   1.855   3.133  0.0155 -0.1165  0.0186
13367W        W29176   6.747  16.551  14.022 -0.3268 -0.3420  0.1782
13368W        W29177   9.642  10.356   1.474  0.0356  0.0397 -0.1852
13369W        W29178   1.295  16.738   4.363 -0.1863  0.1761 -0.0537
13370W        W29179  10.291   7.740   3.684 -0.0900  0.0819 -0.0362
13371W        W29180   3.585   5.797  14.081  0.1494  0.3408  0.0140
13372W        W29181   7.883   7.915  13.426  0.4027 -0.1657 -0.1073
13373W        W29182  10.606  18.348  11.688  0.0148  0.0716  0.1025
13374W        W29183   1.954  14.528  13.677  0.0251  0.0394  0.7006
13375W        W29184   9.543   4.168  13.058 -0.1834  0.1917  0.3186
13376W        W29185   1.710  14.619   2.427  0.2004 -0.0407 -0.0301
13377W        W29186  17.941   7.564  15.074  0.0740  0.2037 -0.0845
13378W        W29187  14.595   0.707  14.702  0.2632 -0.0102 -0.1699
13379W        W29188   0.340  14.995   1.332  0.0052 -0.0429  0.2001
13380W        W29189  14.411  18.290   1.596 -0.0930 -0.0053  0.0823
13381W        W29190  18.417  10.976   2.521  0.1880  0.1838  0.1828
13382W        W29191  10.176  16.817   5.788  0.0741  0.0878  0.0558
13383W        W29192  13.761  15.130   3.370 -0.0661  0.0268  0.0500
13384W        W29193  16.414  13.229   0.334 -0.1313  0.1902  0.2459
13385W        W29194   4.671   6.440   3.469 -0.0812 -0.0303 -0.1251
13386W        W29195  16.263   9.558  13.181 -0.0448 -0.1867 -0.3455
13387W        W29196  10.666   8.335  11.681  0.0420  0.0272 -0.2272
13388W        W29197   8.584   3.714   1.907  0.1159  0.0091  0.0971
13389W        W29198   7.753   5.116   1.511 -0.2652 -0.0147  0.0043
13390W        W29199  14.836   9.547   4.661  0.0533  0.0868  0.3581
13391W        W29200   7.679   4.707  15.139  0.3844 -0.0536 -0.1328
13392W        W29201   1.304   4.190   0.428 -0.3177 -0.0181 -0.0143
13393W        W29202  13.385   2.963  11.366  0.2150  0.1922  0.1769
13394W        W29203  14.818   3.500   9.779  0.0051 -0.2651  0.0605
13395W        W29204  14.238  13.091  11.502  0.0474  0.1562 -0.0779
13396W        W29205   1.128   2.689   5.104  0.1308 -0.1618 -0.0051
13397W        W29206   0.300  11.059  11.520 -0.3762  0.1346 -0.1088
13398W        W29207  16.942  12.567   6.237 -0.0407 -0.1033  0.1406
13399W        W29208   9.250   0.336  11.319  0.0425 -0.0033 -0.1396
13400W        W29209   0.786   9.288  15.015  0.1355  0.3457  0.1645
13401W        W29210   8.793   4.114   9.947  0.1514  0.0976  0.1207
13402W        W29211   7.334   9.733   0.593  0.0846  0.0370 -0.0769
13403W        W29212  17.159   2.423   0.786 -0.1679 -0.1123  0.1283
13404W        W29213   8.848  17.666  11.898 -0.1978 -0.1993 -0.2798
13405W        W29214   4.418  18.558  12.858  0.2652 -0.0346  0.1733
13406W        W29215  10.463  18.139   0.481  0.0076  0.1140  0.1375
13407W        W29216  15.527  12.014   1.250 -0.0470  0.1991  0.0203
13408W        W29217   1.379  11.167  11.927 -0.2204 -0.0604 -0.2659
13409W        W29218  13.774  17.737   2.450  0.0985 -0.0810 -0.0673
13410W        W29219   2.945  10.505   0.266  0.0158 -0.3564 -0.3037
13411W        W29220  17.500  11.829   0.442 -0.2712  0.2023 -0.4570
13412W        W29221   4.490   6.597   0.499  0.1114 -0.0630 -0.4438
13413W        W29222   2.307  10.316  10.772  0.3003  0.1733  0.1398
13414W        W29223  15.504  10.127  14.864  0.2943  0.2537 -0.2256
13415W        W29224  16.635   9.525   0.934  0.1622  0.1018 -0.1101
13416W        W29225   5.155   6.970  13.750  0.0048 -0.2372  0.0803
13417W        W29226   3.785   6.210  13.944  0.0076  0.0889 -0.0466
13418W        W29227  17.968   3.147   1.908  0.2109  0.0221 -0.1172
13419W        W29228   0.794   4.356  12.070  0.2563  0.2335 -0.4083
13420W        W29229  14.546  16.236   1.880 -0.0746  0.0562  0.0823
13421W        W29230   8.328  17.729   3.272  0.0984 -0.1771 -0.4523
13422W        W29231  17.958   7.182   3.302  0.0453  0.3016  0.2222
13423W        W29232   3.062   3.302   4.457 -0.0610  0.0100 -0.1268
13424W        W29233   5.577   6.318  11.510  0.2285  0.3432 -0.1684
13425W        W29234  15.817   8.399   5.313  0.3107 -0.0444 -0.1613
13426W        W29235  18.130  12.443  13.724 -0.0265  0.0586 -0.4795
13427W        W29236  11.540  11.003   1.616 -0.0018  0.1133 -0.1727
13428W        W29237  16.487   2.547   5.098 -0.1029 -0.0138  0.0710
13429W        W29238   8.468  15.217   3.293 -0.3895 -0.1884  0.2524
13430W        W29239   5.387   1.082   1.338 -0.1844  0.3577  0.2337
13431W        W29240  17.957   3.671  10.176 -0.1837 -0.2570  0.0657
13432W        W29241   1.232   2.324   5.457  0.0160  0.1172 -0.3657
13433W        W29242  12.515  15.889  14.306  0.2532  0.1653 -0.3413
13434W        W29243  10.956  10.393  12.666 -0.0453  0.0873 -0.0925
13435W        W29244   0.996  15.244  15.135  0.0290  0.1669  0.2399
13436W        W29245  11.724   1.005   4.733  0.0760  0.0734  0.1849
13437W        W29246   9.296  18.232   1.448 -0.0572 -0.5983 -0.1225
13438W        W29247  10.578  12.213   5.203  0.2397 -0.1450  0.0222
13439W        W29248  17.902   2.980  13.095  0.0624 -0.0111 -0.0735
13440W        W29249   0.293   0.968  10.504 -0.3199 -0.3957  0.1197
13441W        W29250  14.248   2.254   0.046 -0.0096 -0.2895 -0.0740
13442W        W29251  17.385  14.895   2.872 -0.1003 -0.1311  0.2925
13443W        W29252   5.589  15.329  11.564 -0.1654 -0.0927 -0.1000
13444W        W29253  12.883  12.308  13.189 -0.1078 -0.2015 -0.0279
13445W        W29254  14.172   8.658   1.374  0.0484 -0.0041 -0.1673
13446W        W29255   1.740   1.526  13.157 -0.2658  0.1243 -0.3516
13447W        W29256  12.929  18.416   0.660 -0.1055 -0.1094 -0.2591
13448W        W29257  17.578   8.877  14.849  0.1468 -0.0738 -0.4455
13449W        W29258   0.287  15.547   5.578  0.0944 -0.1467  0.0666
13450W        W29259  17.359   0.197  12.341  0.1006  0.2977  0.1947
13451W        W29260   2.238   2.826  13.389  0.1826 -0.0175 -0.1683
13452W        W29261   7.801  15.815  14.236 -0.3847 -0.1506  0.4468
13453W        W29262  14.692  12.447  15.015  0.4612  0.1566 -0.0379
13454W        W29263  11.204   6.894  15.007  0.1018  0.2386  0.1194
13455W        W29264   5.182   4.456   4.241 -0.1987 -0.1882  0.0680
13456W        W29265   7.450   8.894   4.697  0.0189  0.0117  0.1321
13457W        W29266   6.504   4.907  11.862  0.2926 -0.0587 -0.2395
13458W        W29267  18.371  13.407  13.009  0.2336  0.0675 -0.0172
13459W        W29268  15.791  12.466   1.381 -0.2097  0.2995 -0.0546
13460W        W29269   9.069   1.908   1.890 -0.1798  0.2135 -0.0833
13461W        W29270   8.400   0.545  10.817 -0.2743  0.1856 -0.0825
13462W        W29271  15.506   7.230   1.365 -0.0736  0.0751 -0.1108
13463W        W29272   2.353  13.989   4.858  0.1995 -0.0294  0.0800
13464W        W29273   9.057   0.843  11.461 -0.0359 -0.0715 -0.3002
13465W        W29274   9.507   3.006  13.542 -0.1884 -0.1785 -0.1696
13466W        W29275   7.507   2.732   1.562 -0.0653  0.1261 -0.3595
13467W        W29276  15.225   5.815   1.379  0.0011  0.0246 -0.2676
13468W        W29277   5.331  15.477  13.138 -0.2189  0.0413 -0.3462
13469W        W29278  12.957   3.184  11.721  0.1107 -0.3093 -0.2535
13470W        W29279  13.451   3.054  13.748 -0.1685  0.1440 -0.0853
13471W        W29280  17.390  11.804  13.083  0.1682 -0.2017 -0.1675
13472W        W29281  15.283  18.662  15.129  0.1503 -0.0841 -0.2988
13473W        W29282  15.817  10.521   0.148  0.3959 -0.2986 -0.3606
13474W        W29283  13.227  17.685   5.442  0.0300  0.0983  0.4176
13475W        W29284  17.893  13.817  15.126 -0.0801 -0.0030  0.0337
13476W        W29285  15.354   7.704  14.992  0.1535 -0.2747 -0.0677
13477W        W29286   1.440   2.315  10.109 -0.0062  0.1915 -0.0049
13478W        W29287   9.838   7.885  14.951  0.0929 -0.1763 -0.0576
13479W        W29288  15.463  10.962  10.855  0.3197 -0.0403 -0.4418
13480W        W29289   5.896   6.419   1.012 -0.3885 -0.1226 -0.1603
13481W        W29290  16.331   0.400  10.877 -0.2974 -0.1916 -0.1047
13482W        W29291  15.126  18.527   0.727  0.1876 -0.1929  0.2776
13483W        W29292   7.679   8.682  13.880  0.2404 -0.2391  0.2699
13484W        W29293  15.626   3.628   3.949  0.2311  0.3908 -0.0532
13485W        W29294  16.070  14.115   3.902  0.0961 -0.2886 -0.0369
13486W        W29295   6.140  16.478   3.221  0.1156  0.2569  0.3077
13487W        W29296  12.795   8.104   1.109 -0.2645 -0.0487  0.1183
13488W        W29297   3.228   8.640   3.259 -0.1155  0.0325 -0.1536
13489W        W29298   9.259   1.651  14.097 -0.2245 -0.0105 -0.0138
13490W        W29299   1.314  13.848   0.827  0.1236 -0.1108 -0.1219
13491W        W29300  16.064   9.959  12.816 -0.4002 -0.0951 -0.0864
13492W        W29301   2.027  11.419   2.243  0.1382 -0.2531 -0.1523
13493W        W29302   1.904  11.369   5.117 -0.2069 -0.0503  0.1647
13494W        W29303  12.515   7.094   1.987  0.0781  0.0595 -0.1501
13495W        W29304   3.292  14.391   1.820  0.2045  0.1374  0.1906
13496W        W29305  16.089   0.237   2.707  0.4076 -0.1563 -0.2181
13497W        W29306   3.077   8.720   4.953  0.1992 -0.1962 -0.3431
13498W        W29307   0.853  10.346  11.398  0.0965 -0.1697  0.3593
13499W        W29308   6.841   7.715  13.461  0.0553  0.3242  0.2331
13500W        W29309  15.066  18.705   4.279 -0.1306 -0.0404 -0.4085
13501W        W29310  12.285   1.982   0.613 -0.0695  0.0834 -0.1136
13502W        W29311   9.632   9.553   4.468 -0.2030 -0.0489 -0.0654
13503W        W29312   1.423   2.275   4.927 -0.2509 -0.0329  0.3476
13504W        W29313  18.479  11.690   3.686  0.3563 -0.0316 -0.5920
13505W        W29314   2.232   5.334   4.114 -0.1240 -0.0494  0.3290
13506W        W29315   5.366   2.881  10.105  0.1332 -0.0635  0.0521
13507W        W29316  17.226  14.894  14.216  0.0373  0.0648 -0.1064
13508W        W29317   9.318   1.845   3.714 -0.0231  0.4033  0.0309
13509W        W29318   8.489  15.094  14.414 -0.0728  0.1789  0.2020
13510W        W29319  17.979   2.595   5.193  0.1700 -0.4137 -0.0086
13511W        W29320  16.934  10.030  13.804  0.0831  0.0507 -0.3055
13512W        W29321  12.080  14.974   4.123 -0.2485 -0.0045  0.2687
13513W        W29322   2.631  14.385  11.485  0.2374 -0.0300  0.3705
13514W        W29323  13.233  15.095  11.870 -0.0143 -0.1043 -0.1391
13515W        W29324  12.427   1.218   1.412  0.1678 -0.0786  0.4034
13516W        W29325   9.393   1.747  14.883 -0.3043 -0.1235  0.1335
13517W        W29326   4.938  15.284   3.016 -0.3689 -0.1494 -0.0373
13518W        W29327  18.303  14.715   0.386 -0.2654  0.1324  0.2143
13519W        W29328  12.967   9.399  12.381 -0.3154  0.2761 -0.0805
13520W        W29329  18.896   5.469   1.465  0.1271  0.1839  0.0963
13521W        W29330   5.547   4.109   2.309  0.0275 -0.0219 -0.0172
13522W        W29331   1.352   8.402   2.411  0.0260 -0.2423 -0.1361
13523W        W29332   7.911   5.074   0.338  0.0166 -0.2719  0.1155
13524W        W29333  17.416   9.714  14.966 -0.2451 -0.1224  0.1648
13525W        W29334   5.228  16.488   1.340 -0.0324 -0.2438  0.2733
13526W        W29335   0.151   2.707   1.944 -0.0631  0.1375  0.2760
13527W        W29336   0.437  10.604  12.056 -0.2549 -0.0161  0.1196
13528W        W29337  16.795   3.788   4.293 -0.1538 -0.2273 -0.2427
13529W        W29338   7.434   9.380   0.892 -0.1277 -0.4529 -0.1016
13530W        W29339   8.510   9.074  12.033  0.0784  0.3371 -0.0243
13531W        W29340   9.757  13.758   2.978  0.0545 -0.1903  0.0720
13532W        W29341  15.642  10.785   3.349 -0.1378  0.0962  0.1627
13533W        W29342  18.342   4.527   0.169  0.0303 -0.0925 -0.0745
13534W        W29343   1.390  11.841   2.782 -0.2771  0.0444  0.0157
13535W        W29344   1.145   7.197  14.847 -0.1782  0.2813  0.1277
13536W        W29345  18.579  18.520  13.182  0.0129  0.2561 -0.3809
13537W        W29346  17.612   3.248  13.366  0.1420 -0.2215 -0.1692
13538W        W29347   8.409  18.117   1.828  0.0449 -0.2382  0.1392
13539W        W29348  15.274   0.166  14.169 -0.0640 -0.0557  0.2266
13540W        W29349  13.716  10.032   4.284 -0.0152 -0.0812  0.0424
13541W        W29350  16.887   1.834   1.361 -0.2696  0.3751 -0.0619
13542W        W29351   6.691   3.531  11.513 -0.0356 -0.3449  0.4039
13543W        W29352   1.619  17.315   3.310  0.0433 -0.1437 -0.0046
13544W        W29353  13.349   7.345  12.338 -0.2791 -0.3774  0.0483
13545W        W29354  18.136   0.366  13.903  0.1441 -0.1242 -0.1431
13546W        W29355   6.490   4.144   1.877 -0.2395  0.1152 -0.1768
13547W        W29356   5.716  12.406   2.817 -0.1865 -0.2534  0.0616
13548W        W29357   1.732   6.820   5.214 -0.1430 -0.1444 -0.0108
13549W        W29358   4.549   1.939   3.282 -0.1551 -0.0674  0.0454
13550W        W29359   2.253   6.422  11.001 -0.2445 -0.0066  0.1723
13551W        W29360  15.741   4.367  12.777  0.0705 -0.2348  0.2682
13552W        W29361  12.975   2.731  11.624  0.0546  0.1170 -0.0614
13553W        W29362  13.395   4.264   6.156  0.4511  0.1135  0.2278
13554W        W29363   9.909  13.974   1.565  0.3247  0.0584  0.2070
13555W        W29364   4.190  11.804  11.024  0.0282  0.2569 -0.2929
13556W        W29365   1.845  18.833   1.153 -0.0783 -0.2151 -0.0318
13557W        W29366   1.871  11.799   9.771  0.0712 -0.0217  0.1912
13558W        W29367   6.567  18.150   1.284  0.0592  0.2611 -0.1226
13559W        W29368   2.351  13.364  10.224  0.2095 -0.1926  0.0333
13560W        W29369   3.167   0.957   1.403  0.0483 -0.1252 -0.2634
13561W        W29370   4.603   7.500  10.578  0.0359 -0.0106 -0.0092
13562W        W29371  18.442   5.816   5.263 -0.1145  0.1647 -0.1610
13563W        W29372   8.555  17.306   0.331 -0.0136 -0.2715 -0.3389
13564W        W29373  13.278   7.243  12.901 -0.0107  0.0662 -0.1135
13565W        W29374  10.226  13.241  14.545 -0.1169  0.6722  0.2392
13566W        W29375  12.754   4.018   4.554  0.4611  0.1508  0.1474
13567W        W29376   7.707   1.865  11.783  0.3016 -0.0908 -0.3121
13568W        W29377  13.410   9.047  12.714 -0.0974  0.0291 -0.1722
13569W        W29378   7.990   2.988  12.244  0.0579  0.5116 -0.1242
13570W        W29379  13.350   5.263   4.285 -0.2068  0.0782 -0.0859
13571W        W29380   3.065  15.197   2.244  0.0963  0.0614 -0.0762
13572W        W29381  12.724  16.064  11.868 -0.1635  0.0293  0.0114
13573W        W29382   9.694   7.868   1.413  0.3911 -0.1334  0.3288
13574W        W29383   4.655   0.006  12.550  0.0114  0.0332 -0.1310
13575W        W29384  18.861   3.604   1.105 -0.3953  0.0031  0.1370
13576W        W29385   5.088   8.431   3.502  0.0175  0.1206 -0.0998
13577W        W29386   6.419   2.016  14.704  0.0544 -0.1046 -0.4408
13578W        W29387   9.066   2.652   6.391 -0.1141  0.0628 -0.1043
13579W        W29388  15.936   6.656   0.990 -0.1920  0.1618 -0.1261
13580W        W29389   4.013   0.681   1.991 -0.1847  0.0031  0.2468
13581W        W29390  12.465   4.312   2.177 -0.0528 -0.0616 -0.3237
13582W        W29391   7.461   9.406  10.839  0.3705 -0.1488  0.4005
13583W        W29392  16.440  14.553   5.292 -0.0370  0.0965 -0.1025
13584W        W29393  11.338  15.389   0.481  0.2185  0.3408  0.0610
13585W        W29394  18.493   4.749  14.877  0.1122  0.3245  0.1477
13586W        W29395   1.345  12.992  10.914  0.2321 -0.0509  0.0148
13587W        W29396  12.533  15.426  11.620 -0.1672  0.0834  0.2216
13588W        W29397   1.333  15.447   4.553  0.2587 -0.2260  0.1708
13589W        W29398   7.456  13.288   1.595  0.0070  0.1877  0.1971
13590W        W29399   3.944   7.186  15.022 -0.1195 -0.1812  0.2318
13591W        W29400  14.383   3.780  12.820 -0.1888 -0.3984 -0.0527
13592W        W29401  16.677   5.142   1.565 -0.2534  0.0783  0.0688
13593W        W29402  11.108   7.670  13.251 -0.1861 -0.5139  0.2573
13594W        W29403   0.403   2.076   4.817 -0.1230 -0.0781  0.3203
13595W        W29404  16.097   9.115   4.453  0.3061 -0.2900 -0.1762
13596W        W29405   1.806   2.821   1.601 -0.1091 -0.0597  0.0297
13597W        W29406  18.717   5.220  14.989 -0.0553 -0.1020 -0.0974
13598W        W29407  13.768  14.993   0.721 -0.0371  0.0506 -0.3129
13599W        W29408  13.916   6.524  13.329 -0.3376  0.0433  0.0731
13600W        W29409   6.828  14.544   0.798 -0.0911 -0.3347 -0.1892
13601W        W29410   4.978  12.904   1.125  0.2589  0.0753  0.1161
13602W        W29411   8.542  11.433   5.465 -0.1232 -0.1682  0.0101
13603W        W29412  12.499  18.217   3.601 -0.0193  0.1561 -0.1765
13604W        W29413   6.348   2.910  13.540  0.1000  0.1269  0.0435
13605W        W29414  14.661   9.604  15.123 -0.2743 -0.2162  0.1021
13606W        W29415  16.528  17.176   2.554 -0.0307 -0.1570 -0.1442
13607W        W29416  18.337  16.629  14.722 -0.0257 -0.2071 -0.1000
13608W        W29417   4.218   2.806  12.987  0.2902  0.0957 -0.1984
13609W        W29418  15.841  18.425  13.959 -0.2871 -0.1860 -0.0147
13610W        W29419   4.799   6.861  12.318 -0.4229 -0.0190  0.3090
13611W        W29420   7.132   5.155   3.843  0.2721  0.4854 -0.4348
13612W        W29421  13.828   0.197  15.126 -0.1603 -0.0228 -0.3758
13613W        W29422   9.674  10.318  14.559  0.0460  0.1991  0.2999
13614W        W29423  17.785   2.993  10.935 -0.0443 -0.1431  0.1256
13615W        W29424  15.480   1.090   0.231  0.1835  0.2587  0.2746
13616W        W29425   4.699  10.600  10.347  0.1820  0.3519 -0.0581
13617W        W29426   9.459   3.592   3.950 -0.1003  0.2468 -0.2003
13618W        W29427   0.007  10.632  12.950 -0.2591 -0.0210  0.2154
13619W        W29428   0.242  15.535  13.983  0.2118  0.1015 -0.0587
13620W        W29429   0.421  10.168  12.278 -0.0802 -0.0416 -0.2934
13621W        W29430  10.621   4.176  12.074 -0.0143 -0.0028  0.0133
13622W        W29431   8.710  12.430  13.594  0.3325  0.0036 -0.0860
13623W        W29432  11.401   6.600  12.214  0.3784 -0.2173  0.0566
13624W        W29433   9.939   8.309   1.203 -0.1784 -0.4628 -0.4180
13625W        W29434   3.092  10.682   3.904 -0.1279  0.2187 -0.2150
13626W        W29435   9.720  17.048  11.133  0.0748  0.4179 -0.2847
13627W        W29436   0.589   0.476   5.583 -0.3399  0.3745  0.1497
13628W        W29437   7.794   7.223  14.493 -0.0082  0.0399 -0.0081
13629W        W29438   3.441  15.520  13.111 -0.1950  0.0870 -0.2240
13630W        W29439   3.379  11.118   9.931 -0.2923  0.2685  0.0857
13631W        W29440  14.695   6.178  12.963  0.1241  0.3673 -0.0313
13632W        W29441   9.115   8.000   0.314 -0.2476 -0.0894 -0.2037
13633W        W29442   3.825   1.095   1.079 -0.0485  0.0381 -0.0890
13634W        W29443  10.141  17.428  10.446 -0.1220 -0.0546 -0.0541
13635W        W29444  16.949   4.516  12.837 -0.2319 -0.0043 -0.4009
13636W        W29445  12.789   2.338   4.352  0.0950 -0.1568 -0.0691
13637W        W29446   6.904  14.549  12.875 -0.0528 -0.3488  0.0460
13638W        W29447  10.058   8.302   4.831 -0.1866 -0.0230  0.1984
13639W        W29448  10.094  18.356   0.256 -0.0909 -0.3769  0.0924
13640W        W29449   5.084   6.280   0.399 -0.0517  0.2759  0.0357
13641W        W29450   4.810  12.415   0.552 -0.1281  0.0389 -0.1658
13642W        W29451  11.081   7.463   2.901  0.4258  0.0084  0.1040
13643W        W29452  11.879   4.754   1.226 -0.4624 -0.0729  0.2081
13644W        W29453  14.584   7.638   0.271 -0.1104  0.2814  0.1691
13645W        W29454   4.330  15.014  13.581  0.1209  0.0035 -0.1257
13646W        W29455  17.903   5.887  13.306  0.2613 -0.1877 -0.2364
13647W        W29456   1.475  12.745  12.140  0.2893  0.0043 -0.2585
13648W        W29457   3.407   4.162   4.462  0.1383  0.0470 -0.1313
13649W        W29458   0.725  15.567   2.481  0.0587 -0.0516 -0.4246
13650W        W29459   1.622  14.459  13.191 -0.3236 -0.1037 -0.2910
13651W        W29460   7.018  12.126   5.216  0.1216  0.1995  0.0106
13652W        W29461  12.859   4.674   1.471  0.2420 -0.2095  0.1719
13653W        W29462   7.445  17.994   1.695 -0.0635  0.0058 -0.0165
13654W        W29463  14.213   4.068  13.362  0.0918 -0.0824 -0.2821
13655W        W29464   0.847   9.204   3.206 -0.1670  0.1932  0.1770
13656W        W29465  17.344   6.276  15.089 -0.1312  0.3380 -0.3406
13657W        W29466   3.158  14.649  12.117  0.0619  0.2391  0.0456
13658W        W29467  12.095   0.206   4.311 -0.0465 -0.0554 -0.2129
13659W        W29468  16.553   0.835   0.529 -0.2104  0.3413  0.1861
13660W        W29469   7.751   4.163   1.596  0.0021  0.2551 -0.2014
13661W        W29470   7.472  11.748   0.733  0.1589  0.0750  0.1776
13662W        W29471   7.415  10.980   1.440 -0.4741  0.0157  0.3187
13663W        W29472  13.625  12.665  13.186  0.0448  0.1807 -0.4492
13664W        W29473   5.015   4.121  10.796  0.0275 -0.2422  0.1655
13665W        W29474   7.140  15.167  12.450  0.0866 -0.0606  0.0062
13666W        W29475  15.317  15.414   2.125  0.0274 -0.0024  0.2025
13667W        W29476  18.606   3.145   2.233 -0.1216  0.0508  0.0556
13668W        W29477   9.193  18.060  11.869  0.1333 -0.0961  0.2123
13669W        W29478   4.724   8.145  13.317  0.0370  0.1363  0.2404
13670W        W29479   8.744   0.597   2.900  0.3079  0.0950 -0.2503
13671W        W29480   0.416  18.357   1.390 -0.1496 -0.0893 -0.0344
13672W        W29481  11.633  12.952   4.422  0.2952  0.1568 -0.1267
13673W        W29482  16.227  12.580  14.079  0.0588  0.0926 -0.4015
13674W        W29483   3.012  12.380   4.479  0.0784 -0.0274  0.0913
13675W        W29484   5.136   9.509  14.012 -0.1432  0.0904 -0.0162
13676W        W29485   7.082   2.492   3.888  0.1836  0.0626 -0.0015
13677W        W29486   9.159  13.866  10.723 -0.0985  0.0807 -0.0506
13678W        W29487   6.412  17.859  11.605  0.1386  0.0928  0.0263
13679W        W29488  16.230   8.662  12.393  0.0967  0.0036  0.0458
13680W        W29489   3.679  17.386   2.336 -0.0372 -0.0817 -0.1497
13681W        W29490   4.735   1.535   3.592 -0.2820 -0.2255  0.0397
13682W        W29491  11.614  17.909   1.649 -0.0235 -0.1766 -0.1754
13683W        W29492   8.116  18.413   5.088 -0.1921  0.0129  0.1020
13684W        W29493  10.217  14.023   0.783  0.0416 -0.1751  0.0883
13685W        W29494   9.517  18.167  13.693  0.2912 -0.0721 -0.0862
13686W        W29495   6.695   7.430  14.551  0.1373 -0.1427  0.3075
13687W        W29496  12.215   3.262   9.860  0.2763  0.0647 -0.2397
13688W        W29497  14.976  12.454   0.006 -0.1955  0.0595  0.1872
13689W        W29498  12.027   9.061  13.327 -0.2914  0.0946  0.3466
13690W        W29499  12.918  17.880  10.923 -0.2958 -0.0432  0.1951
13691W        W29500  10.456   1.660  13.148 -0.2473  0.1050 -0.0892
13692W        W29501   6.925  16.682   2.472  0.2059  0.1455 -0.0279
13693W        W29502   2.487  16.351  11.996 -0.2117  0.0158 -0.1126
13694W        W29503   5.743  12.189   4.253 -0.2099  0.3254 -0.1754
13695W        W29504  16.372  17.361   0.800  0.1380 -0.1503 -0.1985
13696W        W29505   3.403  14.921  13.914 -0.1543 -0.1605 -0.2773
13697W        W29506   1.587   4.502  11.155  0.3066 -0.1897  0.2075
13698W        W29507  10.581  15.301   2.353  0.1112  0.0482  0.2457
13699W        W29508  16.165   2.130   5.022 -0.1140  0.0103  0.3266
13700W        W29509   4.005   1.195   2.137  0.0181  0.2470  0.0009
13701W        W29510  13.250  14.826   2.370 -0.2374  0.1628 -0.1428
13702W        W29511  13.050   8.094  15.219 -0.1496  0.0689 -0.3913
13703W        W29512   5.501   5.954   3.465 -0.0114  0.0903  0.2607
13704W        W29513   3.109   6.350   0.637  0.1046 -0.0338  0.1872
13705W        W29514  10.356  16.553  10.559  0.0353  0.3911  0.1583
13706W        W29515   3.902  14.697   4.566 -0.0075  0.4077  0.1548
13707W        W29516  10.424   1.609  15.017  0.0533 -0.0078  0.2814
13708W        W29517   8.094  11.452  15.431  0.2705  0.0058 -0.1335
13709W        W29518   4.907   9.444   2.693  0.1394 -0.0943 -0.0601
13710W        W29519  15.337   1.649   3.907 -0.0803 -0.0003  0.0314
13711W        W29520   4.796   4.213  10.269 -0.2075  0.0666  0.1010
13712W        W29521   1.653  16.867   4.676 -0.2299 -0.1532  0.0901
13713W        W29522  17.676  10.015   3.127 -0.3689 -0.0032 -0.0484
13714W        W29523  10.465  10.715   2.548  0.0520  0.0332  0.1553
13715W        W29524   9.842   6.963   2.030  0.1262  0.0642 -0.1078
13716W        W29525  16.712  16.281  10.904 -0.0723  0.2565 -0.0380
13717W        W29526   0.352  18.564   2.896 -0.0147 -0.1024 -0.1635
13718W        W29527   4.523  11.915  12.110 -0.0968  0.0523  0.2402
13719W        W29528  13.480   4.359   2.128  0.1155  0.0917  0.1434
13720W        W29529   9.547   2.451   0.580  0.2017 -0.0512  0.1761
13721W        W29530  18.758  16.343   1.294 -0.4134  0.0939  0.0089
13722W        W29531  17.616   5.603  12.369 -0.2640 -0.2256 -0.0604
13723W        W29532   9.448  18.586   3.337 -0.2270 -0.0606  0.0497
13724W        W29533  13.462   8.457   2.218 -0.1170 -0.0803 -0.0952
13725W        W29534   9.645   0.419  10.961  0.1713  0.5222  0.0054
13726W        W29535  18.004  13.471  12.643  0.0767  0.2631  0.0388
13727W        W29536  11.819   7.262   1.555 -0.1102 -0.0391 -0.2755
13728W        W29537  17.991   8.577   1.314  0.0601  0.3120 -0.1407
13729W        W29538  12.903  10.032  11.255  0.1017  0.0460 -0.5140
13730W        W29539   8.724   2.718  10.419 -0.0308 -0.0336  0.1011
13731W        W29540   0.062  16.614  11.950  0.0507 -0.1669  0.3220
13732W        W29541   2.286   1.320   0.340 -0.1646  0.2689  0.0864
13733W        W29542  17.759   2.702   1.196 -0.1441  0.1945 -0.0797
13734W        W29543   7.754   7.755   3.333  0.1499 -0.1015  0.0160
13735W        W29544   1.767  17.101  10.984 -0.0444 -0.1489  0.0480
13736W        W29545  18.864  16.520   2.082  0.0377 -0.0475 -0.0230
13737W        W29546   6.530   6.957  10.422  0.0993  0.1221 -0.1934
13738W        W29547  13.638  10.890   0.103 -0.5227 -0.0856  0.2485
13739W        W29548  15.420   7.150  10.400  0.2025 -0.0244 -0.1280
13740W        W29549   7.639   1.558  14.184 -0.3394  0.0546  0.0667
13741W        W29550  11.828   8.056   4.655  0.0690 -0.0317  0.1681
13742W        W29551   2.114   8.937  10.633 -0.1052  0.1846  0.0664
13743W        W29552  11.786   3.433   0.020  0.4309 -0.0696 -0.0382
13744W        W29553  11.147  15.144   2.327 -0.3378 -0.0602  0.1253
13745W        W29554   6.696  12.687  15.383 -0.0504 -0.1976 -0.1162
13746W        W29555   8.427  10.934  13.354  0.0573  0.2745 -0.3667
13747W        W29556  16.955  14.484  14.535 -0.1764  0.2175 -0.1351
13748W        W29557   9.889  12.227   0.236  0.1417 -0.1302 -0.0137
13749W        W29558  12.461  17.423  15.220 -0.1192 -0.2198 -0.2526
13750W        W29559   3.417  12.119  13.837  0.3652 -0.1891 -0.0222
13751W        W29560   4.570  12.071   0.782 -0.1051  0.1702 -0.1074
13752W        W29561   7.875   5.186   0.885  0.2880  0.2912 -0.4146
13753W        W29562  10.586  10.715   5.755  0.0655 -0.0687 -0.1519
13754W        W29563   8.955   6.815  13.582 -0.2598  0.1872  0.1843
13755W        W29564   9.856  18.916  10.603 -0.1655  0.0209 -0.3221
13756W        W29565  11.195  17.476   2.891  0.1283  0.1006  0.2535
13757W        W29566   4.983   8.820   1.467 -0.1925  0.0797 -0.0809
13758W        W29567   7.438   8.829  12.667  0.0503 -0.0468 -0.0584
13759W        W29568   1.946   6.667   3.951 -0.0614 -0.1299  0.0607
13760W        W29569   9.138  10.747  15.386  0.1017 -0.0310  0.1877
13761W        W29570  18.668   2.712   1.263  0.2792  0.1544 -0.1162
13762W        W29571   2.612   4.120   5.625  0.0449 -0.0360  0.2085
13763W        W29572  14.515   9.246  13.449  0.1679  0.1137  0.2860
13764W        W29573  18.641   8.314  14.122  0.0517  0.0886 -0.1000
13765W        W29574  16.710   4.188   4.602  0.2791  0.3066 -0.2125
13766W        W29575  17.964  14.448   3.183  0.2744 -0.0749  0.0963
13767W        W29576  18.477  17.253  12.834 -0.2145  0.0951 -0.0632
13768W        W29577  10.933   3.443   2.907 -0.0307  0.2659 -0.1836
13769W        W29578  13.434   1.117  13.647 -0.0427  0.2225 -0.0992
13770W        W29579  13.827   1.877   2.478  0.2671  0.1730 -0.0379
13771W        W29580   3.466   4.740   0.535 -0.0576 -0.2262 -0.0289
13772W        W29581  13.692   5.865  13.228  0.0911  0.0526  0.1837
13773W        W29582   4.360   7.700   1.777 -0.0090  0.1614  0.2517
13774W        W29583   2.555  17.176  14.112  0.2431  0.0575 -0.1126
13775W        W29584   1.143  16.703  10.988  0.0032  0.3024  0.1653
13776W        W29585  17.612  12.908   4.132 -0.4873 -0.0477  0.2655
13777W        W29586   8.094   1.001   2.076  0.0959 -0.2925 -0.1216
13778W        W29587   3.875   2.929   2.839  0.1423 -0.1146 -0.1811
13779W        W29588  10.882  16.037  14.543  0.0028 -0.0540 -0.1202
13780W        W29589   0.969   5.082   0.018  0.1843  0.0238 -0.1364
13781W        W29590  10.538   1.724  11.067  0.1032 -0.0226  0.1050
13782W        W29591  15.401   5.709  11.601 -0.0456 -0.1678  0.0400
13783W        W29592   4.811  10.315   2.112  0.1053  0.2026 -0.0156
13784W        W29593   4.759  17.227   3.163  0.1539  0.0897 -0.3305
13785W        W29594  16.925   8.960   2.322 -0.0964 -0.0083 -0.2051
13786W        W29595  18.288   2.593   0.468  0.1298  0.2275  0.1166
13787W        W29596  13.458   2.917   1.421 -0.1190 -0.1615 -0.4505
13788W        W29597   0.997   8.015   0.671  0.1747 -0.1190 -0.0325
13789W        W29598  17.696  13.430   5.410  0.1794 -0.0926  0.1454
13790W        W29599  11.098   6.424  10.884 -0.1977 -0.0119 -0.1159
13791W        W29600  10.281   8.742   0.602 -0.3535 -0.2111  0.1331
13792W        W29601  11.699   2.415  13.863  0.0495 -0.1764  0.4078
13793W        W29602  12.561   4.193   3.209  0.2212  0.1785  0.1065
13794W        W29603  11.511   3.480   3.846  0.0500 -0.1628 -0.1661
13795W        W29604   9.319   8.388   4.316  0.0649 -0.3731 -0.0967
13796W        W29605   9.489   2.663  14.581 -0.0743  0.1011 -0.1938
13797W        W29606   7.286   5.000  13.299 -0.4261 -0.0066  0.2486
13798W        W29607  10.077   8.175   0.725  0.2149  0.2653 -0.0327
13799W        W29608   5.057   2.114   0.358  0.1399 -0.2401 -0.1502
13800W        W29609   0.757  12.909  14.465 -0.1900  0.1692 -0.0070
13801W        W29610   4.325  14.716   4.280  0.1055  0.3068  0.0927
13802W        W29611  14.917  14.177  12.401 -0.2168  0.1662  0.3463
13803W        W29612  18.110   1.506   3.531  0.1199 -0.0208 -0.3653
13804W        W29613   6.386   4.291  13.032  0.0953 -0.3418 -0.0018
13805W        W29614   3.236   3.833   2.839 -0.1629  0.0539  0.0911
13806W        W29615   6.363  18.617   3.086 -0.3222  0.0131 -0.0358
13807W        W29616   4.316  10.941  11.408  0.0781 -0.0777  0.2099
13808W        W29617   9.570   4.789   5.421 -0.1452  0.0365 -0.0131
13809W        W29618   6.191  17.385   5.084 -0.0665  0.3354  0.1634
13810W        W29619   4.793  11.560   0.072  0.0600  0.1518  0.0771
13811W        W29620   3.214   1.616   2.283  0.0109  0.0090  0.0533
13812W        W29621   2.780   7.658  13.351 -0.0894 -0.3010  0.0990
13813W        W29622   5.647  10.362   4.213  0.0034 -0.0443  0.4399
13814W        W29623   4.360   5.778   5.452  0.1101 -0.0972 -0.1591
13815W        W29624   6.216   1.800  14.304 -0.2876  0.3123  0.0750
13816W        W29625   2.013  12.329  10.682 -0.0462 -0.0037 -0.0264
13817W        W29626   7.953   8.693  12.689 -0.1040  0.4369  0.0193
13818W        W29627   9.563  16.434   2.372 -0.0561  0.3277 -0.0444
13819W        W29628   5.612   0.829  14.078 -0.0540  0.1021 -0.0617
13820W        W29629  10.683   5.545   2.212 -0.3039 -0.0298 -0.0167
13821W        W29630  10.858  14.907  11.013  0.1643  0.1415 -0.1983
13822W        W29631  13.166  14.557   3.808  0.2253 -0.0983  0.2995
13823W        W29632  16.883   3.524   3.782 -0.0385  0.0018 -0.2334
13824W        W29633   2.754  18.172   3.119  0.2366 -0.2140  0.2072
13825W        W29634  13.197   1.072  10.762 -0.0404 -0.2294 -0.1794
13826W        W29635   3.651   4.323   1.451 -0.1966  0.0806  0.0218
13827W        W29636  14.938  11.703  11.009  0.0075 -0.1466 -0.2167
13828W        W29637  18.701  13.173  15.254 -0.0735 -0.1241 -0.1887
13829W        W29638   9.837   4.555  13.138 -0.1902 -0.0672 -0.0901
13830W        W29639   3.692  10.594  14.314 -0.3752  0.1209 -0.1808
13831W        W29640  11.120   3.396  13.140 -0.1675 -0.2824 -0.1391
13832W        W29641  18.553  13.561   3.138  0.1800 -0.2420  0.0582
13833W        W29642  14.720  10.377  12.254  0.1551 -0.4675  0.1297
13834W        W29643  11.981   5.726   0.098  0.1193 -0.0435  0.3282
13835W        W29644  10.621  14.368  13.133  0.0799 -0.3502  0.3325
13836W        W29645   7.993  15.189   3.003 -0.1749 -0.2837 -0.0140
13837W        W29646   5.073   0.232  14.594  0.0939  0.0038  0.1584
13838W        W29647   2.313   8.614   5.520 -0.1294  0.0686  0.0514
13839W        W29648   1.931  12.286  11.332  0.0106 -0.1877  0.0091
13840W        W29649  15.043   9.663   1.094  0.0231 -0.3418 -0.0444
13841W        W29650   3.014   4.125   2.187 -0.1902  0.1771  0.0961
13842W        W29651   9.332  18.172  10.734 -0.0293 -0.0512 -0.0487
13843W        W29652  13.918   7.615  11.488 -0.1069  0.0952 -0.1041
13844W        W29653   0.940  17.056   0.500 -0.0330  0.2335 -0.0030
13845W        W29654  10.338  10.189  11.099 -0.1197  0.1722  0.1322
13846W        W29655  15.028   5.112  13.589 -0.1075  0.0016 -0.2378
13847W        W29656   5.021   9.825   0.535 -0.2207 -0.2586 -0.0745
13848W        W29657   8.525   7.173  10.760 -0.0095 -0.0570  0.1587
13849W        W29658   1.961   6.961  12.226 -0.1855 -0.1815 -0.3796
13850W        W29659   1.524   8.305   5.467 -0.0362  0.0351  0.2192
13851W        W29660   1.526   3.995   2.110  0.1186  0.0029  0.0953
13852W        W29661  11.828  14.628  10.839  0.2656 -0.0278 -0.1980
13853W        W29662  10.333   1.930  12.728 -0.3367  0.0748  0.0996
13854W        W29663  17.241   7.425  13.485 -0.0311  0.3641 -0.0205
13855W        W29664   1.745   0.679  14.194  0.2799  0.0183 -0.3216
13856W        W29665   7.974   2.501   2.236 -0.0129  0.0632 -0.0628
13857W        W29666   7.278   9.840   0.114 -0.1150  0.4202 -0.1647
13858W        W29667   8.315   2.321   1.470  0.2624  0.0018 -0.0883
13859W        W29668   1.875   9.960  15.197  0.2453  0.2865 -0.1362
13860W        W29669   0.614   6.952  12.268 -0.2301  0.5939 -0.0508
13861W        W29670   3.030  16.126   2.749  0.0951  0.0323 -0.2478
13862W        W29671   7.821   0.339  13.430 -0.0081  0.1015 -0.0567
13863W        W29672   3.549   2.804  10.596  0.2103 -0.1835 -0.3545
13864W        W29673  16.343  15.664   4.682 -0.1273 -0.2984  0.0406
13865W        W29674  15.740  12.576  13.235  0.0389 -0.1189 -0.1472
13866W        W29675  17.283   1.295  11.801  0.2493  0.2825 -0.4710
13867W        W29676  10.789   7.773   5.590  0.3646  0.3259 -0.4101
13868W        W29677  15.701   2.795   5.783 -0.0131  0.2800  0.6127
13869W        W29678  16.319   0.562   4.301  0.3533  0.0774 -0.0072
13870W        W29679  10.211  17.175  12.860  0.2454 -0.0738 -0.2758
13871W        W29680   0.177  12.445   0.897 -0.1336 -0.0511  0.0631
13872W        W29681  12.870  10.553  13.459 -0.1141 -0.2189  0.3237
13873W        W29682   1.166  11.112  10.074 -0.0998  0.1418  0.1252
13874W        W29683   6.330   1.572   4.214  0.0796  0.1959 -0.0303
13875W        W29684  15.395   8.047   3.769 -0.0792 -0.0900 -0.2737
13876W        W29685  14.606   0.371  13.333  0.0647 -0.0501  0.0310
13877W        W29686   1.397   0.587  11.520  0.2094  0.0434  0.0659
13878W        W29687  10.754   2.518   4.261 -0.3808  0.3382 -0.1357
13879W        W29688  10.690  11.260  13.225 -0.0378 -0.0831  0.0569
13880W        W29689   2.583   3.397  11.665  0.2371  0.2227 -0.2198
13881W        W29690   3.769   1.636   3.027  0.2124  0.0234 -0.2041
13882W        W29691   8.454   5.818   3.020 -0.1175 -0.2066 -0.1760
13883W        W29692   8.161   9.512   2.130 -0.3073 -0.1191  0.1440
13884W        W29693  15.046   2.541  14.998 -0.2065  0.0919 -0.2262
13885W        W29694   4.100  11.049   2.315 -0.1868 -0.1104 -0.1717
13886W        W29695   5.043   1.924  10.376  0.1396  0.1289  0.1773
13887W        W29696  18.077   9.828  13.939 -0.0179 -0.1834 -0.0683
13888W        W29697   7.729  17.523  11.551 -0.4149  0.1036  0.1183
13889W        W29698   4.983   6.514  11.021 -0.2255 -0.3793 -0.1381
13890W        W29699   4.523  17.117  10.233  0.3328  0.2515 -0.1953
13891W        W29700  13.256  18.260   0.065  0.0387 -0.1101 -0.0393
13892W        W29701   3.369  12.776  15.126  0.2700 -0.3298 -0.0897
13893W        W29702   0.837   5.091  13.685 -0.1482 -0.2646  0.0344
13894W        W29703  16.142   4.130  12.455 -0.0119 -0.3622  0.1594
13895W        W29704   0.641   1.709  11.622 -0.0346 -0.0832  0.0330
13896W        W29705  11.133   7.134   0.029 -0.0626 -0.1387 -0.4106
13897W        W29706  16.000  10.592   4.692 -0.1890 -0.0123 -0.2182
13898W        W29707  12.003   9.023  12.681 -0.2605 -0.0647 -0.2270
13899W        W29708  13.002   1.901  13.272  0.2399 -0.0159  0.1182
13900W        W29709  13.814  17.653   4.361 -0.2212  0.1538  0.0108
13901W        W29710  15.212   5.895   3.149 -0.0698 -0.1366  0.0746
13902W        W29711   4.251   1.064  14.085  0.0096 -0.1648 -0.0990
13903W        W29712   5.297   4.515   9.515  0.1237  0.1063 -0.1105
13904W        W29713  16.393   9.465   4.289  0.2748  0.0327 -0.2705
13905W        W29714  18.207  16.878   2.727 -0.1384 -0.1952  0.2981
13906W        W29715   9.077  17.744   4.163  0.1015 -0.0799  0.3371
13907W        W29716   9.586   3.118  12.104  0.1361  0.0368  0.2192
13908W        W29717  11.582   8.362  14.038 -0.1391 -0.0559  0.2832
13909W        W29718  18.015  12.713  10.263 -0.0002  0.0417  0.1665
13910W        W29719  13.553   1.612  13.750 -0.1591 -0.2530  0.2389
13911W        W29720  17.148   3.463   0.825 -0.0061 -0.2094 -0.0582
13912W        W29721   0.182   1.276  12.779  0.0554 -0.1791 -0.1985
13913W        W29722   9.575   0.449   5.056  0.2110 -0.0152 -0.1507
13914W        W29723  11.617   9.243   2.935  0.0350 -0.0085  0.0304
13915W        W29724   8.326  10.604   3.297  0.0913 -0.0832  0.0232
13916W        W29725   2.182  16.023   2.982  0.1715  0.2718  0.0517
13917W        W29726   1.582   7.261  14.593  0.2341 -0.1411 -0.2029
13918W        W29727   0.463  12.184  14.089 -0.0419  0.0425 -0.1589
13919W        W29728   7.386  13.681  15.343 -0.2060  0.0495 -0.1571
13920W        W29729   3.870  10.091  14.236 -0.1062 -0.0918 -0.1413
13921W        W29730  12.646  10.969   1.655 -0.2145 -0.4004  0.1930
13922W        W29731  15.397  15.371   4.305 -0.2365  0.1129 -0.0207
13923W        W29732   4.926  14.879  10.974 -0.0025  0.0364 -0.2383
13924W        W29733   5.243   2.729  15.164  0.2306  0.1787 -0.0862
13925W        W29734   9.693   2.374   3.520 -0.3181  0.1277  0.1756
13926W        W29735  15.400  12.409   2.540  0.0110 -0.0702 -0.0723
13927W        W29736  13.952  15.363   1.056 -0.1845  0.3341 -0.0464
13928W        W29737  18.709  11.549   1.144  0.0532  0.1240 -0.0315
13929W        W29738  11.441   6.472   4.728  0.0033  0.2326  0.2890
13930W        W29739  11.474  14.276   2.483  0.0902  0.0320 -0.2755
13931W        W29740  13.308  16.503   5.110 -0.2602 -0.1786  0.1200
13932W        W29741  18.452   2.474  15.345 -0.0612 -0.0428  0.1829
13933W        W29742   0.849   9.498   2.101  0.1144  0.0207 -0.0551
13934W        W29743  11.476   7.286  12.541 -0.3077 -0.3367  0.0943
13935W        W29744  16.504  16.045   3.343 -0.2869  0.0611 -0.0833
13936W        W29745  18.915  13.911  11.592 -0.0730 -0.0452  0.2411
13937W        W29746   8.634  16.792   1.810  0.2105  0.1536  0.4103
13938W        W29747  11.311  11.636   4.760  0.0970  0.0102  0.1245
13939W        W29748   7.981   8.462   5.542 -0.1723 -0.3079 -0.1253
13940W        W29749   9.609  10.590   3.777 -0.0359 -0.0110 -0.3538
13941W        W29750   5.085   5.909  14.193 -0.2619 -0.3361  0.1433
13942W        W29751  10.490  12.087  13.549  0.1599  0.1456  0.0657
13943W        W29752   4.744  10.463  13.356  0.5283  0.1299 -0.0510
13944W        W29753   6.698   1.342  14.806  0.1705 -0.0904 -0.2184
13945W        W29754  15.621  11.672  14.316  0.1535 -0.2361 -0.0588
13946W        W29755   8.568  14.142  10.731  0.2002 -0.0110 -0.0868
13947W        W29756  11.426   0.826  10.830 -0.1453  0.0972  0.1308
13948W        W29757   4.567  10.488  12.371 -0.1858  0.1513 -0.0691
13949W        W29758   8.666   0.197  11.872 -0.2502  0.1557 -0.4182
13950W        W29759  12.217   0.344   1.492  0.0422  0.1165  0.0799
13951W        W29760  18.440  13.584   4.885  0.1409 -0.0438 -0.0339
13952W        W29761  17.953   1.308  10.201  0.1581 -0.0453 -0.0743
13953W        W29762   9.268   7.377  13.978  0.0149 -0.0064 -0.0744
13954W        W29763  11.789   3.023  12.448 -0.1337 -0.3480 -0.2931
13955W        W29764   9.474   7.328  15.114 -0.0768  0.0471  0.2272
13956W        W29765   8.932  17.774   3.327 -0.0225 -0.0861 -0.0559
13957W        W29766   2.470  11.256   2.288 -0.3449  0.1298 -0.0750
13958W        W29767   0.581  18.284   2.157  0.0146 -0.0355 -0.2367
13959W        W29768  18.435   8.884   1.892  0.1360 -0.0018 -0.0037
13960W        W29769  12.755   7.862   3.526  0.0427 -0.0571 -0.1514
13961W        W29770  16.363  18.740   0.365 -0.1583  0.1418  0.0169
13962W        W29771   4.633  11.597  14.447  0.1252  0.1537  0.0685
13963W        W29772  18.055   7.700   1.927  0.1290 -0.1543 -0.1767
13964W        W29773  13.159  10.887   1.633  0.0529  0.0282  0.2329
13965W        W29774  11.862  11.410   3.653  0.2060  0.0170  0.0849
13966W        W29775   5.002   6.863   0.300 -0.0385 -0.2216 -0.3215
13967W        W29776  14.573   6.974   5.552  0.1666 -0.1358  0.0513
13968W        W29777   1.678   5.419   2.076 -0.1948 -0.3212 -0.5587
13969W        W29778   8.798  12.948   4.863 -0.1610  0.1092 -0.0758
13970W        W29779   6.546  15.978   5.737  0.0168 -0.1008  0.2075
13971W        W29780  13.653  17.527   2.884  0.2446  0.2365  0.3718
13972W        W29781  17.794   2.553   2.572 -0.1937  0.0733 -0.2330
13973W        W29782   9.584   7.904   4.360  0.0021  0.1893 -0.0108
13974W        W29783   0.089  16.948   1.032  0.0887 -0.0774 -0.0497
13975W        W29784  16.932  12.413   1.480  0.2371  0.2640 -0.1504
13976W        W29785  16.586  11.648  14.416  0.2621  0.0910 -0.4205
13977W        W29786   0.177  12.149   1.327  0.0583 -0.1298  0.1267
13978W        W29787  18.802  12.887   4.463 -0.1065 -0.2153  0.2087
13979W        W29788   2.867   4.182  12.806 -0.0410 -0.5869 -0.2282
13980W        W29789   4.277  13.339   2.705 -0.0700  0.2709  0.0533
13981W        W29790  12.213  11.191   4.931 -0.0902 -0.0042  0.1998
13982W        W29791  14.573  11.705   4.980  0.1581 -0.1083 -0.2081
13983W        W29792   2.118   5.390   5.146 -0.1015  0.0444 -0.0923
13984W        W29793  10.448  14.948   0.845 -0.2348  0.2001  0.0234
13985W        W29794   5.337   0.629  11.401 -0.0778  0.3764  0.1947
13986W        W29795  12.763  16.973  12.847  0.0374 -0.1165  0.3942
13987W        W29796  17.961   6.406  12.076 -0.1715  0.0960 -0.4409
13988W        W29797   6.296   5.954  14.737 -0.3336 -0.0310  0.0069
13989W        W29798   0.458   5.721   3.711  0.1416 -0.3466 -0.1711
13990W        W29799   0.130   2.769  10.381  0.1256 -0.2776 -0.0187
13991W        W29800   2.235  18.200  15.126 -0.0059 -0.4842  0.1100
13992W        W29801   7.577   6.439   2.564 -0.0523  0.3655 -0.3430
13993W        W29802   1.139   3.330   5.350 -0.0109 -0.1005 -0.0529
13994W        W29803   3.709   3.011  12.869 -0.0074 -0.0360  0.2491
13995W        W29804  18.208  16.512   0.367  0.2451 -0.3759  0.1210
13996W        W29805   8.465  11.753   1.588  0.0046  0.2783  0.5917
13997W        W29806   8.662  16.548  13.403 -0.0986  0.1604  0.0213
13998W        W29807  13.083  15.037   4.067 -0.4833  0.0493 -0.0922
13999W        W29808  15.119   8.546   0.399 -0.3862  0.1624  0.1267
14000W        W29809  11.931   2.882   1.729  0.2697 -0.0397 -0.1911
14001W        W29810   8.316   1.230  13.151  0.2033 -0.1184  0.2512
14002W        W29811  10.065   3.544  12.413  0.1605  0.0163  0.0947
14003W        W29812   6.900  10.846  11.026 -0.0370 -0.4356  0.0797
14004W        W29813  16.685   9.341  15.047 -0.1805  0.3396  0.1783
14005W        W29814  10.496  13.805  12.036 -0.0412 -0.0962 -0.1214
14006W        W29815   3.714  12.505  13.923 -0.0107 -0.2084 -0.0754
14007W        W29816   8.238   3.767  14.467  0.0254 -0.0781 -0.0782
14008W        W29817  10.711  14.156  11.570 -0.1451 -0.2130 -0.0226
14009W        W29818   3.560   7.134  13.874 -0.1706 -0.1189 -0.0206
14010W        W29819  11.113  10.741   3.097  0.3715  0.0677  0.1636
14011W        W29820   1.517  10.618   0.795  0.0366  0.3333  0.0916
14012W        W29821  18.241   7.625  11.907 -0.1855 -0.0479 -0.1485
14013W        W29822  17.707  16.721  15.086  0.3725  0.2718 -0.6222
14014W        W29823   2.482   5.212   1.820 -0.0083 -0.0756 -0.0585
14015W        W29824   6.317  13.005   3.115 -0.0782  0.2666  0.2480
14016W        W29825   0.862  18.275   1.764  0.1006  0.0565 -0.2897
14017W        W29826  11.965   7.889  10.678  0.0340 -0.0472 -0.0446
14018W        W29827  17.831   1.047  14.594 -0.0609 -0.0655  0.0695
14019W        W29828  14.499  10.640   3.203  0.0463  0.0420  0.0530
14020W        W29829  15.847  18.679  12.051  0.8047  0.0802 -0.1551
14021W        W29830   4.920  15.138   4.640 -0.3800  0.0237  0.0154
14022W        W29831   7.705   1.815  10.379 -0.1302  0.0583 -0.1905
14023W        W29832   3.457   6.773   3.951  0.0213  0.1814  0.0533
14024W        W29833   2.475  12.944   0.269 -0.3901 -0.2045  0.2793
14025W        W29834  15.838  10.293   0.795  0.3036 -0.1094 -0.0019
14026W        W29835  18.684   4.660  10.317  0.0785 -0.1593 -0.0453
14027W        W29836  10.234   1.781   1.279 -0.2156 -0.0312  0.0316
14028W        W29837   2.165  12.634  13.975 -0.1860  0.1613 -0.0665
14029W        W29838  17.257   7.673   2.952 -0.3127  0.1699  0.1340
14030W        W29839  11.545  16.966  12.631 -0.2185  0.4436  0.0738
14031W        W29840  12.250  11.548   3.925 -0.1696 -0.1100 -0.1081
14032W        W29841  17.898  12.926   5.804 -0.0929  0.0823  0.0489
14033W        W29842   7.124   5.397   0.619  0.1311 -0.0328 -0.0492
14034W        W29843  14.198   4.195   2.995  0.2840  0.1895  0.1037
14035W        W29844  15.655   0.108   3.133 -0.5522  0.0986  0.3747
14036W        W29845   6.977  17.852   1.849 -0.0085 -0.1908 -0.2345
14037W        W29846   5.281   9.144   3.025 -0.1222 -0.2903 -0.1321
14038W        W29847  11.488   4.262  15.339  0.0451 -0.0018  0.1180
14039W        W29848  13.703   6.359   3.070  0.1756 -0.2976 -0.0630
14040W        W29849  15.192   1.198   2.711  0.3110 -0.4868 -0.0153
14041W        W29850  18.764  15.880   1.024 -0.0825 -0.1222  0.2040
14042W        W29851   6.997  10.201   4.647  0.4262  0.1839 -0.1069
14043W        W29852  18.196   9.345  15.110 -0.0440  0.0679 -0.0678
14044W        W29853   0.108   4.059   2.062 -0.1724  0.0770 -0.0534
14045W        W29854   5.668   5.924   9.726 -0.0053 -0.1339  0.1219
14046W        W29855  13.796  14.300   4.679  0.0253 -0.3349  0.1124
14047W        W29856  16.870  14.069   0.732  0.2266  0.0588 -0.2868
14048W        W29857   0.361   9.103   3.216 -0.0995 -0.0162  0.0930
14049W        W29858  18.615  14.154   0.057  0.2227 -0.1467 -0.2883
14050W        W29859   8.766  12.063   3.457  0.0213 -0.3096 -0.0740
14051W        W29860  16.456  13.648   1.839  0.0581  0.2874  0.2040
14052W        W29861  12.999  12.687   3.030  0.0061 -0.0085  0.1728
14053W        W29862  11.132   9.863   3.486  0.0795 -0.3694 -0.0697
14054W        W29863  14.883  17.892   3.369  0.0266 -0.1741  0.1137
14055W        W29864  17.181  13.512  13.780 -0.0857 -0.0292  0.1091
14056W        W29865  14.427   1.331  10.164  0.0056  0.2643 -0.0193
14057W        W29866  16.697  12.280   4.528  0.1614 -0.0512 -0.1724
14058W        W29867  11.369   8.280   3.176 -0.0525  0.1588  0.2120
14059W        W29868   0.753  16.340  10.531  0.1359  0.0278 -0.1662
14060W        W29869  14.205  10.749  12.347 -0.0817 -0.0637  0.1016
14061W        W29870   3.201   2.229   1.438  0.3703 -0.2259  0.1170
14062W        W29871   0.598  14.168   0.496  0.3782 -0.1020 -0.4304
14063W        W29872  10.840  16.465   3.589  0.0347  0.0172 -0.4468
14064W        W29873  12.683   4.329   4.904 -0.0765  0.2015  0.1024
14065W        W29874   6.450  11.660   2.298  0.2985 -0.0079 -0.1456
14066W        W29875  14.982   7.341   4.811  0.0243 -0.1288 -0.4054
14067W        W29876  11.984  10.433  11.603 -0.0368 -0.2817 -0.2026
14068W        W29877   6.004  16.689  12.188 -0.2009  0.1237 -0.6674
14069W        W29878   9.805   3.933   4.111 -0.3224 -0.2276 -0.0721
14070W        W29879   4.544  11.562  10.151  0.0012  0.1010  0.2365
14071W        W29880   5.323   1.193   3.884  0.0526 -0.1074  0.0378
14072W        W29881   4.625   9.969  11.242  0.1670 -0.1232  0.0698
14073W        W29882   1.045  17.995  12.268 -0.0728  0.1124  0.1471
14074W        W29883  10.495  15.406  13.719 -0.0250  0.0368 -0.3107
14075W        W29884  13.553   5.028  14.800  0.1942 -0.2406  0.2968
14076W        W29885  10.925  16.840  13.724 -0.3964 -0.1308  0.3840
14077W        W29886  18.540  12.282  13.530 -0.2049  0.0072  0.1212
14078W        W29887   6.140   3.525   9.800 -0.0280 -0.1429  0.3958
14079W        W29888   9.011  12.339   5.614 -0.4165 -0.0832  0.2458
14080W        W29889  15.782  15.105   5.655 -0.3774  0.0731  0.0963
14081W        W29890   3.418   8.789   1.920  0.1737  0.1091  0.3416
14082W        W29891   8.382   6.496  11.991  0.0793  0.1438 -0.0605
14083W        W29892  17.583  15.054   1.689 -0.0317  0.3209 -0.1379
14084W        W29893  13.566   7.326   1.686 -0.0262 -0.1390  0.0673
14085W        W29894   0.871   4.981  12.064 -0.1885  0.2533  0.0691
14086W        W29895  10.104   5.598   3.848 -0.1670 -0.1972  0.1525
14087W        W29896   9.483  10.904   9.802 -0.1388  0.0498 -0.2017
14088W        W29897  12.877   6.521  13.290  0.0553 -0.0817 -0.1574
14089W        W29898   5.725  15.171   4.052 -0.2582  0.1163  0.0493
14090W        W29899   4.171   4.426   1.891 -0.0261  0.3335  0.1870
14091W        W29900  18.080  16.810   3.980 -0.2793 -0.0241 -0.0345
14092W        W29901   9.799  17.169   9.663  0.0047 -0.2583  0.0690
14093W        W29902  15.742   8.491  13.653  0.2071  0.1251 -0.0482
14094W        W29903  11.443   1.076  11.495  0.0290 -0.0631 -0.2712
14095W        W29904  16.102  18.220   2.664 -0.1170  0.0855  0.0111
14096W        W29905  16.495  15.099   2.658  0.4528 -0.3426 -0.0911
14097W        W29906   5.089   8.188  13.682  0.1173  0.0411 -0.1420
14098W        W29907  18.300  18.767   1.476  0.1506 -0.1237 -0.2756
14099W        W29908  11.621   0.370  14.162 -0.0784 -0.1014  0.3499
14100W        W29909  17.318   8.588   1.167  0.1079 -0.0827  0.1115
14101W        W29910   1.809   9.234   1.120  0.2130  0.2342  0.1523
14102W        W29911  11.958  12.860  14.968  0.0865  0.0005 -0.3184
14103W        W29912   8.135  14.252   2.788 -0.0090  0.2208  0.2376
14104W        W29913   6.640   9.921  11.902 -0.4175 -0.2466 -0.0259
14105W        W29914   7.163   3.941  14.387 -0.1097 -0.1284 -0.1497
14106W        W29915  10.867   5.725   1.320  0.4545  0.3946 -0.1153
14107W        W29916  12.655   0.478  14.248  0.1070  0.1324 -0.5629
14108W        W29917   4.296   7.571  14.874 -0.3240  0.1656 -0.1677
14109W        W29918   6.345  13.618  10.724  0.1835 -0.0284  0.1794
14110W        W29919  15.296  12.980   9.935 -0.1071 -0.1947  0.2257
14111W        W29920   1.211   7.942  12.941  0.1174  0.1564 -0.4545
14112W        W29921  12.800   1.438  14.248 -0.0129 -0.4108  0.1767
14113W        W29922  16.457  12.868  11.449  0.0835 -0.0654  0.2047
14114W        W29923   4.472  16.997  12.710 -0.0958  0.2111  0.0951
14115W        W29924   3.872   8.226   2.839  0.1225  0.0838 -0.0181
14116W        W29925   2.037  10.380  14.121 -0.1142 -0.1501 -0.1539
14117W        W29926   8.480   8.504  12.982  0.3083 -0.1260 -0.2061
14118W        W29927   3.451   6.205   2.791  0.2687 -0.0549 -0.3020
14119W        W29928  13.070   7.808  11.514 -0.4106 -0.1474  0.3208
14120W        W29929   4.008   8.890  13.145  0.2207 -0.3442 -0.3491
14121W        W29930  11.363  16.725   2.510  0.2088 -0.1473 -0.1574
14122W        W29931   6.929  10.889   2.898  0.1009 -0.0014  0.2654
14123W        W29932   5.427  18.253   3.910  0.0033  0.0790 -0.2301
14124W        W29933  18.279   9.510  13.338 -0.1205  0.1617  0.0716
14125W        W29934  17.710  14.416   2.181 -0.0615  0.1119 -0.3113
14126W        W29935  10.808   3.750  13.273 -0.4461  0.2703  0.0293
14127W        W29936   7.257   0.832   2.408  0.0984  0.0301  0.3049
14128W        W29937  16.479   5.224   3.500 -0.4214 -0.1045 -0.1563
14129W        W29938   0.864  18.413  11.998 -0.0269  0.2512  0.0273
14130W        W29939   4.307  11.752  10.524  0.1164  0.0535 -0.0515
14131W        W29940   0.464  13.571   1.424 -0.1393  0.2222 -0.2817
14132W        W29941   8.319   0.364  13.526  0.4246 -0.2238  0.2863
14133W        W29942   5.793   5.419   5.125  0.3185 -0.0446  0.4018
14134W        W29943   5.159   9.763  11.012  0.3185  0.0068 -0.3105
14135W        W29944   2.900   6.532  12.445  0.0324  0.0213 -0.1817
14136W        W29945   6.592  18.007  12.072 -0.5005 -0.0635  0.1322
14137W        W29946   0.754   7.058  10.491 -0.0209 -0.2424 -0.0196
14138W        W29947  18.902   8.160  11.946 -0.2762 -0.3076  0.0937
14139W        W29948  12.198  13.757  13.790 -0.1866 -0.0363  0.1274
14140W        W29949   4.083   8.598   1.060 -0.0339 -0.0310  0.1325
14141W        W29950   9.757  17.290   0.232 -0.0881  0.2125  0.2354
14142W        W29951   3.278   5.902   5.012 -0.0931 -0.0577 -0.1793
14143W        W29952   3.561  11.169  10.799  0.0657 -0.0214 -0.0076
14144W        W29953   0.060  17.848  11.925  0.1365 -0.2059  0.4434
14145W        W29954  18.788  17.988   4.238  0.2553 -0.1139 -0.1159
14146W        W29955   0.370   5.049   3.194 -0.2361  0.3658  0.2115
14147W        W29956  13.079  10.845   0.153 -0.1278 -0.2112 -0.2434
14148W        W29957  17.435  17.092   0.880  0.5079 -0.0722  0.1579
14149W        W29958   7.165   3.878  15.287 -0.2087 -0.0017 -0.1000
14150W        W29959   7.776  11.036   0.164 -0.1717  0.0706 -0.0054
14151W        W29960  14.180  18.412   2.713 -0.0875 -0.2719 -0.0839
14152W        W29961  17.887   1.679   3.031  0.2211 -0.0776  0.2590
14153W        W29962  17.884   8.790  13.824 -0.4322  0.3647 -0.0659
14154W        W29963  12.963  11.862  11.673 -0.1153  0.0805  0.1922
14155W        W29964  12.835  15.197  12.213  0.0840 -0.3339 -0.5009
14156W        W29965   6.644   3.623   3.468  0.1307 -0.2238 -0.3580
14157W        W29966   0.409  18.186  11.034  0.2193 -0.1134  0.0386
14158W        W29967  14.839  11.782   1.867 -0.0618  0.1501  0.4229
14159W        W29968   8.728  14.245  12.082 -0.3224 -0.1013  0.2456
14160W        W29969  12.352   3.684   9.817  0.0985 -0.3287 -0.2818
14161W        W29970  18.157  16.850  15.122  0.0661  0.4449 -0.1164
14162W        W29971   8.335   5.683  13.053  0.0608  0.1546  0.1731
14163W        W29972  12.298  12.880  11.164 -0.0529 -0.1398  0.0317
14164W        W29973  11.723   3.251   1.445 -0.0298  0.0413 -0.3743
14165W        W29974   2.735   0.508  13.789  0.4336  0.0848  0.0239
14166W        W29975   4.519  14.759   2.444 -0.0608 -0.0709 -0.0468
14167W        W29976  10.584   9.285   0.024 -0.0363  0.1504 -0.1035
14168W        W29977   8.217   8.279  12.564 -0.1190  0.0129  0.0306
14169W        W29978  11.609   3.007  14.596 -0.1242 -0.1501 -0.0848
14170W        W29979   6.035   6.727   0.103 -0.0713 -0.2800 -0.1306
14171W        W29980  18.245  16.193   3.588  0.2263 -0.1978  0.0230
14172W        W29981  14.636  18.007   1.964 -0.1701  0.1192 -0.0992
14173W        W29982   5.248   8.863   1.954 -0.0736 -0.0278  0.2889
14174W        W29983  17.516  14.011   2.392 -0.1222 -0.3444 -0.3527
14175W        W29984   1.409   3.929   1.247 -0.0140  0.0851  0.1486
14176W        W29985  10.815  18.846   2.419  0.1894 -0.0449  0.1440
14177W        W29986  17.665   4.730  12.131  0.0864 -0.4852 -0.1572
14178W        W29987  10.113  14.306  10.590 -0.1270 -0.3837  0.1275
14179W        W29988  17.064   4.236   0.690 -0.0633  0.0222 -0.3287
14180W        W29989   6.723   2.264   2.170 -0.3594 -0.0717 -0.2510
14181W        W29990   6.950   8.306   4.762 -0.0047 -0.1255  0.0565
14182W        W29991  16.669  12.177  10.852  0.0100 -0.0243  0.0381
14183W        W29992   7.202   5.877   0.628 -0.1383 -0.1757 -0.0267
14184W        W29993   9.862   8.914  15.178 -0.4842  0.1866  0.1349
14185W        W29994  17.521   1.916  14.295 -0.0581  0.0119 -0.2086
14186W        W29995  13.707   9.680  12.852  0.6893 -0.3576 -0.1873
14187W        W29996   0.135  16.551  10.826 -0.2379 -0.3330 -0.0792
14188W        W29997   0.817   6.355  14.916 -0.1624 -0.3113 -0.1772
14189W        W29998   5.330  11.848   2.744 -0.1020 -0.1542  0.1441
14190W        W29999  11.991  16.596  12.329  0.3305 -0.0856 -0.1805
14191W        W30000   5.409   8.723   3.865  0.0820  0.0926  0.1143
14192W        W30001  15.917  13.628   1.882  0.2792  0.1138  0.1984
14193W        W30002  17.739  14.817   1.279  0.0099  0.1255 -0.2394
14194W        W30003  10.183  14.444   3.991  0.2858  0.1050  0.0982
14195W        W30004  15.756   2.429   5.189 -0.0055  0.1652 -0.1598
14196W        W30005  17.336   1.003   1.986  0.3040 -0.3882  0.0523
14197W        W30006   5.739   0.991   3.690 -0.1183 -0.1318  0.1892
14198W        W30007  16.522  11.578  13.927 -0.0135  0.2812 -0.3489
14199W        W30008  13.643   8.704   5.682  0.0047  0.0538 -0.0078
14200W        W30009  10.412   3.059  13.117  0.0901  0.2772  0.0163
14201W        W30010  18.124  15.394   2.408 -0.2585  0.0279 -0.0209
14202W        W30011   4.589  11.001   3.966 -0.2030 -0.3522 -0.1873
14203W        W30012  16.222   9.597   2.738  0.1925 -0.2998  0.1262
14204W        W30013  14.019  16.152  14.946 -0.0165  0.0090 -0.3339
14205W        W30014   3.940  10.188  11.365 -0.1071  0.1697  0.1286
14206W        W30015   8.203   8.626  13.786 -0.0323  0.2007  0.0617
14207W        W30016  14.502   0.235   4.996 -0.3319 -0.0575 -0.1633
14208W        W30017   5.002   3.211   2.884 -0.1178  0.2403  0.1576
14209W        W30018  10.823   3.861   0.742 -0.1568  0.0435  0.1242
14210W        W30019   3.205  15.590   1.317 -0.1480 -0.0435 -0.0426
14211W        W30020  12.392   1.457   0.156  0.0139 -0.1203 -0.2558
14212W        W30021  13.715  13.287   1.569 -0.0556  0.0726 -0.3219
14213W        W30022  12.061   2.754  15.124 -0.0619  0.1203  0.0366
14214W        W30023   4.256  18.072   4.553 -0.1675 -0.0162  0.0807
14215W        W30024   5.885  14.521  12.835 -0.0691 -0.1952 -0.2656
14216W        W30025   6.723   9.255   2.693 -0.1245  0.2572 -0.0793
14217W        W30026   9.899   6.084   3.699 -0.2358  0.0934  0.0251
14218W        W30027   1.844   8.113   2.676  0.2556  0.1134 -0.2790
14219W        W30028   2.152  17.387   3.377  0.0290  0.1331  0.2502
14220W        W30029   1.314  15.151   2.328  0.1278  0.4350 -0.3388
14221W        W30030   6.819   9.447  11.778 -0.1506  0.0194  0.2491
14222W        W30031  16.280  14.972   0.835  0.0946 -0.2824 -0.0961
14223W        W30032  13.412   5.393  12.083  0.1443  0.0617  0.0315
14224W        W30033   8.976   1.528   0.132  0.1959 -0.1707  0.1325
14225W        W30034   3.686  18.058  13.262 -0.2125 -0.2685 -0.0550
14226W        W30035   9.733  12.809   2.600 -0.0803  0.2166  0.2009
14227W        W30036  13.359  18.180   0.749  0.1330  0.2337 -0.3128
14228W        W30037   6.964   9.424   5.259 -0.0291 -0.1554  0.1101
14229W        W30038  14.780  16.192   4.744 -0.2863 -0.2290 -0.0479
14230W        W30039   2.205  17.829   1.428  0.0745 -0.0242  0.1262
14231W        W30040  14.240   6.256  14.460  0.0254  0.1516 -0.1719
14232W        W30041  12.569   6.924  12.478 -0.5071 -0.0094  0.1468
14233W        W30042  14.567  12.672   3.407  0.0991  0.1492  0.4785
14234W        W30043   1.272  12.037   1.421 -0.1078  0.0892  0.1262
14235W        W30044  18.841   8.690   4.137 -0.3088  0.0691  0.0191
14236W        W30045   8.496  14.274  15.276  0.0924 -0.0114 -0.0889
14237W        W30046   4.252   9.800   4.324 -0.1170  0.4699  0.2577
14238W        W30047   4.978   0.682   3.181 -0.1720  0.2613 -0.1495
14239W        W30048  12.310   6.934   2.507 -0.2628 -0.1427  0.0595
14240W        W30049   8.851   8.300   1.802  0.2928 -0.0374  0.2509
14241W        W30050  16.076  10.645   0.992 -0.3982 -0.0756  0.0056
14242W        W30051  11.751  14.987  11.464 -0.1438  0.3697  0.2083
14243W        W30052   6.191   9.817  10.609  0.1124 -0.3261 -0.1841
14244W        W30053  15.593   1.077   3.944 -0.5730  0.0258  0.2895
14245W        W30054  16.007   9.929  10.610 -0.1413  0.2275 -0.1177
14246W        W30055   3.978  18.180  12.601  0.1759 -0.1180 -0.1357
14247W        W30056   5.499   3.308   2.874 -0.0732 -0.1303 -0.0640
14248W        W30057  16.267   9.991  11.069  0.2085  0.0090  0.1112
14249W        W30058   8.894   9.052  11.628  0.0709  0.1602  0.2101
14250W        W30059  14.089  16.289   4.002 -0.1748  0.0750 -0.0111
14251W        W30060   5.310   9.997   4.178  0.0101  0.1286 -0.0238
14252W        W30061  12.338   5.588   1.370  0.5119  0.2288 -0.3709
14253W        W30062  17.547   9.377   3.129  0.1910  0.0558  0.1003
14254W        W30063   6.106   4.641   2.777  0.1010 -0.2809 -0.0129
14255W        W30064  12.369   6.270   5.032 -0.1674 -0.4755  0.0771
14256W        W30065   6.193  12.517   3.060  0.1457  0.2577  0.2319
14257W        W30066  17.939   2.528   3.503 -0.0553  0.0243  0.0813
14258W        W30067   1.189   3.961   3.380  0.1711  0.2344 -0.3392
14259W        W30068  18.870  10.277   4.972  0.0824 -0.0194 -0.2082
14260W        W30069  14.181  17.927  15.018 -0.2796  0.1788 -0.1210
14261W        W30070   0.352  17.555   2.246  0.2794 -0.1444  0.2904
14262W        W30071  14.062  16.355   1.086  0.0234 -0.0363 -0.0989
14263W        W30072  18.030  10.701  15.079 -0.2578 -0.0407  0.0677
14264W        W30073   2.361   7.453  12.426  0.0765 -0.0401 -0.0801
14265W        W30074   1.888   5.285   3.054  0.0933 -0.0056 -0.0302
14266W        W30075   7.106   0.141  14.739  0.0430 -0.1671 -0.0925
14267W        W30076   3.046   0.568  14.676  0.0395  0.0855  0.0538
14268W        W30077  14.521  10.230  11.792  0.1181 -0.1727  0.1377
14269W        W30078  15.757  17.752  10.172 -0.1335  0.3016  0.0372
14270W        W30079   4.131   6.775  10.975  0.3187 -0.2124 -0.1419
14271W        W30080  17.520  16.277  14.267  0.0727 -0.2391  0.2928
14272W        W30081   1.199   3.413   2.821  0.1898  0.4578 -0.2405
14273W        W30082  17.280   9.250   3.548 -0.1836  0.2454 -0.2109
14274W        W30083   0.484   5.917  14.945 -0.2215  0.0045  0.1803
14275W        W30084   8.811  12.919  11.777  0.1737  0.2063 -0.0703
14276W        W30085  10.016  15.121  12.588  0.1524 -0.0228 -0.2559
14277W        W30086  15.239  12.936  13.957  0.3061  0.0417 -0.1077
14278W        W30087   1.860  15.913   0.837 -0.0373  0.1667  0.3484
14279W        W30088   0.165  13.434  11.771 -0.3170  0.1959 -0.1235
14280W        W30089   5.157   6.265   3.176  0.4296  0.0934  0.1794
14281W        W30090  17.789  17.689  11.207 -0.2297 -0.1142 -0.1783
14282W        W30091   1.803  17.994   1.072  0.1621 -0.1806 -0.0338
14283W        W30092   9.226  13.359   0.543 -0.1653  0.0687  0.1631
14284W        W30093   0.695  14.241  11.051  0.0868 -0.0456  0.2602
14285W        W30094   7.231   9.703   4.529 -0.1130  0.0157 -0.0660
14286W        W30095  11.010  13.306  14.158 -0.1527 -0.1749 -0.2128
14287W        W30096  12.737  14.525   4.187 -0.2763 -0.0023 -0.0263
14288W        W30097   6.772  13.277   1.993  0.1574 -0.3197  0.1836
14289W        W30098  14.757   0.599   2.267 -0.0085 -0.5069  0.1900
14290W        W30099   9.767  11.246   1.221 -0.2659  0.0446  0.1219
14291W        W30100   3.565   7.737  10.605 -0.1901  0.0194 -0.0080
14292W        W30101  18.808  18.213  12.329  0.0197  0.0695  0.2210
14293W        W30102  15.404  18.044  13.387 -0.0327 -0.1547 -0.1101
14294W        W30103   0.969  17.856   3.220  0.3472 -0.1573 -0.2582
14295W        W30104   5.872   4.424   3.209  0.0159  0.1194  0.1775
14296W        W30105  14.640  18.743  13.535 -0.0413 -0.0617 -0.1544
14297W        W30106  17.840  10.947  12.698  0.3572 -0.1841 -0.2283
14298W        W30107  15.604   4.887  12.793  0.1253  0.2472 -0.0072
14299W        W30108  17.083  14.118   3.655  0.0996  0.0118 -0.1232
14300W        W30109  14.429  15.523   2.084  0.2122 -0.0399  0.0190
14301W        W30110   8.045   9.935  11.789 -0.4108  0.1050 -0.2330
14302W        W30111   5.410   7.996  12.521  0.2357  0.2175  0.2693
14303W        W30112  13.955   5.204  11.100 -0.1255  0.0069 -0.1337
14304W        W30113  13.231   1.684   2.282 -0.4221 -0.0032  0.1874
14305W        W30114   0.760   3.855   1.194  0.1029 -0.0810  0.1486
14306W        W30115   7.841  16.269  11.958  0.2415  0.2450  0.0144
14307W        W30116  12.510  14.508   5.311 -0.2091 -0.0782  0.1553
14308W        W30117   2.537  15.190  14.509  0.0597  0.1091  0.0548
14309W        W30118   3.162   5.013  10.329  0.1421 -0.2723  0.3328
14310W        W30119  14.161  15.357   0.095 -0.1146  0.2081  0.0309
14311W        W30120  18.846   1.814  15.024  0.1933 -0.2622 -0.2602
14312W        W30121  13.533  16.940  11.300  0.2290 -0.0249  0.0282
14313W        W30122   0.703   0.159  14.244  0.1397 -0.0514  0.0369
14314W        W30123   1.570   0.689  15.071 -0.2028 -0.1568 -0.3945
14315W        W30124   9.973  11.975   3.818  0.4455  0.1667  0.1692
14316W        W30125  13.555   4.269  11.950  0.1965  0.2884  0.0802
14317W        W30126   2.271  10.954   1.891  0.0010  0.0849  0.0692
14318W        W30127   9.096  15.623  15.144 -0.0806 -0.1554 -0.0186
14319W        W30128   6.307   6.373   4.550  0.1549 -0.1995 -0.2178
14320W        W30129   4.627   9.235  10.591  0.2379  0.0159 -0.1676
14321W        W30130   6.544  12.410  13.622 -0.0321  0.1261 -0.4500
14322W        W30131   0.797   5.815   5.203  0.6227 -0.4152  0.0934
14323W        W30132   6.227   2.441  13.218 -0.1734  0.2396 -0.0370
14324W        W30133  11.828  10.907  15.052 -0.3128  0.0518 -0.1592
14325W        W30134  12.258   8.116   2.927 -0.3559 -0.0897  0.2546
14326W        W30135  10.127  14.301   5.286  0.2027 -0.2796 -0.0910
14327W        W30136  16.469   9.537   2.116  0.2227  0.0570  0.0118
14328W        W30137   3.517  14.400  13.757  0.1388  0.0379 -0.0040
14329W        W30138   7.095   1.541   4.012 -0.2157 -0.1658 -0.2932
14330W        W30139   0.141  15.168   0.811  0.0752 -0.1210  0.0525
14331W        W30140  14.341   9.606   4.700 -0.1686 -0.1541 -0.0627
14332W        W30141   6.486  16.311  12.200 -0.0292 -0.0730  0.1103
14333W        W30142   2.243  12.652   2.084  0.1620  0.0923  0.1863
14334W        W30143  17.576  16.594  12.825 -0.3054  0.0918  0.1094
14335W        W30144   6.471  11.381   4.745  0.1637 -0.2219  0.0140
14336W        W30145  14.615   8.064  12.781 -0.0039  0.0822 -0.1448
14337W        W30146  15.327   0.427   4.735 -0.1927 -0.0366 -0.1113
14338W        W30147   5.041   9.600  14.491  0.2134 -0.1563  0.1625
14339W        W30148  11.928  18.418  15.413  0.0097 -0.1184 -0.2366
14340W        W30149   2.090   4.653  13.459  0.0738 -0.0681 -0.0022
14341W        W30150  17.167  12.373  13.023 -0.0299  0.1531 -0.1670
14342W        W30151  10.507   0.923   4.352 -0.0551  0.2298 -0.3306
14343W        W30152   4.086   6.795  13.430 -0.0933 -0.3916 -0.0955
14344W        W30153   2.989   9.096  13.043  0.1864  0.3774  0.1139
14345W        W30154   0.435   7.394  12.501 -0.0357  0.4457 -0.1098
14346W        W30155  11.768  14.851   4.560 -0.2133 -0.2251 -0.1225
14347W        W30156   4.408  14.111   4.973  0.0696 -0.0577  0.1214
14348W        W30157   7.401   7.842  11.682 -0.1937 -0.2565 -0.0382
14349W        W30158   0.876   5.622  13.718 -0.0959  0.2221 -0.0321
14350W        W30159  11.733   6.951   2.562 -0.3544  0.1311  0.3688
14351W        W30160   1.439  11.712  12.190  0.4150 -0.0146  0.0469
14352W        W30161  15.028  14.509  15.317 -0.0366 -0.1237 -0.1159
14353W        W30162  15.533   7.816  13.649  0.0356 -0.0663 -0.0496
14354W        W30163   0.919  17.766  14.099  0.1000  0.1552  0.0963
14355W        W30164  17.700  11.814  11.148 -0.0936  0.1014 -0.0068
14356W        W30165   9.881   2.145   0.862  0.0285 -0.3115 -0.1632
14357W        W30166  12.436  18.576   0.131  0.0312  0.1592  0.0930
14358W        W30167   1.298   4.782  13.795 -0.0249  0.0603 -0.2199
14359W        W30168  12.639  13.588   3.266 -0.1256  0.0836 -0.0958
14360W        W30169   8.370  16.520   2.687 -0.0362  0.0612 -0.2152
14361W        W30170   3.898  15.119  13.893 -0.1013  0.0003 -0.2474
14362W        W30171   3.448  18.582   3.629 -0.1362  0.2207  0.0027
14363W        W30172  17.280  16.755  10.211 -0.2731 -0.3163  0.0903
14364W        W30173  10.934  18.046  11.458  0.0765  0.0921  0.0109
14365W        W30174   2.245   1.140   0.922 -0.1433  0.0882 -0.1234
14366W        W30175   4.143   8.745   4.944 -0.1358 -0.2091 -0.0702
14367W        W30176  16.684  18.603  13.553 -0.2726  0.0815 -0.1419
14368W        W30177  12.888  14.450  14.246 -0.0940 -0.2680  0.0461
14369W        W30178   8.789   9.699   3.273 -0.0448 -0.0574 -0.1961
14370W        W30179   4.160   2.681  11.902  0.0561  0.0803  0.0887
14371W        W30180   4.263   8.361   4.595  0.1769 -0.0220  0.1609
14372W        W30181   9.371  13.266  13.128  0.0903  0.1936 -0.2563
14373W        W30182   7.979  10.526   1.207 -0.0855 -0.2335 -0.1801
14374W        W30183  18.606  10.028  10.236 -0.2412  0.1789 -0.1348
14375W        W30184   3.350   0.024  12.369 -0.4423  0.2067 -0.6411
14376W        W30185  18.406   3.039  14.447 -0.1189 -0.0866  0.0888
14377W        W30186  14.406   5.129   4.371 -0.0337  0.0903 -0.3091
14378W        W30187   3.118   5.380  11.906 -0.1155  0.3960 -0.0983
14379W        W30188  17.161   8.185  12.312  0.2194 -0.3989  0.0336
14380W        W30189  12.294  12.302  13.354 -0.1085  0.0112  0.1658
14381W        W30190   8.217   4.927  15.332 -0.1810  0.0131  0.0490
14382W        W30191   0.778   1.851   3.705 -0.1594  0.2997 -0.1967
14383W        W30192  12.737  18.568   3.364  0.1820 -0.0493 -0.0087
14384W        W30193   0.870   5.447   5.603 -0.1606  0.0117 -0.1280
14385W        W30194   4.587   5.998   2.228 -0.3121  0.1846  0.1435
14386W        W30195  14.640  10.601   0.903 -0.0727  0.0708  0.2341
14387W        W30196  15.691  13.041   0.262  0.0106 -0.0392 -0.4859
14388W        W30197  13.870  17.618   1.183  0.1981 -0.2264  0.4231
14389W        W30198  15.345   4.461  14.923 -0.2701  0.0342 -0.2982
14390W        W30199  15.020   5.662  14.846 -0.1385 -0.2236  0.0687
14391W        W30200   5.353  10.267  12.678  0.0829  0.0185 -0.1565
14392W        W30201   5.843   5.226   3.939  0.0788  0.3471  0.0420
14393W        W30202   8.818   8.327   1.191  0.1306  0.1203 -0.1779
14394W        W30203   1.158   7.528   2.291  0.1732 -0.1264 -0.0098
14395W        W30204  10.272  10.849  13.092 -0.1982 -0.0400  0.3071
14396W        W30205  18.143   4.701  13.923 -0.2486  0.0137  0.0634
14397W        W30206  16.581  12.487   3.256 -0.2260 -0.0254  0.1666
14398W        W30207  13.975  12.735   0.610  0.1660 -0.0975  0.1028
14399W        W30208  17.026  18.193  11.999 -0.0326 -0.1795  0.0633
14400W        W30209  14.247  11.122  13.844 -0.4178 -0.0155  0.3357
14401W        W30210   7.190  16.436   3.211 -0.0377 -0.1085  0.1057
14402W        W30211   1.657   2.010   0.740 -0.0777  0.0374 -0.0059
14403W        W30212   3.597   2.562  13.653  0.2698  0.1823 -0.2193
14404W        W30213  10.547   0.299  14.966 -0.2024 -0.0888 -0.1568
14405W        W30214  10.612   2.502   0.172 -0.0882  0.0254 -0.3562
14406W        W30215   5.922  11.356   0.878  0.4817 -0.0246  0.2790
14407W        W30216  10.250   7.743   4.894  0.1859  0.0642  0.1731
14408W        W30217   4.669  10.893   3.463 -0.1071  0.2496 -0.1820
14409W        W30218  11.436   2.147  12.003  0.2442 -0.2167  0.2656
14410W        W30219   8.454   9.880   5.057  0.1455  0.3104 -0.0460
14411W        W30220  13.645  14.405  13.826 -0.3908 -0.2714 -0.0384
14412W        W30221   1.439  16.280  12.415 -0.0762  0.0445 -0.1709
14413W        W30222  13.884   8.761   4.243  0.4223 -0.2200 -0.5058
14414W        W30223  11.933  12.407   5.001  0.1800 -0.1913 -0.1172
14415W        W30224  11.433  18.083   5.417 -0.0620 -0.0595  0.0501
14416W        W30225  10.424  13.678   4.083 -0.0316  0.3110  0.4006
14417W        W30226   4.538  16.499   4.652  0.1013  0.3614 -0.0118
14418W        W30227   5.926  13.008   0.001  0.0506 -0.2079 -0.1724
14419W        W30228  17.246  12.646  13.694 -0.0549 -0.0496  0.1498
14420W        W30229  14.576  18.734   4.034 -0.0309 -0.0025  0.1864
14421W        W30230  14.755   1.721  14.508  0.0806 -0.2759  0.0742
14422W        W30231   5.031   8.954   3.444  0.0141  0.2342  0.2073
14423W        W30232   4.722  17.530  12.357  0.4351 -0.0857 -0.1445
14424W        W30233  15.583   9.508   2.045  0.3939  0.2588 -0.3900
14425W        W30234   6.167   3.858   2.513 -0.4369  0.1362  0.4088
14426W        W30235  16.166   1.761  14.796 -0.1128  0.5086 -0.2214
14427W        W30236  16.916   2.332   5.384 -0.2042  0.0667 -0.0009
14428W        W30237   2.296  15.684   0.610  0.1927  0.0253  0.4168
14429W        W30238   8.580   3.331   2.147 -0.1744 -0.0798  0.1722
14430W        W30239   1.647   7.876  10.837 -0.0098 -0.0637  0.1771
14431W        W30240  15.637   7.199   3.717  0.1917  0.2248  0.2833
14432W        W30241  14.610  18.388   0.317  0.0988 -0.5001  0.2991
14433W        W30242  10.431   2.647  11.065  0.0837  0.1581 -0.0103
14434W        W30243  10.437   9.570   4.403 -0.1720 -0.0837 -0.0452
14435W        W30244   2.522   2.386  15.049 -0.2906  0.4942  0.0234
14436W        W30245   5.442   5.127   3.587 -0.1412 -0.0413  0.1602
14437W        W30246  13.447  11.992   3.813 -0.1266  0.0985  0.0389
14438W        W30247   5.616   3.669   2.164 -0.0918  0.1901 -0.3152
14439W        W30248  17.220  16.080   4.706  0.0249  0.2774 -0.2499
14440W        W30249  13.761  10.518  14.059 -0.1429  0.3760  0.0834
14441W        W30250  16.213   6.097   5.198  0.0321 -0.2875  0.0635
14442W        W30251   5.441  15.442   0.736  0.0536  0.1315 -0.0607
14443W        W30252  18.767   6.261  14.327 -0.2623 -0.0619 -0.0199
14444W        W30253  11.719  18.658  11.605  0.1997  0.0442  0.1464
14445W        W30254   9.921   2.425  11.054  0.0001  0.0365 -0.0439
14446W        W30255  10.263   7.378  15.261  0.0381  0.0389  0.1076
14447W        W30256   0.251   3.107   3.939 -0.0521  0.3096  0.1198
14448W        W30257  13.156   2.756  15.397 -0.0077 -0.1377 -0.0369
14449W        W30258  12.707  18.158   0.292  0.3647 -0.0444  0.4768
14450W        W30259  12.661   2.351   3.601  0.0050 -0.2035  0.1066
14451W        W30260   9.505   6.100  14.018 -0.1352  0.2673  0.0782
14452W        W30261  15.961  12.781  13.609  0.3623  0.0186  0.0101
14453W        W30262  17.147   7.742   1.558  0.2665  0.1650 -0.2229
14454W        W30263   8.050   6.301   2.343 -0.0090  0.2356  0.0199
14455W        W30264  14.674   3.717  14.903  0.0211 -0.1484  0.3344
14456W        W30265   0.496   0.756   1.403 -0.0584  0.1806  0.0345
14457W        W30266   5.234  10.736   5.768 -0.3547  0.1162 -0.0675
14458W        W30267  15.989   5.982  10.569  0.0141 -0.0446  0.2293
14459W        W30268   8.885   4.996   3.695  0.3398  0.2661  0.0738
14460W        W30269  10.910   8.290  12.234 -0.0877 -0.2995  0.0402
14461W        W30270   7.382   7.932   3.044  0.0292  0.1066 -0.1930
14462W        W30271   8.380   3.755   4.052  0.0835  0.1525 -0.0883
14463W        W30272   6.205   6.412  13.330  0.0509  0.2261  0.1427
14464W        W30273   4.444  12.838   4.608  0.2268 -0.1223 -0.1627
14465W        W30274  10.678   3.311   3.402 -0.0031  0.0814 -0.0342
14466W        W30275   8.993   8.706  12.054  0.0660 -0.1201  0.1601
14467W        W30276   7.832  14.134  12.930  0.3215 -0.0338 -0.1773
14468W        W30277  10.109   1.713   4.127  0.2832  0.1239 -0.0409
14469W        W30278   5.348  13.152  11.642  0.3313 -0.0465  0.0429
14470W        W30279  11.421   0.368   1.324  0.0581 -0.1547 -0.0694
14471W        W30280  17.045   3.062   0.406  0.1347 -0.1752  0.2658
14472W        W30281  11.881   4.110  11.111 -0.0313  0.2321 -0.0290
14473W        W30282   9.160   6.982   0.302 -0.0144  0.1361  0.1794
14474W        W30283   9.938   6.175   2.043  0.0456  0.3854  0.0151
14475W        W30284   6.779  18.329   4.233  0.2272  0.1538  0.1579
14476W        W30285   6.168   0.191  10.734 -0.1374 -0.2954  0.3709
14477W        W30286  13.137  14.774  12.331  0.0321  0.0675 -0.0300
14478W        W30287   2.789   7.884   1.915  0.1425  0.0025 -0.0557
14479W        W30288  15.048   6.163   2.187  0.0454 -0.3797 -0.0318
14480W        W30289   5.130   6.616   1.941 -0.0949  0.2433 -0.1141
14481W        W30290   8.147   0.767  13.757 -0.0189  0.1124 -0.1193
14482W        W30291   1.006   2.647  11.496 -0.0808  0.2991  0.1143
14483W        W30292   8.353   0.191  15.033 -0.0028  0.1435 -0.1823
14484W        W30293   5.196  12.196   4.363 -0.1269 -0.0983  0.2749
14485W        W30294  16.771   0.151   3.540 -0.0098  0.2535  0.1604
14486W        W30295   6.016   9.906  12.050 -0.1903 -0.1390 -0.1944
14487W        W30296  14.029  10.931  11.411 -0.4077  0.1113 -0.2321
14488W        W30297   7.748  10.936   4.452 -0.1147 -0.0303  0.2520
14489W        W30298  14.930   7.924   3.547 -0.0141 -0.0441  0.0728
14490W        W30299   1.143   1.894   0.759  0.2492  0.0748  0.0236
14491W        W30300  18.235  10.822  12.425 -0.0626 -0.1805  0.3704
14492W        W30301   6.040   5.723  12.232  0.1000  0.2350  0.0546
14493W        W30302   3.620  12.003   3.598 -0.1040  0.1857 -0.5094
14494W        W30303  18.429  18.129   5.210 -0.1026 -0.1514  0.0396
14495W        W30304   3.318   1.612  11.949  0.5975  0.2242  0.4491
14496W        W30305   9.334   2.546  12.168 -0.2984 -0.0481  0.1282
14497W        W30306  15.271  13.454   3.082  0.0202  0.3089  0.4493
14498W        W30307  11.021  14.477   0.455  0.0698  0.0330 -0.0165
14499W        W30308   0.002  17.513   1.132  0.0541  0.0154  0.0377
14500W        W30309   9.869   6.027   3.116 -0.1872 -0.0494 -0.0794
14501W        W30310   1.519  16.525  11.847  0.1758  0.1862 -0.0240
14502W        W30311   7.149  10.327  13.819 -0.0503 -0.0314 -0.2483
14503W        W30312   5.605  18.273   2.868 -0.1039 -0.1088  0.0803
14504W        W30313   1.109   0.391  12.417  0.0889 -0.0084  0.2745
14505W        W30314  12.276  10.267   3.365 -0.2442  0.2847  0.1793
14506W        W30315  11.036  16.809  12.787 -0.1704 -0.1793  0.4318
14507W        W30316   5.294  16.065   3.084  0.2461  0.1756 -0.2844
14508W        W30317  17.607  15.679   3.225 -0.1614  0.3750  0.0157
14509W        W30318  14.917  16.514   1.423  0.1285 -0.1176  0.1894
14510W        W30319   0.913  16.339  12.552  0.0308  0.3426  0.2187
14511W        W30320   0.912   7.747   0.204 -0.0014  0.1128  0.0537
14512W        W30321   2.885  11.459  15.339 -0.1521 -0.2363  0.1845
14513W        W30322   8.431   5.763  10.604 -0.1742 -0.3889  0.1122
14514W        W30323  14.635   2.279   0.921 -0.0212 -0.2109  0.1182
14515W        W30324   5.412   4.782  14.843  0.0664  0.0483 -0.0617
14516W        W30325  17.707   0.248   3.882  0.0490 -0.3185  0.0161
14517W        W30326   1.512   7.161   5.760  0.0297  0.1035  0.1422
14518W        W30327  17.514  16.146   3.406  0.1178 -0.2544 -0.2883
14519W        W30328   8.011   8.666  13.247  0.2117  0.0465  0.1063
14520W        W30329  13.662  18.864   4.434 -0.1700  0.0205  0.1229
14521W        W30330  13.837  15.100   5.164 -0.1623 -0.2503 -0.0005
14522W        W30331  15.129   0.400  10.641 -0.0551 -0.0404  0.4511
14523W        W30332   7.647   2.089   2.275 -0.2616  0.3652  0.0889
14524W        W30333  13.312  10.355   4.129  0.0482  0.0226  0.2237
14525W        W30334   3.651   6.765   0.108  0.0282 -0.1639 -0.0128
14526W        W30335  12.722   6.079  11.789  0.0435  0.1270 -0.0859
14527W        W30336   9.456  14.809   4.316  0.2317 -0.1828 -0.0968
14528W        W30337  18.241   3.473  12.350 -0.0296 -0.2012  0.2454
14529W        W30338   4.687   6.723  13.749 -0.0646 -0.1644  0.3034
14530W        W30339   8.739   2.089   2.648 -0.0903  0.0747 -0.2257
14531W        W30340   2.766   7.814  15.376 -0.0162 -0.0192  0.0551
14532W        W30341   6.992  18.097  12.509  0.1828  0.2123  0.0745
14533W        W30342   6.150  14.668   0.014  0.0319  0.2252 -0.1017
14534W        W30343   8.973   0.750   4.234  0.4431 -0.1646 -0.0008
14535W        W30344   3.409  11.952  15.291 -0.0717  0.1712 -0.0566
14536W        W30345  17.133   2.765   4.431 -0.2725  0.0283  0.1800
14537W        W30346   6.999   5.128   2.847 -0.1881 -0.2803  0.1755
14538W        W30347   3.271  15.237   3.322 -0.0699 -0.1993  0.0686
14539W        W30348   4.143  17.675  11.117  0.0540  0.0417  0.3672
14540W        W30349  15.008  10.058  13.586 -0.2269  0.0085  0.3263
14541W        W30350   6.832  13.032   3.068  0.4633  0.0271  0.1012
14542W        W30351   0.760  16.176   0.877 -0.1284  0.1943 -0.2566
14543W        W30352  12.232   6.461   3.789 -0.1705  0.3302  0.1429
14544W        W30353  16.012  13.258  14.882 -0.0809  0.1845  0.1662
14545W        W30354  10.387  10.093   0.407  0.0008 -0.2771 -0.2701
14546W        W30355   5.864  14.675   0.529 -0.1147  0.0645 -0.1175
14547W        W30356   8.875   0.277  14.796  0.0876  0.0855 -0.1305
14548W        W30357   6.184   3.349   0.115  0.0143 -0.2723  0.1417
14549W        W30358  10.332   3.812  11.163  0.0239 -0.1889 -0.3558
14550W        W30359  10.520  13.315   2.670  0.1052  0.0735  0.1225
14551W        W30360   4.539  11.137   1.307 -0.3641  0.0153  0.1667
14552W        W30361   9.982  10.014   1.345  0.2915  0.1065  0.2577
14553W        W30362  10.099   6.488   2.798 -0.0706 -0.2522 -0.2639
14554W        W30363   5.018   0.449  13.622  0.0374  0.3013  0.1161
14555W        W30364  14.672   0.789   0.590 -0.2126  0.5926  0.0930
14556W        W30365   5.108  17.415   2.865 -0.0614  0.1663  0.1590
14557W        W30366   2.360   3.048  14.072  0.1008 -0.0117 -0.3654
14558W        W30367   8.587  12.188   2.485  0.3900  0.1258 -0.2451
14559W        W30368   9.284   2.805  12.620 -0.0738  0.2520 -0.1039
14560W        W30369  14.793   6.141   4.646 -0.3703  0.2093  0.2779
14561W        W30370   8.057   1.533   1.899 -0.3268 -0.1611 -0.4954
14562W        W30371   9.342  15.181   1.280 -0.2205  0.1248 -0.2039
14563W        W30372  17.664  13.510  11.217  0.0668  0.0800  0.0215
14564W        W30373   8.583  10.472  12.988  0.0231 -0.0311 -0.2279
14565W        W30374   2.358   7.780   9.943  0.0381  0.0297 -0.3237
14566W        W30375  11.574  13.381   2.577  0.1610 -0.0067 -0.1826
14567W        W30376  16.698  15.422  14.859  0.2791 -0.3146 -0.2637
14568W        W30377   5.048  18.539  11.148 -0.1903 -0.0155  0.0880
14569W        W30378   6.454  10.604  10.795 -0.2513  0.2212  0.0658
14570W        W30379   9.244  14.490  13.610 -0.2826 -0.0494 -0.0561
14571W        W30380   1.410  14.140   3.338  0.2363 -0.1993 -0.0699
14572W        W30381  12.836   2.719   0.395  0.1762  0.0104 -0.2914
14573W        W30382  11.115   2.778  12.522 -0.2954 -0.1977  0.0549
14574W        W30383   0.095   5.403  13.284  0.1390  0.3536 -0.0599
14575W        W30384  15.457  11.670  15.065  0.2344 -0.3986  0.0385
14576W        W30385  12.318  18.845  15.106  0.0297 -0.0768 -0.2961
14577W        W30386   1.811  17.056  11.499  0.0813 -0.0740 -0.1376
14578W        W30387   5.908   3.559  12.936  0.1998 -0.0064  0.1247
14579W        W30388  16.420  13.278   4.939  0.0629  0.0548  0.2344
14580W        W30389   4.719  15.762  11.956  0.0773 -0.2519  0.3408
14581W        W30390   5.222   7.187  14.452  0.1454 -0.1265 -0.0675
14582W        W30391   4.554   1.560   4.102 -0.2843  0.0435  0.2628
14583W        W30392  14.621   8.606   6.143 -0.0644 -0.0626  0.2843
14584W        W30393  17.612  12.517  11.071 -0.1947  0.1262 -0.3696
14585W        W30394  10.303   8.333   0.286  0.0740  0.0058  0.3874
14586W        W30395   2.818  17.622   5.437  0.0755  0.0967  0.2460
14587W        W30396   3.464   0.519   2.129 -0.2566 -0.0714  0.1421
14588W        W30397  12.726   1.025   4.592 -0.2718  0.1079  0.0552
14589W        W30398   5.948  16.896   1.791  0.2029 -0.1836  0.0614
14590W        W30399  12.442   5.990  13.596  0.0363  0.0922  0.1687
14591W        W30400   2.889   8.813   3.567  0.0825 -0.0957 -0.0824
14592W        W30401   3.346  16.668  10.771 -0.0808  0.0258  0.0529
14593W        W30402   0.891   3.792  11.210 -0.2126  0.0115 -0.0337
14594W        W30403  16.616  15.933  11.849 -0.1606 -0.3897  0.1111
14595W        W30404  18.443  16.840  12.251  0.1188 -0.0414  0.4432
14596W        W30405   8.588  12.827   2.119 -0.0453  0.1363  0.2697
14597W        W30406   2.900   6.138   4.118 -0.1133  0.1726 -0.1266
14598W        W30407   8.206   7.282   5.450 -0.2633  0.0723  0.0741
14599W        W30408  15.896   7.002  10.395 -0.3252  0.0294 -0.1984
14600W        W30409  18.137  15.686   1.119  0.1005 -0.1945  0.0517
14601W        W30410   0.340  18.708  14.412  0.0224 -0.0202 -0.0890
14602W        W30411  10.371   8.531  14.532 -0.0220 -0.2520 -0.5325
14603W        W30412  14.615   4.191   2.101  0.2848  0.0380  0.3038
14604W        W30413   8.344  12.760   1.499  0.0263 -0.1057 -0.1466
14605W        W30414   2.840   0.233  11.482 -0.0934  0.0419  0.1125
14606W        W30415  16.008   8.202   3.805  0.3137  0.0868  0.1351
14607W        W30416   5.211  18.063   1.573  0.1204 -0.0556 -0.3526
14608W        W30417   3.799  10.835  13.314  0.0966 -0.1026  0.0702
14609W        W30418   6.108  14.782   3.319  0.0794  0.0977  0.0028
14610W        W30419  17.790  17.295  13.515  0.1250  0.1758 -0.0444
14611W        W30420   4.292   4.407  12.893 -0.1440 -0.2666  0.0576
14612W        W30421   8.670   4.137   4.114  0.2374 -0.0548  0.0062
14613W        W30422   0.453   1.492  13.202 -0.2389 -0.1847 -0.2904
14614W        W30423   4.154   6.500  12.945 -0.1317 -0.2254 -0.2832
14615W        W30424   1.094  10.786  12.144 -0.0069  0.2089 -0.1907
14616W        W30425   9.113  11.984   3.822  0.0141 -0.2004  0.0687
14617W        W30426   9.242  15.813   1.208  0.0289 -0.1162  0.1987
14618W        W30427   6.833   4.255  12.749  0.2227  0.1497 -0.0061
14619W        W30428   3.035   9.337  10.859 -0.0907 -0.2248  0.2959
14620W        W30429  13.541  18.572  10.483 -0.0291 -0.0275 -0.1313
14621W        W30430  16.443   9.048   4.801  0.0807 -0.0945  0.0317
14622W        W30431   3.535  14.272   4.465 -0.0034 -0.1811  0.0505
14623W        W30432  12.666  13.366  15.291 -0.3239 -0.1642 -0.1478
14624W        W30433   6.969  10.660  12.028  0.0883  0.1308  0.0468
14625W        W30434   6.533  17.165   4.632  0.0527  0.0155  0.2389
14626W        W30435   7.888  13.403   1.119  0.0326  0.1688  0.0097
14627W        W30436   7.548  15.806   5.580  0.0585  0.0516  0.1351
14628W        W30437  14.377  16.195  15.317 -0.2112 -0.1518 -0.1579
14629W        W30438  14.788   6.083   5.174  0.0262  0.1779 -0.0470
14630W        W30439   5.009   9.038   4.429  0.1523  0.1473  0.1363
14631W        W30440  10.100  10.531   0.309 -0.1604  0.0945 -0.3272
14632W        W30441   5.613   6.536   3.481  0.0465  0.0200  0.1531
14633W        W30442  17.612   5.310   0.991 -0.2325  0.2261  0.0700
14634W        W30443  16.645   7.235   3.787  0.2574  0.1933  0.0912
14635W        W30444  12.281   8.613   0.431 -0.4013  0.0416  0.0925
14636W        W30445   6.629  14.943  13.687  0.0287 -0.1463  0.0601
14637W        W30446   5.159  11.651   4.628 -0.1556  0.0087 -0.1861
14638W        W30447   8.187  17.957   1.007 -0.2351  0.0170  0.3008
14639W        W30448   5.244   1.195  12.983 -0.0372  0.2493  0.0626
14640W        W30449  13.403   2.948  12.979 -0.0770  0.5057 -0.0386
14641W        W30450   4.390   3.125  12.337 -0.1496 -0.1507 -0.0249
14642W        W30451   0.996  12.581   1.367  0.2898 -0.2396  0.1432
14643W        W30452   8.823  13.833  12.869 -0.3063 -0.3873 -0.1719
14644W        W30453  15.017   7.578   0.563 -0.0534  0.4882  0.1290
14645W        W30454   5.848  14.557  13.322  0.0028 -0.2319  0.0806
14646W        W30455   6.825   4.251   2.875  0.1888 -0.1369 -0.0261
14647W        W30456  18.061   1.283  15.029 -0.0942  0.1242  0.1442
14648W        W30457  12.004   9.582   3.614  0.0060  0.0179  0.0165
14649W        W30458  12.796   0.685  13.070 -0.0744  0.0583  0.0979
14650W        W30459   6.147  13.076  14.181 -0.1504  0.0330 -0.0225
14651W        W30460   9.522   4.465  15.010 -0.2431  0.1099 -0.0883
14652W        W30461  16.937  18.645  11.405 -0.2472 -0.0232 -0.3046
14653W        W30462  16.809   9.538  13.297  0.0073 -0.1506  0.3418
14654W        W30463  13.047  13.616  13.336 -0.1299  0.3581  0.0162
14655W        W30464   8.295   9.661   0.630  0.2684  0.0519 -0.1844
14656W        W30465   7.832   2.978   2.384 -0.1387  0.0476  0.0706
14657W        W30466   3.981  11.396   3.136  0.1788  0.0648  0.0969
14658W        W30467  14.021   2.667   0.384  0.0544 -0.1573  0.1313
14659W        W30468  13.723  13.071  11.230  0.2580  0.0587  0.0091
14660W        W30469  12.265   4.569   3.104 -0.2282  0.0497  0.2615
14661W        W30470   6.880  11.398  11.069 -0.0410 -0.0968 -0.1282
14662W        W30471   8.462   6.709  11.562  0.0018  0.1658  0.0991
14663W        W30472   7.688  15.112   0.803 -0.2787 -0.3037  0.0680
14664W        W30473  15.969  11.514   9.287  0.1021  0.0424  0.0125
14665W        W30474   1.762  17.917  13.375  0.1291  0.0183  0.0177
14666W        W30475   2.844   0.425   4.405  0.0184 -0.0816 -0.1097
14667W        W30476  15.797  17.029   4.750 -0.0658 -0.0452 -0.0540
14668W        W30477  12.263   0.132   0.589 -0.1362  0.0341 -0.4017
14669W        W30478   3.509  14.431   4.990 -0.1414 -0.1335  0.1700
14670W        W30479   9.868  18.431  10.420  0.2677  0.1616 -0.2131
14671W        W30480  18.595  10.212  13.037  0.3041  0.3299 -0.1351
14672W        W30481  12.528   6.654  11.824 -0.0165 -0.1875  0.2592
14673W        W30482   1.021   2.244   1.752  0.0606  0.0227  0.2876
14674W        W30483  17.316  18.256  12.476  0.2445  0.4354 -0.0674
14675W        W30484   9.010   9.220   3.320 -0.1659 -0.3455 -0.0241
14676W        W30485   0.629   0.377   0.672  0.2899  0.0906  0.2921
14677W        W30486   7.392   1.206   3.724 -0.1803  0.0575  0.0270
14678W        W30487  11.307  10.305  10.142 -0.0334  0.0488  0.3073
14679W        W30488   2.176  16.444   5.057 -0.1083  0.0940  0.3005
14680W        W30489   4.326  13.032  14.478 -0.0760 -0.1455 -0.0989
14681W        W30490  13.468   6.017   1.612  0.1461  0.0543  0.1474
14682W        W30491   6.229   0.535  14.754 -0.0938 -0.2017 -0.1491
14683W        W30492   7.189  11.617  12.979  0.2050  0.1361  0.0454
14684W        W30493   0.739   3.924   3.661  0.3008 -0.1204 -0.0237
14685W        W30494   6.369   7.145   1.273 -0.1039  0.1830 -0.3799
14686W        W30495  15.752   5.003  13.247 -0.0892  0.0931  0.1766
14687W        W30496  13.305  12.132  12.808  0.0753 -0.0937 -0.1419
14688W        W30497   4.386   2.559   4.537  0.1609  0.1624 -0.0037
14689W        W30498  11.845   8.792   0.636  0.0818  0.1267  0.2905
14690W        W30499  10.777  15.924   5.787  0.0530 -0.0290 -0.1333
14691W        W30500  10.754  18.034  12.571 -0.2446  0.0048  0.2392
14692W        W30501   3.165  14.619   4.547  0.1590  0.0050 -0.0241
14693W        W30502   4.476  12.949  13.318 -0.2980 -0.1776  0.2324
14694W        W30503  18.847  18.508  11.774  0.2223  0.0740 -0.0356
14695W        W30504   0.032  14.839   1.694  0.1365 -0.1685 -0.2991
14696W        W30505  10.036  15.439  13.568  0.0083 -0.2813 -0.1152
14697W        W30506   8.645   7.665  13.360  0.0730  0.1256 -0.0154
14698W        W30507  13.824   6.404   4.863 -0.0622 -0.0753  0.2912
14699W        W30508   8.307   2.794   3.817 -0.1585  0.1603  0.1227
14700W        W30509  17.737  12.652   4.661 -0.0441 -0.1071  0.4842
14701W        W30510   7.131   6.271   5.554 -0.1715  0.0449 -0.0852
14702W        W30511   2.891  10.221   2.333  0.1150 -0.0958 -0.3934
14703W        W30512   6.066   4.818   0.613 -0.1383  0.0699 -0.0810
14704W        W30513  11.505   0.788   0.017 -0.2083  0.0673  0.0749
14705W        W30514  13.566   3.385   0.248 -0.2715 -0.0927  0.0898
14706W        W30515   1.818   6.682  11.007 -0.0152 -0.2626  0.0113
14707W        W30516   0.628  11.275  14.249 -0.1688  0.4760  0.1036
14708W        W30517  18.498   8.913   1.375  0.0974  0.0166  0.0909
14709W        W30518  14.730  14.016  13.504  0.1177  0.1210  0.2491
14710W        W30519  11.894   7.080   2.048  0.1989 -0.3089 -0.1110
14711W        W30520  10.869  18.653  12.024 -0.2811 -0.1735  0.1401
14712W        W30521   9.022  11.630  12.953 -0.1297 -0.0757 -0.1061
14713W        W30522  13.519   8.230   1.742  0.4954 -0.1601 -0.2446
14714W        W30523  13.077  10.877   3.216 -0.1899 -0.0987 -0.0061
14715W        W30524  15.045  13.314   5.200 -0.1623  0.0651 -0.0448
14716W        W30525   9.979   8.987   3.417 -0.0939 -0.1286  0.1879
14717W        W30526   7.265  13.772   2.742 -0.0580 -0.0445 -0.2162
14718W        W30527   5.189   1.464  13.929  0.0372 -0.0569  0.1379
14719W        W30528   6.548  12.051   2.718 -0.3622  0.2776 -0.1122
14720W        W30529   1.563  10.162   0.010 -0.2406  0.1974  0.0070
14721W        W30530   4.205   5.020  15.337  0.0445 -0.1147 -0.2386
14722W        W30531   6.999   7.974  11.967 -0.0874  0.0663  0.0714
14723W        W30532  10.059  16.631  11.080  0.1396 -0.1563  0.2125
14724W        W30533   0.960   0.870   5.506  0.1409  0.1723 -0.0492
14725W        W30534   5.649   7.422   1.011  0.1432 -0.2496  0.1815
14726W        W30535   3.045   3.412  13.575 -0.1609  0.2184 -0.2152
14727W        W30536  18.614   9.819   6.088 -0.2134  0.1495 -0.0638
14728W        W30537  12.411  14.991  10.333 -0.1416 -0.2028 -0.1737
14729W        W30538  18.484  11.496  15.179 -0.0950 -0.1213 -0.0968
14730W        W30539   9.163  11.681   1.911  0.3693 -0.2726 -0.1095
14731W        W30540   1.613   2.548   5.281  0.0193  0.0942  0.2171
14732W        W30541  13.099  10.943  15.070  0.2516 -0.2653  0.1772
14733W        W30542   7.349   2.440   0.104 -0.5713  0.1673  0.1856
14734W        W30543   6.198  14.332   3.014  0.0500 -0.2715 -0.2021
14735W        W30544   8.148  17.932  15.182 -0.2345 -0.3150  0.0192
14736W        W30545  13.795  10.343  10.950  0.1654 -0.0102 -0.0183
14737W        W30546   7.780  17.149   0.622 -0.0912 -0.1409 -0.1372
14738W        W30547   5.924  17.796   2.818 -0.0980  0.3537 -0.1314
14739W        W30548   9.168  12.686   5.143  0.0400 -0.0757  0.0833
14740W        W30549  18.126  15.235  12.983 -0.0581  0.1228  0.1646
14741W        W30550  14.969   1.660   0.621  0.0125 -0.1961  0.1269
14742W        W30551  18.807   4.655   0.180  0.0615  0.1951 -0.0557
14743W        W30552  12.257   4.237  12.318  0.0459  0.1456  0.0172
14744W        W30553  18.746   7.300   3.762 -0.0821 -0.2695 -0.0462
14745W        W30554  15.725   2.263  13.119 -0.0782 -0.0250  0.0348
14746W        W30555   7.187   7.017   0.248  0.0536  0.1701  0.1611
14747W        W30556  15.754   0.205  14.508  0.0538 -0.0312  0.2714
14748W        W30557  14.661  11.077  15.048 -0.0545  0.1235  0.0311
14749W        W30558   3.291  18.690   0.834 -0.0659 -0.2908  0.2183
14750W        W30559  17.688   3.988  12.597 -0.0825 -0.0242 -0.0879
14751W        W30560   6.209   8.662  14.592 -0.2118 -0.1966 -0.0546
14752W        W30561  14.694  16.033  11.861  0.1151  0.0147 -0.1249
14753W        W30562  14.565   8.310   0.865  0.3593  0.2825  0.3395
14754W        W30563  14.226   2.297  15.000 -0.2182 -0.1569 -0.0642
14755W        W30564  12.502   7.078  11.535 -0.1983 -0.2079 -0.0005
14756W        W30565   5.813   4.608   0.989  0.1130 -0.2845 -0.1057
14757W        W30566   9.569  16.282   3.302 -0.1651 -0.3445 -0.1970
14758W        W30567   8.004   6.967   3.825  0.0706 -0.0697  0.1768
14759W        W30568  12.631   1.486  11.368 -0.0009 -0.1300 -0.0356
14760W        W30569  14.530  18.283  14.812 -0.1146  0.1946 -0.0078
14761W        W30570   8.582  17.603   0.718 -0.0141  0.1149  0.4015
14762W        W30571   8.992   4.656   0.444  0.0646 -0.0607 -0.3280
14763W        W30572   1.791   9.764   1.104  0.2290 -0.0549  0.1422
14764W        W30573   8.249  14.425  12.829 -0.0972  0.0202 -0.1183
14765W        W30574   0.280  12.434  11.725 -0.3753 -0.0616 -0.1073
14766W        W30575   4.380   2.410  11.497  0.1204  0.1770 -0.2318
14767W        W30576   0.697   1.387   2.169  0.1232  0.3428  0.2158
14768W        W30577   1.608  16.414  10.855 -0.2550 -0.0067  0.3940
14769W        W30578   3.887   6.493  14.396  0.2284  0.0376  0.0925
14770W        W30579   5.493  18.268  11.263 -0.1157 -0.1691 -0.1186
14771W        W30580   7.153   8.313   0.263  0.0293  0.3468  0.0577
14772W        W30581   6.418   7.234   2.281 -0.2464 -0.0183  0.2017
14773W        W30582  17.424   4.325   5.392 -0.4203  0.0825  0.0555
14774W        W30583  17.643   1.264   3.960 -0.4753 -0.0234  0.0625
14775W        W30584   8.416   6.419   2.862  0.0013 -0.1318 -0.0319
14776W        W30585  13.053   7.054   2.828  0.0257 -0.0340 -0.2293
14777W        W30586   9.059  17.581  10.989 -0.0086  0.0534  0.2605
14778W        W30587  12.393   2.362  12.356 -0.1642 -0.1012 -0.3549
14779W        W30588  16.304  13.938   1.284  0.2379  0.2626 -0.0774
14780W        W30589   6.534   3.126   1.895 -0.0331  0.2017  0.0449
14781W        W30590  13.145  15.757   3.212 -0.4007 -0.0546  0.0367
14782W        W30591  13.512  11.496   2.550 -0.2916 -0.3900 -0.0052
14783W        W30592  17.793  16.566  13.936  0.2587 -0.0406  0.1282
14784W        W30593   7.402   1.646   2.431  0.2125 -0.1811 -0.0488
14785W        W30594   6.069  18.835   1.372  0.2211  0.0275  0.2149
14786W        W30595  10.027  12.410   2.491 -0.2416 -0.4685 -0.3795
14787W        W30596   3.769  11.022   4.631 -0.1239 -0.0860 -0.0693
14788W        W30597  13.132   6.503  14.858  0.0699 -0.0566 -0.1909
14789W        W30598   2.251  13.399   0.671  0.1648  0.1944 -0.0859
14790W        W30599   2.652  14.606  14.606 -0.1547 -0.0048 -0.2411
14791W        W30600  18.303  10.985   0.375  0.0272 -0.0785 -0.3409
14792W        W30601   2.501   3.477   5.732 -0.1260  0.2249  0.3663
14793W        W30602   8.718  17.662   4.594 -0.2585 -0.0079  0.1773
14794W        W30603   3.800   1.575   1.170  0.1694  0.3105 -0.1516
14795W        W30604   1.648   1.639  14.719 -0.1763 -0.4616 -0.2966
14796W        W30605   1.037   8.034  10.448 -0.1866  0.4782 -0.1888
14797W        W30606   2.394   4.568  14.355 -0.0457  0.2035  0.1299
14798W        W30607   0.977   7.105  15.422  0.2772  0.1539  0.1027
14799W        W30608   5.237   3.593   2.449  0.0033 -0.0080  0.1776
14800W        W30609  13.025  12.600   0.499 -0.3860 -0.0309  0.1925
14801W        W30610   0.668  15.898  10.961 -0.0061 -0.0696 -0.1447
14802W        W30611  14.106   5.443   4.945  0.1017 -0.0117 -0.1057
14803W        W30612   0.743   5.875   4.130  0.3337  0.0091  0.3384
14804W        W30613   9.415  11.116  15.245  0.3512  0.3784  0.0289
14805W        W30614   2.379  17.382  15.427 -0.1059  0.1756 -0.2594
14806W        W30615  10.374   9.448  10.658  0.1380  0.1624  0.0065
14807W        W30616  18.690  12.115   0.974 -0.0272  0.1100  0.1177
14808W        W30617  11.727   8.726   1.575 -0.1413 -0.0741  0.3239
14809W        W30618   2.098  13.858  12.565 -0.1907  0.0489  0.0339
14810W        W30619  11.994   9.771   0.478 -0.1233 -0.0469 -0.1850
14811W        W30620   0.120  16.981   2.969  0.1173 -0.2324 -0.0399
14812W        W30621   8.251   4.101  11.872  0.0356  0.0767 -0.0956
14813W        W30622   2.247   8.292   3.716  0.1877 -0.2885 -0.0740
14814W        W30623  18.102  16.571   3.233  0.0338 -0.1708 -0.0288
14815W        W30624  12.911  10.940  14.236  0.3089 -0.2229  0.1639
14816W        W30625   2.935  15.258  13.246  0.1203  0.1496 -0.0193
14817W        W30626  17.454  14.113   1.846 -0.3931 -0.0324 -0.3414
14818W        W30627   5.095  18.611   0.358 -0.3619 -0.0020  0.2956
14819W        W30628   1.657  10.554  15.067  0.2277 -0.0984  0.4358
14820W        W30629   1.737  16.932   3.849  0.1899 -0.1156  0.2601
14821W        W30630   7.482  18.558  11.040  0.0864  0.1127 -0.0505
14822W        W30631  16.239   4.065  15.048 -0.1965  0.1160  0.2129
14823W        W30632   1.988   1.221  11.534 -0.0704 -0.4294  0.0602
14824W        W30633  15.291  18.448  12.376  0.0174  0.2509 -0.1221
14825W        W30634  18.496   7.095   2.254  0.1122 -0.0350  0.0068
14826W        W30635   8.844   7.408   3.792  0.0933 -0.1157  0.0819
14827W        W30636  13.173   6.362  11.511 -0.1129  0.0481 -0.2072
14828W        W30637  13.476   5.605   3.585 -0.1962 -0.1979  0.1226
14829W        W30638   6.177   5.536  10.859 -0.1132  0.2996 -0.5040
14830W        W30639   0.505   0.347   4.815  0.4851  0.1466  0.1901
14831W        W30640  13.305  12.386   1.440 -0.0968  0.3730  0.3554
14832W        W30641   7.049   9.151   3.432 -0.0266  0.0722  0.0449
14833W        W30642  14.673  16.139  13.796 -0.2538  0.1228 -0.0899
14834W        W30643  11.124   9.288  12.092 -0.0014 -0.3274  0.0144
14835W        W30644  10.789  11.039   2.725  0.1079 -0.0591  0.1298
14836W        W30645   1.358   5.657   2.364 -0.0484  0.2468 -0.0893
14837W        W30646   0.425   5.136   3.852 -0.1688  0.0471  0.3272
14838W        W30647  18.074  13.607   3.182  0.1765 -0.2940  0.2470
14839W        W30648   1.962   0.362   2.516 -0.1334  0.2443 -0.3973
14840W        W30649  16.965   5.401  14.562  0.2758 -0.2974  0.3444
14841W        W30650  15.221   2.770   1.972  0.2852 -0.2916 -0.2041
14842W        W30651   8.482  18.398  14.685 -0.1367 -0.0855  0.2084
14843W        W30652   2.901  17.661   2.139 -0.0707 -0.0867  0.2062
14844W        W30653   9.946  15.235   1.730 -0.0881 -0.0793  0.1956
14845W        W30654   8.982   9.654  13.441 -0.2509  0.2377  0.0676
14846W        W30655  18.313   4.316  12.616 -0.1231  0.0026 -0.0487
14847W        W30656   1.502  16.210   4.409  0.1828 -0.1476  0.1505
14848W        W30657   1.896   2.377  13.327 -0.3782 -0.0384  0.1237
14849W        W30658   7.109   4.011   5.671  0.2181  0.0962  0.0677
14850W        W30659   4.376  17.004   2.766 -0.0913  0.0203 -0.1466
14851W        W30660  15.916  10.025   5.776 -0.3369  0.0732 -0.0967
14852W        W30661   5.147   2.397   1.313 -0.1504 -0.1396 -0.0269
14853W        W30662  14.024  17.278  12.986  0.0145  0.0844 -0.2800
14854W        W30663   5.001   4.504   5.572 -0.2130  0.0640 -0.2041
14855W        W30664   1.287   9.071  13.149  0.0556 -0.0509 -0.0425
14856W        W30665  10.149   4.413   1.109 -0.0946 -0.3172  0.3385
14857W        W30666   8.536  16.500  10.826  0.1000 -0.0741  0.3180
14858W        W30667   3.452   3.896   4.905  0.2525 -0.0129 -0.0076
14859W        W30668   1.513  18.714  12.654 -0.1725 -0.1457 -0.2861
14860W        W30669  16.717  12.100   0.538 -0.0378 -0.0025  0.0925
14861W        W30670  12.265  13.932   2.316  0.1596 -0.1369 -0.1948
14862W        W30671  12.296  12.490   3.869 -0.2564  0.1612  0.4433
14863W        W30672   7.523   9.732  13.099 -0.2757 -0.1082 -0.1311
14864W        W30673  13.859   7.251  10.990  0.1633  0.0179 -0.1806
14865W        W30674   1.864  14.222  15.128 -0.2245  0.1180  0.0551
14866W        W30675  18.668   9.395   3.012  0.0765  0.2328  0.2266
14867W        W30676   9.699  16.663  14.983  0.1997  0.2367  0.0756
14868W        W30677  12.855  14.236  11.997  0.2109 -0.0903 -0.2021
14869W        W30678   7.149  12.910  14.114  0.1328 -0.2005 -0.2923
14870W        W30679   0.137  13.268  13.918  0.1940  0.0804 -0.1687
14871W        W30680  17.665  11.955  14.858 -0.1331  0.2400 -0.2488
14872W        W30681   6.685  15.791   1.438  0.0134  0.1464  0.1464
14873W        W30682   3.652   2.306   1.390  0.1726  0.1322 -0.2820
14874W        W30683  10.843   1.577   3.318  0.0012  0.3145 -0.0912
14875W        W30684   8.777  14.946   3.587 -0.0395 -0.2797 -0.1529
14876W        W30685  10.220  16.529  13.045 -0.0427 -0.1777  0.1392
14877W        W30686   7.244   3.519   0.696 -0.2614  0.2492  0.0087
14878W        W30687  12.915  11.526  15.264 -0.3005 -0.2662  0.0572
14879W        W30688  12.906   0.557   0.243 -0.3040  0.0401  0.0733
14880W        W30689   8.809  13.407  13.081  0.0171 -0.2365  0.0483
14881W        W30690   9.113   4.161  15.042 -0.0991 -0.2306  0.1525
14882W        W30691   3.456   4.912  10.714  0.2074 -0.0585  0.3705
14883W        W30692   0.187   3.648   1.735  0.1488  0.0104  0.4306
14884W        W30693   7.906  17.656  13.174  0.3393  0.0149 -0.2106
14885W        W30694  18.403   1.008   0.502  0.3717 -0.0523 -0.1241
14886W        W30695   0.406  14.572  12.189 -0.0359 -0.1670 -0.1008
14887W        W30696   4.794  12.056  12.531 -0.0124 -0.1483 -0.2766
14888W        W30697   6.645  14.171  12.056  0.0275  0.3105 -0.1779
14889W        W30698  17.769   5.021   3.163  0.0713 -0.2336  0.2120
14890W        W30699   4.651   7.907  11.420 -0.1455  0.1174 -0.0332
14891W        W30700  15.744   4.735   3.067 -0.2364 -0.0383  0.1858
14892W        W30701  13.712   4.922   1.123  0.3080  0.2229  0.0225
14893W        W30702  18.179   4.806   2.926  0.0355 -0.4191 -0.2838
14894W        W30703  13.344   6.575   4.476  0.1520 -0.0700 -0.2751
14895W        W30704  14.901   9.163  10.390 -0.0199  0.0917 -0.1482
14896W        W30705  13.482   4.354   4.823 -0.1831 -0.0780  0.0131
14897W        W30706   7.596   9.856   9.293  0.2897  0.0580  0.1343
14898W        W30707   6.078   2.912   2.007 -0.2273 -0.2235 -0.0568
14899W        W30708   7.603   0.102  11.113  0.2672  0.3509 -0.1434
14900W        W30709   5.183  10.430   4.009 -0.2771 -0.0433 -0.0250
14901W        W30710   2.571   4.371   2.397 -0.0463  0.2310  0.1552
14902W        W30711  16.791   8.347   2.292 -0.0690 -0.0717  0.1281
14903W        W30712  17.587  14.234   3.613 -0.2704 -0.2607 -0.2792
14904W        W30713   6.001   9.457   2.075 -0.2032  0.0003 -0.3987
14905W        W30714   6.231  13.619  12.688 -0.1080 -0.3754  0.0612
14906W        W30715   0.278   1.192   4.883  0.2593 -0.0803 -0.0458
14907W        W30716   1.090   3.193  13.966  0.1222  0.1314  0.1470
14908W        W30717   9.218   6.507   1.513  0.2066  0.1982 -0.1596
14909W        W30718  16.496   0.379  12.180  0.1461  0.1139  0.1317
14910W        W30719   6.776  15.489   4.444 -0.1591  0.1774 -0.1747
14911W        W30720   2.783   1.149   2.142  0.0008  0.3244  0.3491
14912W        W30721  10.327   5.795   1.689  0.1015 -0.1985 -0.1206
14913W        W30722   6.956   8.617  11.148 -0.0082  0.2678 -0.1161
14914W        W30723  12.734  16.780   2.398 -0.0007  0.1921  0.1016
14915W        W30724  13.506   8.428   4.042  0.3765 -0.2335 -0.2548
14916W        W30725   9.165   0.164   2.908 -0.1296 -0.0971 -0.3377
14917W        W30726  12.138   5.056   4.873 -0.0676  0.0066 -0.1510
14918W        W30727  13.659   3.739   3.731  0.0117  0.2640  0.3427
14919W        W30728   4.646   9.490  12.531  0.1626  0.1607 -0.0600
14920W        W30729   2.231  15.581   2.620 -0.1996  0.1112 -0.0774
14921W        W30730   6.905   9.891  13.879  0.2084 -0.1012  0.0175
14922W        W30731  12.014   0.750  14.226 -0.0823  0.2116  0.3355
14923W        W30732  18.398   6.794  12.955  0.1371 -0.2625  0.1102
14924W        W30733  17.020   4.191   5.913  0.3120 -0.1054  0.1665
14925W        W30734   5.562   7.103   0.253  0.1909 -0.1141  0.0343
14926W        W30735   2.815   5.507  14.379  0.2159 -0.1500  0.3616
14927W        W30736   0.464   5.443   1.048  0.0779 -0.0705  0.3332
14928W        W30737  16.967   8.521   3.223  0.3290  0.1173 -0.0221
14929W        W30738   2.695   1.849   1.437  0.0849  0.0619  0.0947
14930W        W30739  10.070   6.288  11.527  0.4042 -0.0622 -0.2171
14931W        W30740   2.950  11.160   1.804 -0.0799 -0.0230 -0.0200
14932W        W30741   7.617   8.460   0.155  0.1356 -0.1358 -0.0169
14933W        W30742  14.839  16.162  13.220  0.1680  0.2590 -0.0388
14934W        W30743  18.690   6.483  13.192 -0.0137  0.0069 -0.1138
14935W        W30744   6.528  15.795  13.466  0.1760  0.1945 -0.0847
14936W        W30745   7.488  12.973   3.801  0.1727 -0.1514 -0.2180
14937W        W30746   2.411   4.390  12.956  0.0473 -0.0636 -0.0948
14938W        W30747  10.197  18.345  14.338 -0.0818  0.1366 -0.1453
14939W        W30748  13.054   2.560   1.618  0.3312  0.1221  0.1018
14940W        W30749   4.973   8.386   5.274 -0.2951  0.0828 -0.0014
14941W        W30750   3.613   6.385  14.794  0.2009 -0.0304  0.2538
14942W        W30751  11.023  16.486  13.280 -0.3733 -0.1562  0.2042
14943W        W30752  17.447   3.022  10.269  0.1107 -0.0608  0.1783
14944W        W30753   4.590   7.512  12.475  0.0663 -0.0727 -0.2169
14945W        W30754   7.330   9.734   2.721 -0.1861 -0.0811 -0.0355
14946W        W30755  16.232   5.074  10.677  0.0399 -0.4006  0.4238
14947W        W30756   7.658   1.067   3.194  0.0641  0.0811  0.1505
14948W        W30757   5.266   7.569   3.138 -0.0786  0.0407 -0.0418
14949W        W30758  10.549  18.328   3.036  0.1402 -0.0860 -0.1653
14950W        W30759   9.422  14.882   0.378 -0.0661  0.2140  0.0006
14951W        W30760   9.179   3.370   0.069 -0.1884 -0.1406 -0.2820
14952W        W30761  12.437   3.877  14.281  0.0207  0.5861  0.1043
14953W        W30762  17.368   3.993  13.433 -0.1458 -0.0904  0.3248
14954W        W30763  15.676  16.136   2.497 -0.0246  0.0442  0.1423
14955W        W30764  16.577  10.525   2.118 -0.1030  0.1173  0.1544
14956W        W30765  13.476   6.495  13.869  0.2011 -0.1561 -0.1593
14957W        W30766   6.876  18.195   0.887 -0.0709  0.3754 -0.1319
14958W        W30767  18.613   4.525  14.239  0.1911  0.1033  0.1897
14959W        W30768  18.044   0.216   2.803  0.3461  0.1917  0.0724
14960W        W30769   6.521  13.287   2.803  0.2894  0.3210  0.2032
14961W        W30770  15.054   1.427  10.946 -0.1108  0.4332 -0.0442
14962W        W30771   0.852   2.216   2.563 -0.0250  0.0090  0.2378
14963W        W30772  12.609  10.211   1.043  0.0518  0.0045  0.2222
14964W        W30773  18.904  10.890  11.919 -0.4499  0.1227 -0.0091
14965W        W30774  13.671   1.226   1.318  0.2455  0.0165 -0.1206
14966W        W30775   0.540  14.562   0.101  0.4170  0.1320 -0.2503
14967W        W30776   1.247  16.755   1.720  0.1774 -0.2106 -0.1259
14968W        W30777   2.572   6.615   4.211 -0.2447 -0.0156 -0.1222
14969W        W30778   8.546  10.691   2.267 -0.1744  0.1699  0.0194
14970W        W30779  15.747   1.013   3.397 -0.3553  0.2720 -0.0267
14971W        W30780   6.436   9.607   2.970 -0.1877  0.0796  0.0529
14972W        W30781   6.921   1.403  13.593  0.0172 -0.1795  0.1258
14973W        W30782   8.264  14.476  12.139 -0.1388  0.2000  0.2305
14974W        W30783  18.696   4.215   4.294  0.3982  0.0485  0.3100
14975W        W30784   6.689   0.696  12.693  0.2172  0.0931 -0.1089
14976W        W30785  11.527  17.235  11.219  0.1421  0.0486  0.0383
14977W        W30786   9.718   4.107  15.380  0.0453  0.1672  0.0336
14978W        W30787  14.875  14.631  12.103  0.4667  0.0313  0.2588
14979W        W30788  15.613   7.077  14.328  0.0190  0.3176 -0.0989
14980W        W30789  13.965  13.910   0.241  0.0181  0.0204 -0.0038
14981W        W30790   3.931   9.613  11.378  0.1334 -0.1939 -0.4337
14982W        W30791   7.107  10.526   5.013 -0.0737 -0.0332  0.0617
14983W        W30792   7.126   8.912   2.631  0.2962  0.1157  0.1045
14984W        W30793  17.682   1.508  11.068  0.2183  0.0141 -0.0079
14985W        W30794  12.690   9.426   3.470 -0.0071 -0.4397  0.4448
14986W        W30795   1.480   8.967  14.863 -0.1850  0.1765  0.2809
14987W        W30796   2.842   2.414   1.760  0.0217  0.1446  0.0821
14988W        W30797   6.494   9.451  10.554  0.2938  0.0306 -0.2060
14989W        W30798  18.709   4.011  11.281  0.2143  0.0668 -0.2008
14990W        W30799  12.484   5.720   2.395 -0.2607 -0.0928  0.1833
14991W        W30800   3.017  16.379   4.614 -0.3067 -0.1425  0.3193
14992W        W30801   8.945  15.096  12.626 -0.2671 -0.4070  0.2858
14993W        W30802  12.248  12.928   0.962 -0.0291 -0.0136  0.1472
14994W        W30803  10.756   8.421   2.632  0.0907  0.1024 -0.3609
14995W        W30804   2.460   5.640  11.766 -0.0334 -0.3730 -0.0226
14996W        W30805   4.837   3.462   0.638 -0.0779 -0.2872  0.1267
14997W        W30806  15.516  17.198  15.175  0.1985  0.0650  0.2345
14998W        W30807  12.321   7.900   2.041  0.4489  0.3312  0.0777
14999W        W30808   4.407   0.978  12.949 -0.2091  0.1009  0.1213
15000W        W30809  14.714  12.651   0.725 -0.0118 -0.2150  0.0870
15001W        W30810  13.853  13.584  13.734 -0.0685 -0.2756 -0.2028
15002W        W30811  15.463  12.803   1.319  0.0249  0.5737  0.2337
15003W        W30812  13.910   2.111   1.052  0.2037 -0.5282 -0.1620
15004W        W30813   7.540   0.794  13.110 -0.3721  0.2420 -0.0385
15005W        W30814   2.698  10.498   2.953  0.2426 -0.1163  0.1068
15006W        W30815   9.136  12.370   3.468  0.1438  0.0382  0.0504
15007W        W30816  10.984   4.538   2.158 -0.2175  0.2971 -0.2686
15008W        W30817  14.615  12.079  15.327  0.0780 -0.0062  0.2557
15009W        W30818  16.153   8.673  14.948  0.1164 -0.2029  0.3794
15010W        W30819   2.777  17.998  13.604  0.3222  0.1426 -0.2899
15011W        W30820  17.301  17.519   0.183 -0.1624  0.0316  0.0686
15012W        W30821   8.765  13.281   2.213 -0.1476 -0.0313  0.3626
15013W        W30822  18.396  12.459  11.120 -0.1123 -0.0688 -0.0612
15014W        W30823   7.816   7.625  13.048  0.1272  0.2939 -0.1687
15015W        W30824  17.382  13.716   3.378 -0.0466  0.1692  0.3789
15016W        W30825  17.196   9.357   2.591  0.1331  0.2316  0.2200
15017W        W30826   1.958   0.894  13.789  0.0432 -0.1217  0.1756
15018W        W30827  18.267   1.357  10.662 -0.0330 -0.0069  0.0409
15019W        W30828   2.639  18.534   1.396  0.4351 -0.0496 -0.1460
15020W        W30829  15.887   1.434   2.126 -0.4297 -0.1009  0.0317
15021W        W30830   6.226  15.307  14.790  0.3581 -0.1648  0.1414
15022W        W30831  13.337   6.212   5.851  0.1468  0.0016 -0.0662
15023W        W30832   0.806   8.720  11.255 -0.2142  0.1288 -0.4092
15024W        W30833  10.138   8.914  11.260  0.0597  0.2948 -0.0066
15025W        W30834   7.172   2.879   3.032 -0.0916 -0.2507 -0.1629
15026W        W30835  12.741  17.780  12.880  0.2308 -0.3454 -0.0468
15027W        W30836  14.258  13.092  13.872  0.2201  0.0434 -0.1123
15028W        W30837  14.914  16.638   4.504 -0.1203  0.2424  0.3407
15029W        W30838   5.763   4.735   4.254 -0.0791 -0.0482 -0.0859
15030W        W30839  14.036   5.333   9.855 -0.1245  0.0128 -0.2221
15031W        W30840   0.780   2.867   2.159  0.1156 -0.0662 -0.2569
15032W        W30841   8.698   3.349   5.146 -0.1256 -0.0306  0.0694
15033W        W30842  14.060   3.407   0.939  0.2225 -0.1364 -0.0256
15034W        W30843  15.822  10.969   2.315  0.1583 -0.1786  0.1219
15035W        W30844   4.961  16.547  14.822 -0.0489  0.1935  0.1709
15036W        W30845   2.817  10.278  13.383  0.1384 -0.2025  0.0581
15037W        W30846   7.852  15.950   5.202  0.0761  0.2816  0.1412
15038W        W30847   2.856   7.061   0.200  0.3474  0.2194  0.2135
15039W        W30848   5.686   2.263   4.315  0.0118  0.3567  0.4508
15040W        W30849  13.978  12.674   2.508 -0.0649 -0.0400 -0.2727
15041W        W30850  13.226  15.247  12.645 -0.1014 -0.2160 -0.0245
15042W        W30851  16.235   0.692  13.697  0.3690  0.3361 -0.0132
15043W        W30852   3.582  12.456  14.716 -0.0677 -0.0392  0.0292
15044W        W30853   1.562  11.135   0.945 -0.1856  0.0677 -0.1016
15045W        W30854   1.228  18.127   0.171  0.3462  0.1978  0.0427
15046W        W30855   6.974   0.462  14.005 -0.1399 -0.0850  0.0666
15047W        W30856   3.751  13.799   2.754  0.1966  0.0968 -0.0644
15048W        W30857  15.284   2.008   0.454  0.3570  0.1784  0.2568
15049W        W30858  17.318  18.364  14.032  0.1818  0.1104 -0.4619
15050W        W30859  12.342   9.423  10.708 -0.1701 -0.1221 -0.1031
15051W        W30860  13.173  14.117  13.363 -0.3727 -0.0907 -0.4026
15052W        W30861  12.056  17.347  13.461  0.0062 -0.1443  0.1182
15053W        W30862   8.875  14.490   1.121  0.1160 -0.0846  0.0763
15054W        W30863   0.914   2.408  13.762  0.2129 -0.0345  0.0590
15055W        W30864  13.983   9.535   6.189 -0.0690 -0.1063 -0.1001
15056W        W30865  12.665  17.364  11.334 -0.0728 -0.2990 -0.0025
15057W        W30866   0.881   0.108  12.769  0.1714  0.0807  0.0446
15058W        W30867  12.335   6.448  13.790  0.1761  0.1274 -0.2355
15059W        W30868   5.636  17.887  10.502  0.0425  0.2022 -0.1571
15060W        W30869   7.688   9.396  12.693  0.2282  0.1177  0.1491
15061W        W30870   4.812   8.229   4.692 -0.2002 -0.1193 -0.3367
15062W        W30871   5.740   0.741   4.984 -0.0661  0.0415  0.0920
15063W        W30872   0.026  18.265   5.300  0.3856 -0.0223 -0.2638
15064W        W30873  12.312  16.657   2.028 -0.0277 -0.3245  0.0696
15065W        W30874   0.125  16.491  13.063 -0.1482 -0.2093 -0.2211
15066W        W30875   4.927   5.022  13.091  0.0141  0.0467 -0.1138
15067W        W30876   3.671  17.304  14.495 -0.1793 -0.1195 -0.2202
15068W        W30877   5.614   8.772   1.500  0.1013 -0.0313  0.1670
15069W        W30878  11.658  17.175  10.686 -0.0604  0.0505  0.0630
15070W        W30879  13.256   6.494  12.474 -0.3875 -0.0680 -0.2770
15071W        W30880  14.860  13.794   1.595  0.0967 -0.0894 -0.0094
15072W        W30881   8.113  17.523   0.499 -0.1710 -0.2186 -0.2352
15073W        W30882   0.966   0.435   3.712  0.1315  0.0465 -0.1937
15074W        W30883   0.862  18.445   5.053 -0.2483 -0.0691  0.0008
15075W        W30884  13.535   6.463  15.307  0.1560 -0.0932  0.1182
15076W        W30885  10.843   6.566  12.621  0.0037  0.0485  0.3108
15077W        W30886   0.479  11.958  13.502 -0.0996 -0.0564 -0.2076
15078W        W30887  18.409   5.495   1.480  0.0393 -0.0575 -0.3797
15079W        W30888  12.596  18.594   5.403  0.5138 -0.1721  0.0337
15080W        W30889  17.244  15.116   4.812 -0.0879 -0.2143  0.0726
15081W        W30890  15.610  10.421   2.949  0.3493 -0.2061 -0.1179
15082W        W30891   8.402  15.849   4.625 -0.1184  0.1069 -0.2283
15083W        W30892   8.562   1.576  14.595  0.1228  0.2193 -0.0108
15084W        W30893  14.220  14.859   0.036  0.2520  0.0399 -0.0999
15085W        W30894  17.563   4.738   4.509 -0.0978 -0.4537 -0.1770
15086W        W30895  16.552   4.237  12.241  0.2464  0.1546  0.1911
15087W        W30896   3.046   6.765   1.474 -0.0713 -0.2083  0.3293
15088W        W30897   9.556   0.064   0.415  0.3958 -0.1489  0.1024
15089W        W30898   2.307   5.804   4.427  0.1031  0.0267 -0.1936
15090W        W30899  17.301   8.735  14.450 -0.0997  0.0286 -0.0909
15091W        W30900   3.608   7.890  11.875  0.1187  0.0289  0.0073
15092W        W30901  14.480   5.037   4.867  0.2533  0.0822 -0.0984
15093W        W30902  11.550   4.849  10.973 -0.2708 -0.1479  0.0503
15094W        W30903  14.116  15.298  12.073 -0.0538  0.0186 -0.1881
15095W        W30904  16.884  16.527  10.472 -0.0715  0.1537  0.0770
15096W        W30905   0.529  17.202  12.653 -0.0290  0.3413 -0.2743
15097W        W30906   9.583  18.366   0.336 -0.3653 -0.5307 -0.0277
15098W        W30907   0.277  16.441  15.339  0.1256 -0.1909 -0.3243
15099W        W30908   0.774  15.552   1.861  0.0910 -0.0904 -0.1124
15100W        W30909   9.887   5.981  13.683  0.0844  0.0793  0.1402
15101W        W30910  11.864  13.606  14.276 -0.2347  0.4073  0.2349
15102W        W30911   6.216  14.342   1.836 -0.4575  0.0060 -0.4710
15103W        W30912  10.214   7.322   1.965 -0.0333 -0.0889 -0.4082
15104W        W30913   4.656   3.482   3.259 -0.2124  0.1848 -0.0663
15105W        W30914   2.432   4.592   1.083  0.0558 -0.0032 -0.3866
15106W        W30915   5.496  10.538  12.270 -0.1643  0.0931 -0.1218
15107W        W30916   3.048  10.868  10.801  0.0147 -0.0978 -0.0862
15108W        W30917  18.137   7.194  12.809 -0.1199  0.1691  0.0228
15109W        W30918  10.337  14.526   5.709 -0.1636 -0.1250  0.0025
15110W        W30919  11.361   1.255  14.089  0.0802  0.0224  0.1439
15111W        W30920   9.477  12.276  13.305 -0.0190  0.1128  0.0746
15112W        W30921  11.246  14.209   4.553 -0.0626  0.4325 -0.5311
15113W        W30922   9.422  17.582  11.774  0.0535 -0.0674  0.3047
15114W        W30923   3.256   9.694   2.863  0.3572 -0.1223  0.0113
15115W        W30924   3.650  18.267  10.850 -0.3161  0.0291  0.2204
15116W        W30925   5.036   6.919  11.367 -0.0728  0.1342 -0.0711
15117W        W30926  11.267  13.278   1.499 -0.2404 -0.2183  0.1903
15118W        W30927   9.646   3.188   3.685  0.0525 -0.1604  0.0865
15119W        W30928  17.502   3.065   4.810  0.4183 -0.0717 -0.1877
15120W        W30929  11.286   1.954   5.274  0.3863 -0.1334  0.1775
15121W        W30930   1.820  16.411  10.321  0.0374  0.0241 -0.2905
15122W        W30931  10.711  11.619  10.127 -0.3540 -0.4819  0.0869
15123W        W30932   9.067   6.994  10.688 -0.2134 -0.2178  0.0523
15124W        W30933   4.988  17.916  13.541 -0.3100  0.0811  0.0757
15125W        W30934   4.257  18.725   1.831  0.0593 -0.0665 -0.3693
15126W        W30935   1.939  14.881  11.614 -0.0380  0.2986  0.0252
15127W        W30936  13.876  18.292   2.369 -0.2171  0.2149 -0.1506
15128W        W30937  18.591   8.482   3.203 -0.0077  0.0878  0.0805
15129W        W30938   9.137   2.036   0.408  0.1471 -0.0042 -0.0003
15130W        W30939  16.729  13.512   0.612  0.0516 -0.0400  0.0423
15131W        W30940   9.361  17.938   4.509 -0.1343  0.1512  0.0420
15132W        W30941  12.438   1.728   1.534  0.0702  0.0549 -0.0907
15133W        W30942   3.186   5.732  12.264  0.0776  0.2573 -0.2784
15134W        W30943  17.109  11.415   4.316  0.0441  0.0611 -0.2480
15135W        W30944  16.437   7.656  14.960  0.2466  0.2020  0.2618
15136W        W30945  14.443   1.874  12.796 -0.3558  0.0067  0.3665
15137W        W30946  14.164   3.176   4.604 -0.4029 -0.2284  0.0555
15138W        W30947  15.593  15.833   2.099  0.0840 -0.0736 -0.3384
15139W        W30948   2.667  16.735   4.271 -0.4601  0.0676  0.1594
15140W        W30949   8.735  16.311  12.970 -0.1079 -0.0889 -0.0332
15141W        W30950  11.007   0.507   1.656  0.0766 -0.0119  0.1474
15142W        W30951  11.705  10.014   5.090 -0.3571 -0.0975 -0.0867
15143W        W30952   6.199   0.563   5.167  0.0546  0.1712  0.0882
15144W        W30953   6.362  10.292   3.665 -0.1167 -0.0456 -0.0504
15145W        W30954  10.289   9.371   3.873  0.2866 -0.2419  0.0411
15146W        W30955   8.839   7.192   0.629  0.2233 -0.0347 -0.0342
15147W        W30956  10.938   2.864  10.997 -0.5104  0.1802  0.0839
15148W        W30957   6.404  10.471  10.229  0.0773  0.1940  0.0443
15149W        W30958   7.620   5.858  14.832 -0.1040 -0.1737  0.1470
15150W        W30959   2.985  12.016  10.069  0.6106  0.0942 -0.0895
15151W        W30960  15.190   2.630  13.017 -0.0475 -0.0240  0.2601
15152W        W30961   6.610   1.202  12.702  0.1621 -0.3317 -0.4504
15153W        W30962   3.435   2.552   3.906 -0.0911  0.1232 -0.1357
15154W        W30963   2.535  13.022   5.118 -0.3829 -0.1171  0.0055
15155W        W30964  11.793   4.588  11.578  0.3477  0.0085 -0.4047
15156W        W30965  16.968   7.335   4.161  0.0100  0.1968  0.0354
15157W        W30966  12.195   2.538   1.461  0.0443 -0.2914  0.1676
15158W        W30967  10.061   8.098   4.347  0.1842 -0.0447  0.0579
15159W        W30968   5.448  17.296  11.865 -0.0732 -0.1123 -0.2252
15160W        W30969   7.962   6.018   4.087  0.0222  0.0190 -0.1233
15161W        W30970  17.251  16.852  11.343  0.1348  0.0856  0.2062
15162W        W30971  18.141   2.390  12.256  0.1764  0.1061  0.0168
15163W        W30972  15.144   3.633  11.585  0.1013 -0.3216  0.2748
15164W        W30973   5.731   0.291   4.335  0.0061  0.1720  0.0061
15165W        W30974   2.546  10.823  13.474  0.0191 -0.1924 -0.2920
15166W        W30975  13.476  11.409   0.906 -0.1449  0.2158  0.2397
15167W        W30976  15.664  11.250   5.331 -0.0978 -0.2616 -0.2381
15168W        W30977   5.603   6.207   9.256 -0.2572 -0.3458  0.0714
15169W        W30978   3.815   8.383  13.434 -0.0544 -0.0781  0.0402
15170W        W30979   9.133  10.822   5.964  0.0265  0.0180  0.1154
15171W        W30980   6.364   1.425   4.738 -0.1042 -0.2913  0.2349
15172W        W30981  10.797  18.770  11.170  0.2513 -0.1852 -0.0137
15173W        W30982   1.441   9.682   0.371 -0.0659 -0.3466 -0.1624
15174W        W30983  13.638   1.872  11.729 -0.4002  0.0224 -0.0984
15175W        W30984   4.240  10.238   1.934  0.0754  0.0396  0.1060
15176W        W30985   2.426   1.536   1.134  0.3022 -0.0973 -0.3389
15177W        W30986  12.190   8.553  11.759 -0.1496 -0.2491  0.4073
15178W        W30987  11.021   9.095   0.147  0.0451 -0.0201 -0.2187
15179W        W30988   7.003   0.833  13.104  0.2250 -0.4054 -0.0929
15180W        W30989  17.158  14.447  14.034  0.0176 -0.1824  0.1574
15181W        W30990  13.413   6.783   3.033 -0.0446  0.2435 -0.0693
15182W        W30991   4.693  13.343   0.285 -0.2476  0.2130  0.3768
15183W        W30992  17.944  10.877  13.975 -0.0487  0.0170 -0.3697
15184W        W30993  10.627  16.432   2.321 -0.0683  0.0163  0.1124
15185W        W30994   7.959   5.589  12.140  0.0383  0.3507  0.0670
15186W        W30995  14.569   9.367  12.325 -0.1882 -0.1397  0.0405
15187W        W30996   6.632   9.738  14.384  0.2387  0.1846  0.1325
15188W        W30997  13.873   3.468   4.960 -0.0754  0.0748 -0.0550
15189W        W30998   2.839  15.717   2.388  0.0854 -0.2361  0.2492
15190W        W30999   0.548   9.173   5.019  0.3092  0.0951 -0.0045
15191W        W31000  14.357   5.756  13.589  0.1209  0.2940 -0.0211
15192W        W31001   0.819   0.010   5.445  0.0019 -0.3205  0.0540
15193W        W31002  11.521   0.255  11.484 -0.0045 -0.0935 -0.3511
15194W        W31003  16.988   9.100  12.101 -0.0332 -0.1533  0.1393
15195W        W31004   4.858   3.044   4.226 -0.0175  0.0585  0.1279
15196W        W31005  15.820   3.479   1.028 -0.0433  0.0770  0.1586
15197W        W31006   7.510   8.166  13.809  0.3176  0.2179  0.1018
15198W        W31007   9.859  13.621  15.355  0.0372 -0.1188  0.1237
15199W        W31008  13.750  17.661  12.744  0.0028 -0.0259  0.0405
15200W        W31009   3.683   9.321   3.988  0.1812 -0.1916  0.1711
15201W        W31010   3.115  17.537  11.048  0.0904  0.3217 -0.0782
15202W        W31011  13.059  15.677  11.766  0.1456 -0.2459  0.2172
15203W        W31012   1.599   9.550  10.035 -0.0704 -0.1756  0.1367
15204W        W31013  14.745   8.819   0.457 -0.0140 -0.2271 -0.1428
15205W        W31014  17.554  12.410  15.063  0.0671  0.3174  0.1513
15206W        W31015   0.204   9.883  11.939 -0.2140 -0.0890  0.0496
15207W        W31016   9.509  13.389  11.445  0.0683  0.2870  0.0270
15208W        W31017   4.663  18.901   1.518  0.0582  0.1361  0.1860
15209W        W31018  16.313  16.772   2.825 -0.0386 -0.0369  0.0098
15210W        W31019   1.501  13.888   2.250  0.0449 -0.3022 -0.1834
15211W        W31020  11.104  18.435  12.417 -0.1511 -0.1383  0.0065
15212W        W31021   8.009  11.915   0.037  0.1526 -0.1640 -0.0647
15213W        W31022  17.945  18.227   4.366  0.1044 -0.3481  0.4114
15214W        W31023   5.302  14.501   4.363 -0.0272 -0.0629 -0.1231
15215W        W31024  11.612   7.388   5.562 -0.3310 -0.1547  0.0070
15216W        W31025   8.801   6.053  14.568  0.0515  0.0111 -0.1404
15217W        W31026   8.757   6.790   2.710  0.0390  0.2427  0.1288
15218W        W31027   5.177   7.853  15.253  0.1838 -0.2470  0.0500
15219W        W31028  10.890   9.735  11.406 -0.2300  0.1604 -0.1714
15220W        W31029   3.507   7.628  14.075 -0.3012 -0.0010 -0.0679
15221W        W31030   8.247  11.969   3.543  0.1139  0.3162  0.0364
15222W        W31031  15.120   6.566   3.063  0.1309 -0.1303  0.0146
15223W        W31032   2.251  15.932   1.129  0.0975 -0.0148 -0.3004
15224W        W31033   7.158  14.024  11.151  0.0371 -0.0538  0.0673
15225W        W31034  12.393  14.869  13.136  0.1228 -0.3402  0.0510
15226W        W31035   9.472  12.793  15.060 -0.2469 -0.0418 -0.0191
15227W        W31036   0.452  14.265   0.990  0.1234  0.4451  0.0476
15228W        W31037  17.489   7.734  13.776 -0.1731  0.0240  0.0047
15229W        W31038   7.161   5.932  15.214  0.0183  0.1993  0.0570
15230W        W31039  10.890   6.541  11.395 -0.2063  0.0829  0.2042
15231W        W31040   1.320   8.408   0.719 -0.2258  0.1088 -0.2120
15232W        W31041   4.078   8.831   4.464  0.0001 -0.1326 -0.0396
15233W        W31042  13.609   8.027  11.321 -0.3632 -0.0765  0.1477
15234W        W31043   9.634   1.560  11.691  0.1308 -0.0035 -0.1937
15235W        W31044   9.160  15.583  14.504  0.0721 -0.1292  0.0594
15236W        W31045  13.046  15.321  11.389  0.1728 -0.0491 -0.1191
15237W        W31046   6.095   7.236  10.545  0.2873 -0.0788 -0.1792
15238W        W31047  10.474   3.217  12.010 -0.0287 -0.0774 -0.0884
15239W        W31048  15.336  13.401   0.193  0.1264  0.3456  0.1886
15240W        W31049   0.407  11.859  11.130 -0.0747  0.0001 -0.2515
15241W        W31050  16.876  11.075  10.802  0.3672  0.1191 -0.0980
15242W        W31051   5.667  10.675  10.726  0.2293  0.3195  0.0310
15243W        W31052  17.479  12.855  15.234  0.3951 -0.1038  0.1243
15244W        W31053   3.124  16.426   3.173  0.1961  0.1193 -0.2454
15245W        W31054   0.914   8.773   0.884 -0.3270 -0.3531  0.0064
15246W        W31055  10.040   1.893  13.349 -0.2554 -0.1630 -0.2760
15247W        W31056  13.696  17.374   0.160  0.0333 -0.4583 -0.2275
15248W        W31057   7.975   8.111  15.227  0.1450  0.2310  0.3579
15249W        W31058  17.612  10.296   0.971  0.0234  0.0264  0.3491
15250W        W31059  14.995   3.868   2.737  0.0293  0.0953 -0.1403
15251W        W31060   9.405  16.996   0.023 -0.0822 -0.1335  0.1204
15252W        W31061  13.257  11.063  11.375 -0.0951  0.3063 -0.2544
15253W        W31062   3.145   2.883  14.831  0.5144  0.1384 -0.1513
15254W        W31063   9.223   5.275  12.610 -0.2972 -0.0325  0.1309
15255W        W31064  17.761   5.802   2.265 -0.1457 -0.0418  0.2202
15256W        W31065   2.011   3.396   3.924  0.0107 -0.2255  0.0546
15257W        W31066  15.685  13.199   2.140  0.1972  0.0753 -0.3942
15258W        W31067  17.043   6.862   1.381 -0.2871 -0.0630  0.1186
15259W        W31068  17.140  13.727   0.962  0.1033  0.2306 -0.0826
15260W        W31069  15.519   3.860   1.860  0.3410 -0.1282 -0.0266
15261W        W31070  10.541  17.357  15.330 -0.1914  0.3087  0.1092
15262W        W31071   8.530   9.329  12.941 -0.2528  0.1094  0.2095
15263W        W31072   4.254  11.279   4.672  0.0734 -0.0777 -0.2381
15264W        W31073   1.344   6.226   0.504 -0.2439 -0.0683  0.1192
15265W        W31074  18.303  14.842  14.315 -0.1642 -0.0843  0.1032
15266W        W31075   4.614  12.123   1.715  0.1881 -0.0243  0.0075
15267W        W31076   8.240  16.107  14.005 -0.0251  0.0396  0.0898
15268W        W31077  18.583   5.465  15.415 -0.0725  0.4425  0.1488
15269W        W31078   9.063   5.154   2.959 -0.0682 -0.6921 -0.3343
15270W        W31079  17.051  13.796   0.182 -0.2244  0.0337  0.4014
15271W        W31080   5.499   9.864   2.974  0.1194  0.0831  0.0851
15272W        W31081  16.126  13.876   2.712 -0.1264  0.0151  0.2316
15273W        W31082   4.799   0.126  10.677  0.2650  0.1305 -0.1571
15274W        W31083   2.867   7.598   0.548 -0.1452  0.0811 -0.2465
15275W        W31084  11.595   2.972   0.002 -0.1537  0.1277 -0.1770
15276W        W31085   2.696   3.690  14.603 -0.0746  0.0250  0.1443
15277W        W31086   6.771  12.572  13.166  0.1467  0.1152 -0.1493
15278W        W31087  12.717  16.775   3.746 -0.1000  0.1550 -0.0758
15279W        W31088  14.907   6.901  15.213 -0.1258  0.2750 -0.1294
15280W        W31089  13.053  10.032  13.556  0.1830  0.0733 -0.0906
15281W        W31090  14.234   1.325  15.414  0.0270 -0.0201 -0.1045
15282W        W31091   3.954  13.958  14.611 -0.1013  0.6193  0.0638
15283W        W31092  15.501   9.344  11.061  0.1836  0.2147 -0.2645
15284W        W31093   3.244   1.760   1.228  0.0480 -0.0756  0.1404
15285W        W31094  15.835   8.543  12.188  0.1542 -0.0169 -0.0064
15286W        W31095  18.503  12.181   2.673  0.1869  0.0086 -0.2839
15287W        W31096  17.526   6.214   1.056  0.2385  0.1414 -0.0117
15288W        W31097   7.591  12.393   2.966  0.0238  0.2713  0.1162
15289W        W31098   2.087   6.986   1.835  0.0696 -0.2189 -0.3273
15290W        W31099   1.247  18.599   1.470  0.1488 -0.1379 -0.2870
15291W        W31100   5.000  14.438   1.120  0.0242  0.2423  0.2221
15292W        W31101  15.938   2.027   2.324 -0.2225  0.0865  0.0206
15293W        W31102   2.957  13.202  11.416  0.2654  0.0214 -0.1262
15294W        W31103   1.523   3.021   5.156 -0.3552 -0.1006  0.1621
15295W        W31104  16.282   9.915   0.199 -0.1238  0.2118  0.1559
15296W        W31105   6.846   4.905   0.683  0.0299 -0.1022  0.0720
15297W        W31106  11.194   2.522  13.769 -0.0479  0.0998  0.1156
15298W        W31107   5.170  13.967   1.787 -0.0272 -0.0576 -0.2713
15299W        W31108  12.324  12.244   4.703 -0.0662  0.1364  0.0481
15300W        W31109   1.587  17.300   2.707  0.1418 -0.0587 -0.0452
15301W        W31110   6.142  18.328   1.526 -0.0361 -0.0244 -0.0096
15302W        W31111   4.793   1.166   3.920  0.0861  0.0080  0.1445
15303W        W31112   0.226   4.708   0.688 -0.0896  0.1799 -0.2404
15304W        W31113   7.192   3.791  13.485  0.0185  0.2260 -0.1762
15305W        W31114  18.834   8.444  11.192  0.2826 -0.2598  0.1733
15306W        W31115   4.304  11.651  13.970 -0.2674 -0.0409 -0.1138
15307W        W31116  18.438   3.419   3.160 -0.2170 -0.3693  0.0480
15308W        W31117  18.882  16.756  13.620 -0.2082  0.0274 -0.0660
15309W        W31118  10.618  13.416  14.783 -0.2975  0.3039 -0.0375
15310W        W31119  16.795  12.794  14.922  0.1278  0.1782 -0.1986
15311W        W31120  11.543   1.315  12.828  0.1649 -0.1069 -0.0012
15312W        W31121  11.158  16.305  12.534  0.1426  0.1247  0.0382
15313W        W31122  11.681  14.570   9.885 -0.1248 -0.0117 -0.1727
15314W        W31123  16.600   6.579  14.615  0.4491 -0.2656  0.2114
15315W        W31124   9.625   1.913  10.797 -0.3300  0.0225  0.0788
15316W        W31125   1.985   6.414  15.041  0.3273 -0.1913  0.2001
15317W        W31126  18.127   9.058   1.054  0.2421 -0.2288 -0.1429
15318W        W31127   9.264   5.355   3.405  0.0355  0.0394 -0.1577
15319W        W31128   5.445  11.961  11.005 -0.0048  0.2111 -0.1213
15320W        W31129  18.559   2.913  12.993  0.1422 -0.2299  0.0619
15321W        W31130   5.253  13.058  14.516 -0.4053  0.0943  0.0814
15322W        W31131   8.600   4.920  12.698  0.1849  0.3879  0.0493
15323W        W31132  14.903  14.886   2.198 -0.4341  0.1059 -0.0135
15324W        W31133   9.298  14.670   2.837 -0.1485  0.3658 -0.0002
15325W        W31134  17.829  11.897   1.820 -0.0118  0.0190 -0.0461
15326W        W31135   4.861   2.025   2.060 -0.1059 -0.1536 -0.2440
15327W        W31136   0.292  13.239  14.458  0.0416  0.0631 -0.2982
15328W        W31137  10.823  16.285  10.385  0.1705 -0.4522  0.2327
15329W        W31138  10.077   1.231   2.771  0.1170 -0.2270 -0.4544
15330W        W31139  12.252   0.462   9.534 -0.1137 -0.1578 -0.0818
15331W        W31140   9.143  12.916   5.747 -0.0394  0.0727  0.1385
15332W        W31141   5.331  11.626   2.314 -0.3167  0.0116  0.3236
15333W        W31142  17.877  16.133   3.077 -0.0808  0.1247 -0.0537
15334W        W31143  12.472   7.352   0.303  0.0902 -0.1453  0.0247
15335W        W31144  17.488   7.455  12.372 -0.0002 -0.2407  0.0308
15336W        W31145   5.994  17.551  12.546 -0.2694 -0.0099 -0.2740
15337W        W31146   6.213   7.132  12.038 -0.0936  0.1426 -0.0002
15338W        W31147   0.656  10.242  13.630 -0.1202  0.0811  0.3121
15339W        W31148  13.007  14.485   3.250 -0.0974  0.2008 -0.1102
15340W        W31149  12.575  12.699   3.400  0.2535 -0.0385  0.2057
15341W        W31150   2.228  17.938  13.553 -0.0215  0.1237 -0.2689
15342W        W31151   3.844  11.633   4.761  0.0450  0.0146 -0.3606
15343W        W31152   8.447  15.693   3.188  0.1734 -0.1277 -0.0437
15344W        W31153   9.363   9.267  11.500 -0.0008 -0.1303  0.0615
15345W        W31154  12.248   3.180  12.312  0.0822  0.3650 -0.0719
15346W        W31155  16.693  15.198  13.331  0.2829 -0.0291  0.3549
15347W        W31156   5.802   4.838  12.084  0.3599 -0.0881  0.1486
15348W        W31157  18.322  14.181  13.693  0.1146  0.2541  0.1595
15349W        W31158   2.535  16.203  14.276 -0.2079  0.0388  0.1369
15350W        W31159   9.313   1.161  14.248 -0.1470 -0.3284 -0.1344
15351W        W31160   6.008   8.053   2.605  0.1457  0.3080  0.1403
15352W        W31161   2.850  12.398  10.347  0.0499  0.0778 -0.0838
15353W        W31162  13.476   6.397   1.261 -0.0184 -0.4025  0.3637
15354W        W31163  16.941   0.170  11.209 -0.1784  0.2102  0.0651
15355W        W31164  10.365   5.374   4.294 -0.0362 -0.0459  0.2023
15356W        W31165   0.307  15.051  13.863 -0.0320  0.1209  0.0693
15357W        W31166   5.922   9.151   3.521  0.0291 -0.2792  0.0217
15358W        W31167   0.375   6.886  12.738 -0.0996 -0.1576  0.1077
15359W        W31168  14.351   2.359  12.729 -0.2651  0.2775 -0.1960
15360W        W31169  15.200  16.752  14.479  0.0612  0.0408 -0.1119
15361W        W31170  14.501  11.393   0.422 -0.1016  0.1267  0.1487
15362W        W31171  16.493   8.362   3.063 -0.1693 -0.2636 -0.1133
15363W        W31172  12.923   1.450  10.426  0.1046  0.2356  0.0048
15364W        W31173   7.457  18.047   2.975  0.0126 -0.3305 -0.0170
15365W        W31174  15.918   4.222   2.685  0.4202  0.4524  0.2495
15366W        W31175  18.053   8.957  12.126  0.3559 -0.1504  0.1696
15367W        W31176   7.310  16.109  13.878  0.1727 -0.0775 -0.1801
15368W        W31177  16.527  15.830  10.743  0.1495  0.0123 -0.0751
15369W        W31178   1.117  11.080  10.873  0.0847  0.1195 -0.1425
15370W        W31179   3.377  11.257   9.444 -0.5481 -0.0265 -0.3292
15371W        W31180   8.126   5.155  14.432  0.5705  0.0121 -0.2996
15372W        W31181  18.499  16.911   0.130 -0.2519  0.0129  0.0376
15373W        W31182   6.883  12.546   4.379  0.1347 -0.1039 -0.0127
15374W        W31183   8.254   6.411   4.190  0.4145  0.3827  0.2395
15375W        W31184  18.734   8.664  11.783 -0.3360  0.2310  0.0051
15376W        W31185   8.827   1.179  13.159 -0.0457  0.1259  0.0172
15377W        W31186  12.593   4.233  10.396  0.3260 -0.1874  0.0667
15378W        W31187   8.371   7.728  13.761 -0.3163 -0.0629  0.2105
15379W        W31188  16.304   8.184   1.464 -0.2143 -0.0235  0.4925
15380W        W31189  10.289  15.955  13.654  0.0640  0.1421  0.0126
15381W        W31190   1.098  18.323   4.090  0.0759 -0.4188  0.3582
15382W        W31191   4.081  15.774   1.555  0.0115 -0.1377 -0.0903
15383W        W31192   3.406  15.662   3.522 -0.1173  0.1490  0.0927
15384W        W31193   6.861   9.115   1.295  0.1017  0.0766 -0.0245
15385W        W31194   5.444  16.848  12.638 -0.2034  0.0988 -0.1287
15386W        W31195  12.125  12.506   3.049 -0.0210  0.1889  0.3681
15387W        W31196  11.548   6.610   2.166 -0.2059  0.1362 -0.0772
15388W        W31197  10.748   2.632  12.938 -0.1635  0.1804  0.1199
15389W        W31198   9.133   4.156  14.415  0.3291 -0.1709  0.0936
15390W        W31199  15.752   6.720   2.531  0.2673 -0.1894  0.1234
15391W        W31200   3.477   4.905  12.536  0.2517 -0.1286 -0.3343
15392W        W31201  13.722   5.190  12.936  0.0608 -0.0005 -0.1605
15393W        W31202  12.340  10.757  11.920 -0.2389  0.1016 -0.0340
15394W        W31203  18.258   3.099  10.823 -0.1737  0.1963  0.0838
15395W        W31204  12.019  15.472   1.933 -0.1755  0.1650 -0.0142
15396W        W31205   7.298  17.470   2.145 -0.0269 -0.0904 -0.2184
15397W        W31206   7.343  11.629  10.610  0.3575  0.0101  0.1819
15398W        W31207  18.772   1.673  14.513 -0.1795 -0.0796  0.2805
15399W        W31208   2.295   7.135  11.820  0.2383 -0.2096 -0.1843
15400W        W31209   4.306   1.241   1.250 -0.3109  0.1195 -0.0348
15401W        W31210  13.218  15.874   1.135 -0.0188 -0.0595  0.1252
15402W        W31211   8.272  18.445  12.814 -0.1467  0.1964  0.1451
15403W        W31212   7.652   7.078   0.028  0.3039 -0.1410 -0.1744
15404W        W31213   2.696  15.373  10.432 -0.0303  0.0751 -0.2133
15405W        W31214  18.661  16.641   4.745 -0.0202 -0.2770 -0.1680
15406W        W31215  16.897   5.230   2.594  0.1348 -0.0140  0.4348
15407W        W31216  15.619   1.994  14.061 -0.2466 -0.0801 -0.0869
15408W        W31217  13.610  12.572  11.062  0.1259  0.3495  0.4123
15409W        W31218   5.951   6.407   0.542 -0.2663 -0.0627  0.0175
15410W        W31219   1.132   3.088   1.776 -0.1059 -0.0712  0.1604
15411W        W31220   7.278   0.388   0.941  0.0441  0.1147 -0.1786
15412W        W31221  16.947  18.177   3.910 -0.2757  0.0095 -0.1592
15413W        W31222  17.292  10.608   0.480  0.0768  0.0509 -0.0394
15414W        W31223  15.937  14.358  11.714 -0.1986  0.0265  0.0696
15415W        W31224   9.307   6.071  14.541  0.1593  0.0172 -0.2295
15416W        W31225  13.484   0.506  12.266  0.0278  0.0436 -0.1757
15417W        W31226  13.473  12.902   3.350  0.0563 -0.2412 -0.1890
15418W        W31227   3.993   2.751  13.855 -0.3615 -0.1239  0.1791
15419W        W31228  17.498  16.096  14.762 -0.0628  0.1264  0.2363
15420W        W31229   9.958   0.176   4.786  0.2485  0.2693 -0.0171
15421W        W31230   7.629  12.500  15.377 -0.1856  0.2284 -0.0236
15422W        W31231  17.286   5.744  14.907 -0.0599  0.0602  0.0101
15423W        W31232  18.768   2.065  11.821 -0.4495  0.1997  0.3569
15424W        W31233   3.949  12.102  11.362  0.0897 -0.2543  0.6038
15425W        W31234   3.810  12.728   4.725  0.1497  0.1117  0.1267
15426W        W31235   4.435  13.934   1.221 -0.3786 -0.1320  0.1637
15427W        W31236   6.706   3.178   1.096  0.2406 -0.2552 -0.1831
15428W        W31237   6.949  16.324   1.581 -0.1637 -0.0565 -0.1955
15429W        W31238  11.956  18.190  14.021  0.0662  0.3928  0.1717
15430W        W31239   1.296  15.936   0.764 -0.0267 -0.0217  0.0393
15431W        W31240   3.100  14.731   2.748  0.1601  0.3816  0.3144
15432W        W31241  17.900   2.550  11.848 -0.3966  0.1157  0.1659
15433W        W31242   4.345   2.819  14.795 -0.1275 -0.1892  0.0086
15434W        W31243  10.985  15.754   0.497  0.0711  0.3466  0.1488
15435W        W31244  14.030  16.410  11.153  0.1427  0.0939  0.1058
15436W        W31245   6.815   3.096  13.395  0.1629 -0.0852  0.0837
15437W        W31246   0.214   1.905  11.429  0.1385  0.1442  0.1893
15438W        W31247  17.852   7.115   1.168 -0.0510 -0.1704 -0.2260
15439W        W31248   8.640   2.299   5.035  0.2799 -0.1763 -0.2521
15440W        W31249  18.808   3.626   3.443  0.0644  0.1234  0.0159
15441W        W31250  15.382   4.412   9.722  0.2306  0.0055 -0.0265
15442W        W31251   6.806  11.616  14.049  0.0078 -0.4847  0.2809
15443W        W31252   8.387   8.245   2.154 -0.0589  0.0854 -0.2360
15444W        W31253   9.422  13.064  14.660  0.0809  0.0154 -0.1805
15445W        W31254  17.607  10.248  13.165  0.2183  0.3174 -0.0568
15446W        W31255  12.692   3.967   3.722  0.2329 -0.0883 -0.0530
15447W        W31256  17.883   6.797  11.033  0.1186 -0.2078 -0.2477
15448W        W31257  18.509   5.131   2.801 -0.3068  0.1711  0.2773
15449W        W31258  11.162   3.176  11.297  0.0733 -0.0599  0.0650
15450W        W31259  13.964  13.063   4.307 -0.0080  0.4215  0.0718
15451W        W31260  12.703   8.480  11.051  0.3016  0.2446  0.2331
15452W        W31261  10.821   6.864   5.257 -0.0110  0.1091  0.3277
15453W        W31262   0.820  17.367   4.035  0.1821 -0.1180  0.2502
15454W        W31263  14.616   8.445   1.353  0.0554 -0.2903  0.2466
15455W        W31264   0.935  10.223  15.181 -0.0184 -0.0090  0.1241
15456W        W31265   6.527  13.678  11.871 -0.0090 -0.2828 -0.2051
15457W        W31266  11.883   8.352   5.057 -0.0714  0.1200  0.1118
15458W        W31267   9.490   1.669   0.118 -0.2116  0.2897  0.1794
15459W        W31268   1.029   8.927   4.374  0.0695  0.3338  0.0135
15460W        W31269  17.084  18.487   1.034 -0.0078 -0.3651  0.0430
15461W        W31270  11.379   4.722  15.185  0.1255 -0.3050  0.0754
15462W        W31271   2.156   6.772   4.374  0.0629 -0.1616 -0.3728
15463W        W31272   5.286   5.034  13.663 -0.0755  0.0313  0.2616
15464W        W31273  15.979  13.919  14.332 -0.1906  0.2200  0.1604
15465W        W31274  11.879  16.535   4.713 -0.1435 -0.1898 -0.1779
15466W        W31275   4.467   0.779   1.647  0.2050  0.1451 -0.0835
15467W        W31276   3.282  14.919   1.369 -0.1386  0.2689 -0.1447
15468W        W31277  16.753  14.381   3.359 -0.3313 -0.0799  0.0101
15469W        W31278  13.854   6.096   1.006  0.0689 -0.0573  0.1942
15470W        W31279  18.738   4.157  13.410 -0.0078  0.2693  0.1193
15471W        W31280  18.704  15.731   5.601 -0.0078 -0.0693  0.5278
15472W        W31281   7.551   5.897   9.645  0.0455  0.0861  0.1105
15473W        W31282  18.220   9.888   4.260 -0.0732 -0.1337 -0.0203
15474W        W31283  17.705  10.617   2.309  0.0737  0.1488 -0.0265
15475W        W31284  14.113  17.511  14.729  0.3958  0.1104 -0.2244
15476W        W31285   0.556  16.159  11.996  0.1557  0.0017 -0.1228
15477W        W31286  18.427  18.085   0.405 -0.2346  0.2156  0.5413
15478W        W31287   1.416   0.155  14.947  0.2858  0.2627 -0.2128
15479W        W31288   1.996  16.413   0.627 -0.1353  0.1585 -0.0575
15480W        W31289  13.610  10.731   1.828  0.0413  0.4537  0.1567
15481W        W31290   8.178  13.837  15.190  0.0411 -0.0538 -0.0847
15482W        W31291   5.960   1.668  12.099 -0.1394  0.0605 -0.1867
15483W        W31292  11.109   7.341   5.799  0.0367 -0.0665  0.0558
15484W        W31293   4.883   2.842   1.277  0.0667  0.2027  0.4689
15485W        W31294  12.116  16.134  14.990  0.1540  0.0662  0.2836
15486W        W31295   8.011   1.440   0.557  0.0943 -0.2706  0.0836
15487W        W31296   8.741  10.897   4.999  0.4760  0.0968 -0.1575
15488W        W31297   8.803   5.987  10.838 -0.0595 -0.2093  0.0786
15489W        W31298   1.189   7.862   9.956 -0.1936 -0.0489  0.2129
15490W        W31299   0.827  11.718  10.241  0.0359  0.1286 -0.1558
15491W        W31300   9.780   8.575   3.530  0.2314 -0.0280 -0.2802
15492W        W31301  11.480   8.271   1.625 -0.1883  0.1396  0.0341
15493W        W31302  18.625   7.606   2.287 -0.0608  0.1180 -0.0575
15494W        W31303   3.821  12.003   1.294 -0.0839  0.0034 -0.0089
15495W        W31304  17.077  18.697   1.679 -0.3392  0.0963  0.0718
15496W        W31305   1.858   9.374   4.590 -0.1783  0.3642 -0.0771
15497W        W31306  15.657   1.337  11.777  0.2062 -0.0650 -0.0608
15498W        W31307   9.997   3.691   0.235  0.0846 -0.1396 -0.1016
15499W        W31308   0.914  17.394   1.357 -0.1658 -0.2352  0.0150
15500W        W31309   4.184  18.031   0.701 -0.0210 -0.0265  0.0568
15501W        W31310   1.728  16.602  11.339 -0.0831  0.1668 -0.3168
15502W        W31311  12.382  14.345  11.954  0.0725  0.3027  0.0248
15503W        W31312   0.924  14.933  10.455  0.1556 -0.0349  0.0489
15504W        W31313   5.417  16.702  13.182  0.4943  0.3158  0.1222
15505W        W31314   0.557  13.055   3.814 -0.1338  0.0321  0.3296
15506W        W31315  17.650   7.840   0.005 -0.1319 -0.1584 -0.0361
15507W        W31316  11.815  15.084   1.116  0.2221 -0.0994  0.0712
15508W        W31317   5.808  10.749   2.634 -0.1476 -0.0449  0.0646
15509W        W31318  12.729   0.170   3.693  0.3829  0.0063 -0.3042
15510W        W31319  17.180   4.431  13.612 -0.3255  0.2528 -0.0641
15511W        W31320   7.502   6.851  13.457  0.0387 -0.0946 -0.0527
15512W        W31321  16.913   2.324  14.801 -0.0191 -0.0847  0.0139
15513W        W31322  14.382   3.400  13.706 -0.2149  0.2305  0.2524
15514W        W31323   4.715  11.354   2.156  0.1383  0.4606  0.0133
15515W        W31324   7.192   3.403   2.629 -0.2010 -0.2344  0.1905
15516W        W31325  11.723   0.508   4.092 -0.0533  0.2100 -0.0814
15517W        W31326   5.235  13.351   2.534 -0.3098 -0.2466 -0.0946
15518W        W31327  12.232  10.626  10.703 -0.1708 -0.0778  0.0480
15519W        W31328   4.180   5.579  10.522  0.0036  0.1196  0.0055
15520W        W31329   6.114  15.518   2.154  0.0842 -0.0116 -0.3119
15521W        W31330  11.428  14.289  14.083 -0.2908  0.1847 -0.4120
15522W        W31331   2.363   8.389  11.262 -0.0001 -0.1159 -0.0226
15523W        W31332   0.901   9.309  13.350 -0.0949 -0.1212 -0.2216
15524W        W31333   6.915  15.855   0.328 -0.0688 -0.0648 -0.0336
15525W        W31334   5.261  14.580   9.773 -0.2526  0.0606  0.0631
15526W        W31335  17.481   6.894  11.396 -0.1498  0.1149 -0.0618
15527W        W31336   9.301   8.167   1.645 -0.3692 -0.0855  0.0450
15528W        W31337   7.824   4.883  11.773  0.1300 -0.1709  0.0080
15529W        W31338   1.848  16.032  15.249  0.0307 -0.1410 -0.0616
15530W        W31339  11.141  13.802   1.637  0.0107  0.1866  0.3372
15531W        W31340   2.185   8.915   4.523  0.2558  0.2506 -0.0501
15532W        W31341   4.885  16.933  15.099  0.7317  0.0478 -0.0861
15533W        W31342  13.813   7.449   1.126 -0.1624 -0.3436  0.0586
15534W        W31343  16.562   8.523  13.456 -0.0232  0.0765  0.0998
15535W        W31344  12.524   3.709   3.168  0.3501  0.0994 -0.0278
15536W        W31345   2.162   3.696   0.847 -0.0732 -0.0599  0.2100
15537W        W31346   9.053  13.921   2.354  0.2752 -0.2099  0.1017
15538W        W31347  15.477  14.970   5.261  0.3061 -0.0198 -0.3158
15539W        W31348   8.024  11.647   0.983  0.2586 -0.1556  0.2488
15540W        W31349  18.692   6.131   0.776  0.2251 -0.0173  0.2247
15541W        W31350  16.017  17.085  13.993  0.0387 -0.1306 -0.1055
15542W        W31351  16.962  14.372   1.734  0.2936 -0.0021 -0.2615
15543W        W31352   6.857   2.270   3.070  0.0521  0.1440  0.0033
15544W        W31353   9.335  11.042   2.515 -0.0771  0.2758  0.2150
15545W        W31354   2.903   8.263   4.949  0.0015  0.1103  0.3009
15546W        W31355   7.485  13.349   2.843  0.1208  0.1521 -0.0329
15547W        W31356   0.661   9.100  11.638  0.1517  0.1864  0.6202
15548W        W31357   0.161   8.024  11.393 -0.0352 -0.0978 -0.2890
15549W        W31358   4.539  15.169  11.820  0.1039  0.1340 -0.2384
15550W        W31359  17.320  10.047   1.814  0.1134 -0.0786  0.1848
15551W        W31360   3.500   3.393  10.658 -0.2277  0.2649 -0.2547
15552W        W31361  14.668  14.261   0.115  0.2574  0.0696  0.2275
15553W        W31362   0.620  13.637   4.737  0.3213 -0.4117  0.1804
15554W        W31363   3.424  18.584  13.268 -0.0141  0.0067 -0.0575
15555W        W31364   3.655  15.380   5.147 -0.1779 -0.1993  0.1572
15556W        W31365   7.463  16.476   5.408  0.0441  0.4218  0.2502
15557W        W31366  18.067  17.133  12.055 -0.1579  0.2210 -0.2045
15558W        W31367   6.840   2.276  14.975  0.0139  0.1205  0.1915
15559W        W31368  17.774   2.283   2.126  0.1059 -0.0179 -0.2441
15560W        W31369   7.165   5.135  11.000 -0.1831 -0.0238 -0.1401
15561W        W31370   5.459   4.473   1.979 -0.1549  0.2418  0.0040
15562W        W31371  18.310  14.167   1.214 -0.0298 -0.2424  0.1032
15563W        W31372  14.454   9.856  12.423  0.0141 -0.1355 -0.2501
15564W        W31373   3.230   8.784  12.704  0.2623 -0.0114 -0.1839
15565W        W31374  18.190  12.346  12.679  0.0690 -0.3394  0.1905
15566W        W31375   1.841   0.529   3.465 -0.1473 -0.0221 -0.3772
15567W        W31376   1.913   7.359   0.830  0.1162 -0.2892  0.3401
15568W        W31377   9.173   4.739  11.142  0.1201  0.0848  0.0058
15569W        W31378  17.558   9.700   4.067  0.1600  0.2573  0.1668
15570W        W31379   4.691  11.595  13.659 -0.3310 -0.1499  0.2298
15571W        W31380   2.864  11.054  14.852  0.0822  0.2025  0.1700
15572W        W31381   7.650   4.523   2.792  0.2806 -0.1907 -0.1103
15573W        W31382   4.042   2.388  12.679  0.1219  0.1126 -0.0530
15574W        W31383   4.693  18.740  12.054  0.2248  0.1984  0.0179
15575W        W31384  13.622   1.344  13.261  0.1995 -0.2427  0.4140
15576W        W31385  11.279  10.098   5.495 -0.1154  0.0615 -0.1790
15577W        W31386  10.877   7.746  12.839 -0.0201  0.0467  0.3710
15578W        W31387   1.467   8.663  11.682 -0.0668 -0.2721 -0.2466
15579W        W31388   9.025  14.365   4.357  0.0322 -0.2955  0.0605
15580W        W31389   5.097  16.804  14.062 -0.1060  0.1699  0.2343
15581W        W31390  18.846  10.277   1.347  0.0778  0.1921 -0.0892
15582W        W31391  14.478  10.709  13.260  0.0526 -0.1681 -0.0971
15583W        W31392   7.259   9.462  10.368  0.1193 -0.1728  0.0368
15584W        W31393   7.112  17.145   3.778  0.0763  0.1793 -0.0561
15585W        W31394  17.355   1.320  13.305 -0.0631 -0.1028  0.3009
15586W        W31395   7.590  16.979   0.092  0.2097  0.2066 -0.1189
15587W        W31396  18.036  11.119  15.433 -0.0171  0.1212 -0.3186
15588W        W31397   9.472   3.965   0.406 -0.0267  0.0050  0.3852
15589W        W31398  18.070   5.351   5.670  0.2507 -0.1586  0.3262
15590W        W31399   2.920   2.064  14.834 -0.3520 -0.1579  0.1876
15591W        W31400  10.390  13.055   3.155  0.0870 -0.2347  0.0274
15592W        W31401   9.796   8.497  11.962  0.2934  0.3513  0.0580
15593W        W31402   9.585  10.607  10.969  0.1181  0.0215  0.2427
15594W        W31403   7.391   3.360   3.095 -0.1360 -0.2090  0.1925
15595W        W31404  10.257  12.593   5.295  0.1125 -0.1213  0.2610
15596W        W31405   8.279  18.333   2.663  0.2095  0.0937  0.0006
15597W        W31406  16.898  16.836  14.672  0.2527  0.2412 -0.0202
15598W        W31407   3.074  16.582   2.546  0.1880  0.2106  0.0622
15599W        W31408   6.833  10.337   3.272 -0.0305 -0.1545 -0.0017
15600W        W31409  10.163  16.202   0.022 -0.1316 -0.0864 -0.2548
15601W        W31410   6.129   2.015   4.333  0.0102 -0.0861  0.2021
15602W        W31411   0.612  11.515   3.838 -0.0930  0.0460  0.4011
15603W        W31412   4.978  13.273   3.976 -0.3465  0.0178  0.0060
15604W        W31413   1.207  18.397  11.649  0.0415  0.0777 -0.1586
15605W        W31414  18.887   4.747  15.149  0.1236  0.2143 -0.2466
15606W        W31415  14.458  16.728  12.216  0.1078 -0.2158  0.0374
15607W        W31416   8.849   6.808  12.896 -0.3753  0.2837 -0.0666
15608W        W31417  17.119   4.903  11.034 -0.0266  0.0103  0.2125
15609W        W31418   0.911  18.714   1.955 -0.2287 -0.0772  0.0521
15610W        W31419   0.234   3.294  12.554 -0.0458 -0.0193 -0.2224
15611W        W31420  12.263  11.433  13.962  0.2667  0.1753 -0.2216
15612W        W31421   2.453  15.107   4.127 -0.2674  0.1482  0.2149
15613W        W31422   3.789   3.956   0.791  0.0984 -0.0061  0.2483
15614W        W31423   3.371  14.588  14.339  0.2863  0.1232  0.3269
15615W        W31424   2.991   4.092  11.866  0.1807  0.3610 -0.0804
15616W        W31425  17.838  15.628  13.900 -0.0202  0.0395  0.4265
15617W        W31426   6.678   7.142   4.643 -0.1277 -0.0204 -0.2740
15618W        W31427   7.411   1.536  11.139 -0.0252  0.0030  0.0580
15619W        W31428  17.957   8.413   4.796  0.0866  0.0416  0.1543
15620W        W31429   3.190   6.466   2.377  0.4858 -0.0133 -0.1871
15621W        W31430  12.012  11.532  10.841  0.1122 -0.0738  0.0302
15622W        W31431  12.613   5.103   5.069 -0.2082  0.0150  0.2500
15623W        W31432   2.649  13.618   0.828  0.5123 -0.0940 -0.3005
15624W        W31433   2.242   4.707  11.800  0.0852  0.1067  0.1464
15625W        W31434   2.581   4.261  13.936 -0.0582  0.2310 -0.0258
15626W        W31435  18.485  16.152  12.085  0.1553 -0.4604  0.1667
15627W        W31436  13.092  18.185   3.558  0.3573  0.2361  0.0102
15628W        W31437   6.788   5.361   1.043  0.0194  0.0053  0.1452
15629W        W31438  10.806   4.185  14.733  0.0038 -0.2813 -0.1749
15630W        W31439  10.016  17.790   1.281 -0.1412  0.2554  0.1149
15631W        W31440   7.942   7.296   4.740  0.1274 -0.2845  0.1479
15632W        W31441  18.254  15.963  12.991 -0.2919  0.1579  0.3976
15633W        W31442  15.869  17.828   2.541 -0.5803  0.3707  0.0964
15634W        W31443  17.899   0.227  11.323 -0.1176 -0.4713 -0.1464
15635W        W31444  12.625  15.803  13.828  0.1046  0.0610  0.0559
15636W        W31445  13.929   2.476  12.323 -0.0567 -0.0659 -0.0800
15637W        W31446   0.363  13.665  14.155 -0.1094  0.1211  0.2740
15638W        W31447   0.655  16.442  12.962  0.1473  0.0667  0.1455
15639W        W31448   2.019  14.914   3.313 -0.2416  0.1509  0.1508
15640W        W31449   2.623  16.637   2.307  0.1470 -0.0031  0.0482
15641W        W31450   4.073   5.720  13.218 -0.3036  0.2142  0.0536
15642W        W31451   6.119   0.233   4.696 -0.3842  0.1535  0.0411
15643W        W31452   7.243   4.837  12.618 -0.0726 -0.0325 -0.3990
15644W        W31453   7.292  11.369   3.560  0.1266 -0.2434 -0.0551
15645W        W31454  12.426   9.514  12.593 -0.2607  0.0250 -0.2229
15646W        W31455  11.401  15.538  12.189 -0.1920 -0.2648  0.1302
15647W        W31456  18.261   7.018   4.889  0.3364 -0.0525  0.5711
15648W        W31457  16.557   8.483   4.341  0.0389  0.0587 -0.0585
15649W        W31458  18.798  18.670  10.937  0.1712 -0.0322 -0.0123
15650W        W31459   4.448   0.281   5.480  0.1323 -0.0783  0.0525
15651W        W31460   2.988  15.565  12.159 -0.0912  0.0709 -0.1038
15652W        W31461  14.285  17.557  14.248 -0.4136 -0.0749  0.2797
15653W        W31462  11.028   3.778   2.581 -0.0913 -0.1180 -0.0238
15654W        W31463   3.468  16.318  13.656 -0.2542  0.1424  0.0373
15655W        W31464  13.894  13.715   0.723  0.0389 -0.1434  0.1869
15656W        W31465  17.043  17.914  13.835 -0.2265  0.1936 -0.0664
15657W        W31466  13.456  12.031  11.964 -0.2181  0.0126  0.0208
15658W        W31467  13.186   9.536  12.806  0.1133  0.1071 -0.1187
15659W        W31468  16.932   0.905  11.826 -0.2523  0.2715  0.0117
15660W        W31469   3.611  15.105   4.013  0.3885  0.1175 -0.0109
15661W        W31470   8.003   4.173   0.563  0.0454  0.4223  0.1298
15662W        W31471   7.887   2.514  11.504  0.0275  0.0083 -0.0301
15663W        W31472  10.875   1.140  15.273 -0.0865  0.3979 -0.0766
15664W        W31473  16.132  14.744  11.386  0.1635  0.0619  0.2599
15665W        W31474   9.739   3.103   1.194 -0.0674  0.1319  0.1225
15666W        W31475   6.262   7.294  11.544 -0.2270 -0.4769 -0.0169
15667W        W31476   8.836  17.426   1.140  0.2182  0.2202 -0.0843
15668W        W31477  18.258   2.742   0.944 -0.3400  0.0348  0.1659
15669W        W31478  11.714   2.949  11.351 -0.2592  0.1998 -0.1924
15670W        W31479   6.517   3.175  14.619 -0.1807 -0.1711 -0.0181
15671W        W31480  13.928   3.273  14.972 -0.2139 -0.2937  0.0485
15672W        W31481  16.484   2.083  15.214 -0.2456  0.1781  0.4070
15673W        W31482   5.382  17.517  13.479  0.3913  0.2441  0.0451
15674W        W31483  14.526  11.503  10.401  0.5728  0.0359  0.0043
15675W        W31484  13.039   6.958  12.570  0.2350 -0.2669 -0.0156
15676W        W31485   8.150  11.459   2.115 -0.0555  0.2570  0.0094
15677W        W31486  15.615   5.908   2.709 -0.0741  0.2916  0.1639
15678W        W31487   1.940  11.127  12.732 -0.2277 -0.2669 -0.1824
15679W        W31488   3.017  10.291  14.334 -0.1067 -0.2617  0.1621
15680W        W31489  16.823  12.182   3.632 -0.3366 -0.3156  0.2208
15681W        W31490   5.804   1.413   3.368 -0.0054 -0.0397 -0.2050
15682W        W31491   8.044  11.270  11.288 -0.1211 -0.0100 -0.2549
15683W        W31492  12.530   9.697   1.819 -0.0291  0.2679  0.1928
15684W        W31493  13.741  13.013  10.728 -0.0892  0.0800 -0.0215
15685W        W31494   9.852  10.175  10.882 -0.1017  0.3452 -0.1363
15686W        W31495  12.254   5.047   4.010 -0.0603 -0.1434 -0.0984
15687W        W31496   1.156   3.441  14.681 -0.1043 -0.1830 -0.2551
15688W        W31497   0.974   3.497   3.249  0.2339  0.1044 -0.3417
15689W        W31498   7.193   9.601  12.157 -0.1093  0.0097  0.0977
15690W        W31499  14.183   2.227   0.621  0.1506 -0.0558  0.2996
15691W        W31500  17.806   2.358  15.087  0.0781  0.1828 -0.1778
15692W        W31501   2.463  14.488   1.421  0.2073 -0.0277 -0.2642
15693W        W31502   4.428   3.531   4.684  0.0550  0.1328  0.2006
15694W        W31503  17.504   7.962   1.301 -0.2133 -0.1105  0.1833
15695W        W31504   4.052  15.128   4.286 -0.0393  0.1995 -0.1647
15696W        W31505   2.871  16.734  13.633  0.0300  0.0527  0.2847
15697W        W31506   8.514   8.087  11.642  0.0995  0.0300  0.0868
15698W        W31507  13.661  11.703   0.107 -0.2185 -0.2353 -0.0487
15699W        W31508  12.030  12.649  12.127 -0.0846  0.1048 -0.0430
15700W        W31509  18.422  10.887   0.891 -0.3395 -0.2102  0.3623
15701W        W31510   6.458  14.032  14.555 -0.2673  0.2202 -0.0646
15702W        W31511  11.410   5.247  14.962  0.0646 -0.1227 -0.0758
15703W        W31512  17.618   3.432   1.618  0.0503  0.1767  0.2137
15704W        W31513   2.104   9.609  14.907 -0.3970 -0.3440 -0.0383
15705W        W31514  13.781   4.747  14.408 -0.1946 -0.4083  0.0281
15706W        W31515  16.979   8.226  13.265  0.1021  0.2707 -0.0869
15707W        W31516   8.768  15.966   2.738  0.2474  0.0568 -0.0003
15708W        W31517  11.875   9.580  13.910  0.4848 -0.1776  0.1173
15709W        W31518  18.864   7.827   3.819 -0.0729  0.2373  0.1138
15710W        W31519  14.875   0.234   3.878  0.0999 -0.1672  0.1566
15711W        W31520  16.076  14.487   2.085 -0.1186  0.3453 -0.1561
15712W        W31521  17.412  11.181   2.655  0.3081  0.0471 -0.6021
15713W        W31522   1.127   0.171  10.433  0.1093  0.1232  0.0687
15714W        W31523   7.152  15.694   4.646 -0.0597 -0.1784  0.4099
15715W        W31524   1.289  17.005  10.686 -0.0272  0.1072 -0.1202
15716W        W31525   0.863  12.572  13.343  0.1276  0.0746 -0.2913
15717W        W31526   1.507   3.494   3.298  0.1913  0.0298  0.1000
15718W        W31527   9.175  16.525  13.213 -0.2384  0.1007  0.1554
15719W        W31528  18.243  10.821  10.699  0.1143 -0.1997 -0.0377
15720W        W31529  13.302   0.489  14.460  0.1297 -0.0183  0.1943
15721W        W31530  14.860   6.735   0.490  0.0421  0.4789  0.1655
15722W        W31531  13.502  16.691  14.449 -0.1191  0.0497 -0.0356
15723W        W31532   9.529  16.239  11.794  0.0514 -0.2327 -0.0715
15724W        W31533  12.421  15.798   3.755  0.0081  0.0470  0.1385
15725W        W31534   5.356  13.037  13.179  0.1430 -0.0572 -0.1433
15726W        W31535  16.647  10.334  10.936  0.1645  0.1206 -0.0660
15727W        W31536   1.431   1.089   0.574  0.3515 -0.3721 -0.0883
15728W        W31537   6.602  16.636  12.611  0.2429 -0.0977  0.3758
15729W        W31538  16.256   5.183   1.092  0.0423 -0.1938  0.1336
15730W        W31539   1.851   0.488  14.677 -0.2947 -0.3311  0.0587
15731W        W31540   3.149   7.835  12.404  0.4523  0.2687 -0.1765
15732W        W31541   7.772   5.965   3.614 -0.0989  0.0917  0.1467
15733W        W31542   7.500  18.174  12.366  0.1760  0.4023 -0.2142
15734W        W31543  18.899  13.946   3.783  0.0527  0.0206  0.2245
15735W        W31544  17.908   4.335  12.324 -0.1958  0.1994  0.1860
15736W        W31545  18.667   2.584   2.844  0.1419 -0.0350  0.0439
15737W        W31546  16.767   3.762  14.755  0.1634 -0.0548  0.0939
15738W        W31547  15.366  11.549  10.754  0.5563  0.0716 -0.0303
15739W        W31548  10.299   0.347   0.422  0.3689  0.1436  0.1399
15740W        W31549   0.102   4.761  11.464  0.1531  0.1512 -0.1254
15741W        W31550   9.567  13.791  12.212 -0.4370  0.0714  0.0048
15742W        W31551  13.611  14.764   1.727  0.0728  0.0669  0.1561
15743W        W31552  18.891   7.081  11.170  0.0404  0.0822 -0.1955
15744W        W31553  13.801   7.781   2.761  0.0522  0.0698  0.2578
15745W        W31554  17.966   8.073   1.427 -0.1243 -0.0751 -0.0780
15746W        W31555  17.727   6.058  12.628 -0.0260  0.1176 -0.3355
15747W        W31556  11.350  10.246   1.705 -0.2420  0.2297 -0.3272
15748W        W31557   6.566  12.060  14.149 -0.3311 -0.4469 -0.1270
15749W        W31558  17.583  12.961  14.380 -0.1315 -0.2214  0.0185
15750W        W31559   3.635   6.840   4.933 -0.1950 -0.0004  0.1190
15751W        W31560   9.743  16.918  12.819 -0.1912 -0.0945  0.0946
15752W        W31561  10.201  16.126   4.932 -0.0184  0.3449 -0.0040
15753W        W31562  12.399  14.240   1.078  0.2249 -0.1128  0.0577
15754W        W31563   4.509   9.871   0.537  0.0439  0.0571 -0.5085
15755W        W31564   3.041   8.325   2.129 -0.3002 -0.0605 -0.0338
15756W        W31565  11.665  15.992  14.805 -0.0048 -0.0754 -0.4905
15757W        W31566  16.072   3.224   3.928 -0.0510 -0.0439 -0.0820
15758W        W31567  11.664   7.458   2.649 -0.1221  0.2534  0.0227
15759W        W31568  14.845  12.948  11.733 -0.0314  0.0804  0.1635
15760W        W31569   5.453  16.301   3.510 -0.0172  0.4627  0.1552
15761W        W31570  10.660   3.898  11.558 -0.0125 -0.1809 -0.1629
15762W        W31571  15.045   0.923  11.161  0.1778  0.1138  0.1416
15763W        W31572   3.947   7.638  10.086  0.0079  0.3421 -0.0095
15764W        W31573  13.776   0.422  14.405  0.1155 -0.0830  0.1832
15765W        W31574   4.559  13.696   5.670 -0.0777 -0.1659 -0.0831
15766W        W31575  18.799  14.304   4.202  0.2178 -0.0044 -0.3291
15767W        W31576   9.387  13.459   3.450  0.2889 -0.2491  0.0207
15768W        W31577  16.998  10.968   9.336 -0.2193  0.1530  0.1594
15769W        W31578  15.081  14.701   1.113  0.1272 -0.4746  0.1169
15770W        W31579   5.208  17.004   3.112  0.4657  0.0674 -0.6608
15771W        W31580  16.407  18.367  15.138  0.2723  0.1163 -0.0492
15772W        W31581   0.796  15.651  11.427 -0.1483 -0.0604  0.0024
15773W        W31582  16.175  10.924   0.024  0.1528  0.0131 -0.3537
15774W        W31583   2.478  10.325  12.089  0.0931  0.0916 -0.3917
15775W        W31584   9.785  15.806  13.820 -0.2333  0.0501 -0.1102
15776W        W31585  12.232   4.855  11.606  0.1531 -0.0200  0.3149
15777W        W31586  13.900  15.481   0.480 -0.2137 -0.0486  0.0260
15778W        W31587   7.129   2.113   4.623 -0.1252 -0.1425  0.1329
15779W        W31588   4.768  15.692  14.687 -0.0706 -0.0730  0.1202
15780W        W31589   4.713   3.135   3.658  0.2164 -0.1195  0.2988
15781W        W31590   3.449  15.871   2.652 -0.5061  0.0144  0.2438
15782W        W31591  11.187  16.628  14.458 -0.1924  0.1279  0.1968
15783W        W31592  11.141  12.670  12.391  0.1789 -0.2087  0.0516
15784W        W31593   1.536   1.484   0.998 -0.1708  0.1422  0.1232
15785W        W31594   9.346  12.413  14.033 -0.1435 -0.0380  0.1529
15786W        W31595  16.371   9.024  11.441 -0.1774  0.1101 -0.1094
15787W        W31596   5.073  16.978  14.514 -0.5152  0.1089  0.0269
15788W        W31597  10.998  14.167   2.689  0.0776 -0.3220 -0.1426
15789W        W31598  12.477  13.679   1.127 -0.1284  0.0695 -0.0921
15790W        W31599  17.847   1.751   0.417  0.1370  0.1362  0.1609
15791W        W31600   5.244   4.832  11.833  0.0504 -0.1820  0.0705
15792W        W31601   6.181  14.895  13.492  0.0360  0.1183  0.0013
15793W        W31602  17.628   5.927  14.566 -0.1921 -0.0845  0.0439
15794W        W31603  11.222   4.390  14.327  0.0959 -0.3628 -0.3248
15795W        W31604  11.894   3.865   4.954 -0.0996  0.0173  0.1130
15796W        W31605  14.950   7.171  12.630  0.0125  0.0891  0.0634
15797W        W31606  14.185  13.149  10.854 -0.1816 -0.1444  0.1573
15798W        W31607   8.403   8.723   2.345  0.0312  0.1613 -0.1822
15799W        W31608   3.932  15.726  13.195  0.3769 -0.2384 -0.1614
15800W        W31609  17.384  18.194   1.760  0.2694 -0.1495  0.0913
15801W        W31610  18.879   8.917   2.157 -0.1809  0.0043  0.1949
15802W        W31611   2.468   8.449  12.233  0.0599 -0.1026  0.0484
15803W        W31612  15.805   8.293   1.659  0.1754  0.2753 -0.1173
15804W        W31613   4.165   7.819  12.617 -0.0807  0.0016 -0.2207
15805W        W31614   1.880   9.516   0.642 -0.1128  0.0628  0.2426
15806W        W31615  11.467  16.522  11.618 -0.0874  0.2707  0.2503
15807W        W31616   1.903   7.637  15.243  0.1361  0.0640  0.2057
15808W        W31617  18.733  11.158   2.897 -0.0541 -0.1408  0.3123
15809W        W31618  18.363  14.555  15.279  0.3709 -0.0167  0.0356
15810W        W31619  13.749  15.593  11.956 -0.1185  0.1766 -0.1813
15811W        W31620  13.570  13.920   2.338 -0.0639  0.0861  0.0344
15812W        W31621   0.479  14.678   0.610 -0.1790  0.3643 -0.0045
15813W        W31622  11.309  15.702   4.624  0.2344 -0.1922 -0.0736
15814W        W31623  13.087  14.912   1.527 -0.0691  0.1991  0.0997
15815W        W31624  17.015  14.918  12.804  0.0750 -0.1964  0.1096
15816W        W31625  11.120   9.465   0.442 -0.0126  0.2288 -0.4652
15817W        W31626  15.728  13.874   4.783 -0.3602 -0.1660 -0.2838
15818W        W31627  13.626   9.269   3.790 -0.1461 -0.1755  0.5956
15819W        W31628   3.053   9.301   3.459 -0.0343  0.2579 -0.0173
15820W        W31629  11.505  15.431   1.988  0.0914 -0.0222  0.0446
15821W        W31630   1.551   9.656  13.657 -0.0149 -0.2414 -0.5416
15822W        W31631  17.595   5.633   1.313 -0.3062  0.0104 -0.3875
15823W        W31632  13.993  11.668  10.084 -0.1388  0.0013 -0.1235
15824W        W31633  13.204   1.479   9.873 -0.0610 -0.1036  0.2520
15825W        W31634   8.244   3.959  10.631  0.2184  0.1769 -0.4540
15826W        W31635   1.207   0.283   3.287 -0.0211  0.1393 -0.1873
15827W        W31636  15.614   7.524  12.562  0.0514 -0.0506  0.1087
15828W        W31637  18.815  15.802  13.232 -0.1145  0.1666  0.1002
15829W        W31638   5.142   7.867   3.533  0.2038 -0.0637 -0.3110
15830W        W31639   5.665   4.404   1.467 -0.3183 -0.0037 -0.2003
15831W        W31640   6.400   7.537   3.769  0.2849 -0.2268 -0.1524
15832W        W31641   7.813  16.148   4.043 -0.0854  0.3918  0.1549
15833W        W31642  11.880   7.375  12.910  0.1910 -0.2158 -0.0570
15834W        W31643   0.803   2.183  14.867  0.0540  0.0436  0.1825
15835W        W31644   4.548  12.482   3.614  0.4343 -0.2228  0.0159
15836W        W31645  11.016   9.567  15.385  0.1393 -0.1848  0.2264
15837W        W31646   8.699   3.766   3.263  0.3244 -0.0057  0.0093
15838W        W31647   9.853  16.683   4.455  0.3147 -0.2466 -0.1824
15839W        W31648   6.019  16.536   0.753 -0.1764  0.1908 -0.2242
15840W        W31649  12.023   7.462  10.985 -0.0301 -0.2640  0.1135
15841W        W31650  11.379   6.402  11.319 -0.3923  0.3592 -0.1103
15842W        W31651  17.537  13.553  12.554  0.3651 -0.1066 -0.0278
15843W        W31652   9.671  10.271   4.619 -0.0423  0.0888 -0.1277
15844W        W31653  11.354   5.976   1.079  0.1516 -0.0585  0.0779
15845W        W31654  16.239   3.269  13.687 -0.3981 -0.1236  0.0860
15846W        W31655  16.763   6.695   3.575  0.2189  0.3406 -0.7059
15847W        W31656  17.034   3.062   4.015  0.0606 -0.1913 -0.0992
15848W        W31657   6.660   0.040   4.549  0.3627  0.0723 -0.3020
15849W        W31658  12.949  16.379  14.612 -0.2203 -0.1251  0.2076
15850W        W31659   8.191  13.022  11.182 -0.2923 -0.0989 -0.0845
15851W        W31660   0.385   2.918   0.041  0.1439 -0.1837  0.0726
15852W        W31661  15.668   0.147   1.678  0.0521 -0.0088  0.0239
15853W        W31662   8.039  10.190   3.343  0.0442  0.0303 -0.2781
15854W        W31663  15.091   1.325  11.477 -0.1878 -0.1205 -0.0277
15855W        W31664  14.319   5.416   4.002  0.1732 -0.0205  0.1315
15856W        W31665   3.836  15.571  13.690  0.4113  0.3325  0.0977
15857W        W31666   6.565   2.136   1.016  0.2370 -0.0633 -0.2150
15858W        W31667  10.995  14.210   3.437 -0.2041  0.1569 -0.1101
15859W        W31668  10.335  14.719  12.354  0.3326  0.0191 -0.4232
15860W        W31669   6.315   5.095   2.902 -0.0453  0.1208  0.0230
15861W        W31670  18.619  12.697  11.979 -0.1367 -0.0603  0.0958
15862W        W31671   8.582  11.916  10.720  0.1516 -0.1777 -0.0009
15863W        W31672  11.736  10.592  10.639 -0.1456  0.0771 -0.1836
15864W        W31673  18.655  14.444   1.499  0.1349 -0.0211 -0.1606
15865W        W31674  12.334  11.310  12.007  0.1251 -0.1073 -0.1921
15866W        W31675   9.146  16.466  14.153 -0.0502 -0.0267  0.0329
15867W        W31676   5.303   3.122   2.456  0.0727  0.0445  0.2622
15868W        W31677   5.857   9.942   0.364  0.1417  0.0756  0.3957
15869W        W31678   9.110   5.727   3.069  0.0168 -0.2021  0.1827
15870W        W31679   0.268   8.979   5.410 -0.2485  0.2423 -0.2285
15871W        W31680   1.963   1.955  12.953 -0.4265 -0.0928 -0.2384
15872W        W31681  18.826  15.701  11.694  0.3064  0.0076 -0.2001
15873W        W31682   7.278   4.486   3.290  0.3234 -0.1654  0.1582
15874W        W31683  18.247  13.411   0.649  0.0908  0.1152 -0.0283
15875W        W31684   3.870   1.464   3.567 -0.0234  0.0296 -0.0841
15876W        W31685  16.269   6.845  15.027 -0.0199  0.0894 -0.1089
15877W        W31686   7.948  14.101  14.771  0.0526  0.3305  0.0581
15878W        W31687  16.901   1.773  11.220 -0.2125  0.1544  0.1456
15879W        W31688   6.226   9.894   1.834  0.2103 -0.0065 -0.1247
15880W        W31689   1.791   4.175   3.884 -0.1140  0.2742 -0.0305
15881W        W31690  14.336   9.525   2.697 -0.1336  0.1917  0.0248
15882W        W31691   9.866   1.572  13.930 -0.3070 -0.1289 -0.0768
15883W        W31692   2.914  11.319  10.667  0.1248 -0.1489 -0.2390
15884W        W31693   5.583   7.640   0.552 -0.0813 -0.1889  0.0423
15885W        W31694   7.269   3.439  11.828 -0.1267 -0.2883 -0.0828
15886W        W31695   2.696  15.816  13.080 -0.2853  0.1090 -0.0367
15887W        W31696  12.426   0.864  12.568 -0.2832  0.0104 -0.0759
15888W        W31697  11.924  15.721  10.808 -0.4199 -0.0602  0.1346
15889W        W31698   6.700  12.650   2.009 -0.0875 -0.2458  0.2171
15890W        W31699   5.057  18.364  13.406  0.4874  0.1924 -0.0398
15891W        W31700   1.070   2.248   1.229  0.1851  0.1783 -0.0273
15892W        W31701   5.565  10.308   1.242 -0.0668  0.1125 -0.0386
15893W        W31702   7.069  11.279  13.835  0.3578  0.0901  0.2033
15894W        W31703   1.072  15.017   0.150  0.0703 -0.2239  0.2181
15895W        W31704   5.845  18.284   0.520  0.0496  0.1654 -0.2157
15896W        W31705   7.627  11.455   2.966 -0.0796 -0.2169 -0.2465
15897W        W31706  15.153  17.734   4.173  0.0333 -0.1830 -0.0968
15898W        W31707  18.556   8.488  15.109  0.0764  0.5087 -0.2291
15899W        W31708   5.584  15.909   0.881  0.1028  0.0982 -0.1267
15900W        W31709  17.979  14.607  10.516 -0.0268 -0.0853 -0.1465
15901W        W31710   5.498   7.250  14.924  0.2324 -0.0198 -0.4045
15902W        W31711   3.294   6.830   0.432 -0.1975  0.1085  0.0586
15903W        W31712  12.761   0.155   4.588  0.0053  0.0500  0.0967
15904W        W31713  14.526  17.314   3.678 -0.2303  0.1167  0.1125
15905W        W31714   4.976   2.689  13.698  0.3211 -0.1024  0.0686
15906W        W31715  10.253  12.912   3.873 -0.0728 -0.2330 -0.0511
15907W        W31716   2.276   6.595   2.108 -0.1599 -0.0314 -0.4022
15908W        W31717   4.544   8.868   0.041 -0.2723 -0.0973  0.0452
15909W        W31718   5.353  12.582   1.240  0.1297 -0.2774 -0.1212
15910W        W31719  10.212   3.298  14.690 -0.2275  0.0811  0.0971
15911W        W31720   9.024   6.635  11.378  0.1104  0.1201 -0.3277
15912W        W31721  15.170  15.825   2.456  0.1161 -0.3170 -0.0001
15913W        W31722   0.885   6.392  13.539  0.1153  0.1019  0.5105
15914W        W31723  18.081   1.377  12.231 -0.1251  0.1700  0.1378
15915W        W31724  12.876   6.031  13.137 -0.1231 -0.0499 -0.0688
15916W        W31725  10.218  11.588  11.823  0.0054 -0.1167  0.1079
15917W        W31726  16.545  13.765   3.668  0.2118 -0.2265  0.1945
15918W        W31727  16.191   5.042  14.743 -0.0512 -0.3445  0.1869
15919W        W31728   8.185  10.466   1.954 -0.0583 -0.0372  0.3218
15920W        W31729  12.569   9.549   2.707  0.0199  0.2615  0.0310
15921W        W31730  11.578  15.105  10.890  0.4282  0.1026  0.3544
15922W        W31731   1.546  11.251   3.680 -0.1464  0.1479  0.1360
15923W        W31732  10.437   0.091   3.810  0.1197  0.0791  0.0345
15924W        W31733  11.159   3.704   3.601 -0.0700  0.1073  0.0200
15925W        W31734  10.188  10.104  14.567  0.1666  0.0406 -0.1360
15926W        W31735   9.576   2.636  13.159  0.1173  0.0044 -0.4156
15927W        W31736   5.317  17.664   2.168  0.0432  0.1723 -0.0947
15928W        W31737  18.479  13.670  13.441  0.0986 -0.1670  0.2661
15929W        W31738  11.063   4.865   2.604  0.3098 -0.1307 -0.0978
15930W        W31739   0.729   5.108   2.077  0.3546  0.1221 -0.3180
15931W        W31740  14.742   4.521  11.826  0.0347  0.0277 -0.1064
15932W        W31741  18.148  13.425   2.299 -0.0532 -0.4746  0.0633
15933W        W31742  18.093  12.395  12.199  0.0771 -0.1818 -0.1297
15934W        W31743   5.765  13.384   1.328 -0.1171  0.0231 -0.0117
15935W        W31744   2.486  18.070  12.164  0.0504  0.3849 -0.0847
15936W        W31745   9.705   7.720   4.769 -0.0189  0.1755 -0.3350
15937W        W31746  15.306  17.057  13.270 -0.4334 -0.1626  0.2908
15938W        W31747  15.041   7.444   2.288 -0.1137  0.1617  0.0374
15939W        W31748  16.371  17.028   2.011 -0.1253  0.0341  0.2953
15940W        W31749  10.455   3.375  12.656  0.1235  0.1080 -0.1646
15941W        W31750   9.290   5.257  15.104 -0.3357  0.1615  0.0027
15942W        W31751   2.888  16.791   0.614 -0.0677 -0.0671 -0.1275
15943W        W31752  14.866  11.192   0.866  0.0175  0.0259  0.2842
15944W        W31753   5.710   5.683   2.421  0.0060  0.2279 -0.2354
15945W        W31754   7.263  12.016  11.529  0.2574  0.4347  0.0676
15946W        W31755  15.444   7.021   2.292  0.2478 -0.2928 -0.2036
15947W        W31756   1.831   2.936  14.219 -0.0245  0.0279  0.1923
15948W        W31757  15.238  17.808  11.699  0.1777  0.2303 -0.0666
15949W        W31758   0.189  16.669  14.482 -0.4503 -0.3564 -0.1260
15950W        W31759  14.675   8.862   2.841  0.0538  0.2593 -0.0999
15951W        W31760  15.170  11.003  13.902 -0.0181  0.1368 -0.2904
15952W        W31761  10.946   9.005  10.091 -0.3396 -0.2044  0.0138
15953W        W31762   3.540  13.888   4.836  0.0556  0.1144 -0.0323
15954W        W31763   7.822   1.626   0.062  0.1712  0.0488 -0.0876
15955W        W31764   6.960  11.301   4.537  0.0761  0.0900 -0.1800
15956W        W31765  11.448  16.655  13.029 -0.2320  0.1732 -0.0239
15957W        W31766  11.891  13.538   3.017 -0.4213 -0.0130  0.2166
15958W        W31767   7.274  17.188   1.764 -0.0418  0.2746  0.2440
15959W        W31768   8.164  16.138   0.558  0.0577  0.3321 -0.0566
15960W        W31769  13.141   5.887   0.613 -0.0692  0.0725 -0.1439
15961W        W31770  14.192   3.892   0.792  0.0387  0.2707 -0.2678
15962W        W31771  12.506   7.877   1.605 -0.3028 -0.0996  0.1882
15963W        W31772  11.883   2.276  12.321 -0.0968 -0.2274  0.2911
15964W        W31773   9.873  13.870  11.407  0.1049 -0.0539  0.1411
15965W        W31774  18.410   0.589  12.313 -0.1531 -0.2514 -0.5588
15966W        W31775   7.838   6.369   1.474 -0.2312 -0.1930 -0.0417
15967W        W31776   4.278  14.274   1.555 -0.0248 -0.0143  0.0191
15968W        W31777   1.536   1.161  13.896 -0.1538 -0.1342 -0.0682
15969W        W31778   4.460   9.096  14.985 -0.0942  0.2268  0.0845
15970W        W31779  11.682   4.335   0.462  0.0579 -0.3068  0.0934
15971W        W31780   6.053  13.457   3.830 -0.2076 -0.1927 -0.0365
15972W        W31781  14.921   0.066   1.856  0.0118  0.1673 -0.0293
15973W        W31782   9.432   4.317   4.720 -0.2158 -0.2432 -0.0797
15974W        W31783   1.129   1.613   2.420 -0.0605 -0.0669 -0.1177
15975W        W31784  10.653   3.441   5.077 -0.1651 -0.0469  0.0284
15976W        W31785   1.813   6.289   5.314  0.2473 -0.4284 -0.2959
15977W        W31786   2.880  11.439  14.510 -0.0703 -0.1923  0.0927
15978W        W31787  15.121   1.654   2.902 -0.1842 -0.2449 -0.4365
15979W        W31788  13.835  11.002  12.728 -0.3826 -0.0823 -0.1435
15980W        W31789   9.739   2.306  11.475 -0.1267  0.2596  0.1664
15981W        W31790   9.240  15.045   1.827 -0.0658 -0.1634  0.1590
15982W        W31791  10.319  16.421  11.383  0.0632 -0.0888 -0.1964
15983W        W31792  14.864  12.152  12.194  0.1552  0.0039  0.5045
15984W        W31793  15.373   9.917  11.935 -0.1098  0.1874 -0.0775
15985W        W31794  11.777   3.901  13.370  0.0898 -0.0972 -0.1144
15986W        W31795  11.095  13.359   3.503 -0.1038 -0.0882  0.0376
15987W        W31796   4.710  18.214   1.560  0.2868  0.1326  0.1979
15988W        W31797   6.476  17.711  11.121  0.3030 -0.1407  0.3063
15989W        W31798   3.487  17.925   4.647 -0.0330 -0.1025  0.1443
15990W        W31799   4.879   3.841   0.212  0.2784 -0.1424  0.0918
15991W        W31800   1.733   9.198   1.802 -0.1533 -0.1183  0.2559
15992W        W31801   7.592  15.454   1.614 -0.1512 -0.1022  0.0822
15993W        W31802  10.810   3.024  14.022 -0.0760  0.3127  0.1599
15994W        W31803   8.501   7.717   9.276 -0.2181  0.2026 -0.5276
15995W        W31804   3.901   2.417   0.082 -0.3517 -0.2236 -0.1282
15996W        W31805   9.399  13.712   1.392 -0.0962 -0.1213 -0.0680
15997W        W31806   6.727   7.022   5.246  0.2339  0.0403 -0.0543
15998W        W31807   7.599   3.629  10.099 -0.0793 -0.0027 -0.1008
15999W        W31808   6.759  12.961  11.383 -0.1973 -0.0604 -0.1873
16000W        W31809   2.544   1.310  12.636  0.1482  0.1334 -0.0520
16001W        W31810   1.318   3.925  14.386 -0.1222  0.1552  0.1832
16002W        W31811   4.596  11.354  15.010  0.0560  0.0087 -0.0487
16003W        W31812   3.146  13.873  12.078 -0.5053 -0.2469 -0.2425
16004W        W31813  18.209   4.796  12.453 -0.5227 -0.0802 -0.1132
16005W        W31814  18.426  10.478   1.481 -0.0800  0.0922  0.2713
16006W        W31815   5.807   6.160   4.711 -0.0637  0.0923  0.3107
16007W        W31816  13.485   4.278   1.668  0.0101  0.0136  0.2282
16008W        W31817  11.364  17.294   3.885 -0.0157 -0.0972  0.1846
16009W        W31818   6.959  11.144   3.851 -0.2387 -0.2238  0.2324
16010W        W31819   2.085   6.248   4.328  0.1481 -0.0785  0.4345
16011W        W31820  12.376  15.421  10.797  0.0688  0.0430 -0.0029
16012W        W31821  12.808  14.304   0.055 -0.0526  0.0100  0.0460
16013W        W31822  14.601   9.718  10.013 -0.0130  0.0868  0.4396
16014W        W31823   6.203  14.296  13.179  0.1470 -0.0855 -0.0699
16015W        W31824  11.728  10.358   4.675  0.2733  0.1471 -0.0793
16016W        W31825   9.815   6.884   2.819  0.1641 -0.4174  0.0761
16017W        W31826  17.635  15.099  11.933  0.1057 -0.3435  0.4535
16018W        W31827  12.610   4.225   9.903  0.2120  0.2917 -0.1400
16019W        W31828  17.947   0.225   9.850  0.1305  0.2380  0.1425
16020W        W31829   4.132   3.740  15.045 -0.3097  0.1327  0.1487
16021W        W31830   2.088  12.554   1.070 -0.4953 -0.1151  0.0215
16022W        W31831  16.307   4.888   4.884  0.0966  0.0950  0.0928
16023W        W31832   7.421  18.283   0.928 -0.1724 -0.2456 -0.0761
16024W        W31833  17.633   3.105   3.369 -0.0252 -0.0553  0.0720
16025W        W31834  10.282   8.457  13.921  0.0867  0.2002 -0.1106
16026W        W31835   3.424   6.306   4.161 -0.0118 -0.3227  0.0116
16027W        W31836  16.606   5.067   3.960 -0.2081  0.1761  0.0434
16028W        W31837  13.178  15.647  10.633 -0.2576  0.0997  0.5080
16029W        W31838   8.592   9.823   2.475 -0.4220 -0.1469  0.2398
16030W        W31839   5.004   6.267   0.958  0.2082 -0.0207  0.0557
16031W        W31840   8.009   7.625   5.847 -0.3263 -0.1284  0.1413
16032W        W31841  17.232   1.550   3.703  0.0033 -0.0555 -0.2112
16033W        W31842  13.534  11.352   3.079 -0.0061 -0.1735 -0.0421
16034W        W31843  16.554   3.480  10.406 -0.0675  0.1668  0.1966
16035W        W31844   1.786  18.558   2.458  0.2626  0.2317  0.0402
16036W        W31845   1.373  10.070  14.387 -0.0493  0.2700 -0.1260
16037W        W31846  18.116   0.536   3.644  0.0554  0.0910  0.1683
16038W        W31847  14.133  14.574   4.955 -0.2090  0.1375  0.1511
16039W        W31848   6.324   5.613   1.016  0.0267 -0.1626  0.1160
16040W        W31849   4.250   0.316   1.742  0.3240 -0.2317 -0.1490
16041W        W31850   4.941   1.910   2.999 -0.2346  0.0325 -0.1301
16042W        W31851   1.393  18.214  13.081  0.0729  0.0823 -0.2321
16043W        W31852   9.027  13.097  14.324  0.2409  0.1868  0.0614
16044W        W31853   5.528   9.309   0.943  0.0180 -0.0337 -0.1699
16045W        W31854  11.409  17.505   1.873  0.0202  0.1518  0.1214
16046W        W31855  18.863   1.542  14.004 -0.1438  0.1832 -0.0121
16047W        W31856   2.310   8.388  14.938 -0.1292  0.0122 -0.2187
16048W        W31857  11.530   9.951  10.492 -0.1055 -0.2688  0.1581
16049W        W31858   1.379   0.914  10.739  0.0973  0.0092 -0.2058
16050W        W31859  18.716  18.091  14.514 -0.0653 -0.0182 -0.0714
16051W        W31860   4.737   1.534   0.988  0.5905  0.0410 -0.0148
16052W        W31861   9.631  12.486   0.541  0.1429 -0.1343  0.1160
16053W        W31862  11.973  16.030   3.810 -0.3175 -0.2446 -0.0171
16054W        W31863  17.233   4.874  15.116  0.2012  0.0422 -0.0307
16055W        W31864   6.565   3.551   4.034 -0.1243 -0.0761  0.2695
16056W        W31865  11.732   9.586   1.203 -0.0693 -0.3292  0.1893
16057W        W31866  16.552   8.506   4.922 -0.3768  0.0745  0.1789
16058W        W31867  17.712  14.039  12.947  0.1555 -0.0457  0.4550
16059W        W31868  11.017   7.382   4.764 -0.0655 -0.0144  0.1148
16060W        W31869   0.424  15.043  10.674 -0.4962 -0.0764  0.3656
16061W        W31870   3.868   6.488   2.913  0.0729  0.1642  0.4269
16062W        W31871   3.723   5.061  11.541 -0.2758  0.0793  0.0435
16063W        W31872  16.672  13.629  15.216 -0.0754  0.1427 -0.1095
16064W        W31873  12.341   8.840   4.196  0.3877 -0.0819  0.3562
16065W        W31874  17.986   9.243   0.158 -0.0503  0.0701  0.0202
16066W        W31875   6.800   6.629   1.669 -0.2544 -0.1413  0.2879
16067W        W31876  11.965   8.993  11.549 -0.5634  0.2152 -0.1037
16068W        W31877  11.541   6.088  14.791  0.1378  0.0137  0.0172
16069W        W31878  11.705  18.653   4.948  0.0287  0.2371 -0.0628
16070W        W31879  16.951  18.225   1.553 -0.1781  0.2137  0.1320
16071W        W31880   2.717   2.931   4.566  0.0516  0.0572  0.2962
16072W        W31881  13.153   3.597  11.528  0.1159  0.4488  0.4460
16073W        W31882   4.052   7.881  14.467 -0.1644  0.0012  0.4790
16074W        W31883  10.107  14.759  14.759 -0.1305 -0.1244  0.1808
16075W        W31884  16.498  14.689   2.317  0.5120 -0.1652  0.1193
16076W        W31885  17.731  10.528  15.381  0.1564 -0.3710  0.3375
16077W        W31886  16.577   8.717   2.027  0.0671 -0.3531  0.1562
16078W        W31887   3.896   1.229  13.440  0.0011 -0.0030 -0.0461
16079W        W31888  10.055  13.800   5.008  0.0494  0.0361  0.4568
16080W        W31889   1.435   2.657   4.308  0.0769  0.0814 -0.0342
16081W        W31890   7.294  16.990  11.981  0.1051 -0.1562  0.1426
16082W        W31891   4.194  11.475  12.586  0.2246  0.1046 -0.4912
16083W        W31892   6.054   6.482   3.117  0.1922 -0.0291  0.0966
16084W        W31893  13.377   2.371  12.018 -0.0002  0.2147 -0.1734
16085W        W31894  13.804   0.442  11.172 -0.1111 -0.1212  0.0614
16086W        W31895   8.735   8.241  13.332 -0.1124  0.1108  0.1665
16087W        W31896  18.697  12.907   5.397 -0.1724 -0.0994  0.4483
16088W        W31897  10.008  16.427   2.992  0.3827 -0.0544  0.1280
16089W        W31898   4.174  12.478  13.558  0.0047  0.1968  0.0489
16090W        W31899   4.457  17.384  10.768 -0.1677 -0.3470  0.1636
16091W        W31900   5.450  16.661  14.546  0.1082  0.3014  0.1116
16092W        W31901  11.046  15.058  14.573  0.0586 -0.1513  0.0651
16093W        W31902   9.493  12.259  15.302 -0.0292 -0.1254 -0.0283
16094W        W31903  11.819   8.013   2.409 -0.1201  0.2384  0.0468
16095W        W31904   2.823   4.771  14.601 -0.1213 -0.3937  0.0513
16096W        W31905  16.797  12.755   4.324 -0.1336  0.0319 -0.0557
16097W        W31906   0.223  17.460  11.709  0.3884 -0.0065  0.0442
16098W        W31907  14.757  17.721   0.856  0.1573 -0.3587 -0.2661
16099W        W31908  10.789   3.946   4.286  0.0163 -0.0856 -0.0610
16100W        W31909  14.612  10.868   2.160 -0.0625  0.0454  0.0539
16101W        W31910  12.412   8.787   5.861 -0.0987 -0.1365 -0.3796
16102W        W31911   3.364   5.697  14.557  0.0473 -0.3818  0.0938
16103W        W31912   0.056  13.650   1.188  0.3030 -0.3285  0.1119
16104W        W31913  18.502   3.508   0.257  0.0186 -0.0423  0.1147
16105W        W31914  13.924   9.591   3.037 -0.0253 -0.2083 -0.0393
16106W        W31915   3.778  12.380  11.837 -0.2052  0.3836 -0.0105
16107W        W31916   2.882  15.791   0.399  0.2173 -0.1651 -0.2027
16108W        W31917  16.643   6.325  11.027 -0.1481  0.0656 -0.0122
16109W        W31918   4.839  12.848   3.815  0.0260 -0.2369  0.2807
16110W        W31919   6.819   9.636   4.841  0.1516 -0.0426 -0.0454
16111W        W31920   7.065   6.974  10.370  0.4808  0.1806  0.1153
16112W        W31921  12.429  15.391  12.523 -0.4463  0.1229 -0.1444
16113W        W31922   3.130   2.850  13.630  0.1142 -0.2388  0.0843
16114W        W31923  14.942   5.993  11.680  0.1980 -0.2711 -0.1492
16115W        W31924   4.832   4.253  15.320  0.1307 -0.1141  0.1779
16116W        W31925   8.421  14.163   4.488  0.0397  0.4862  0.1906
16117W        W31926   6.098   2.666   4.213  0.0422 -0.2037 -0.2018
16118W        W31927   8.108  10.415  14.013  0.0384 -0.1135 -0.4102
16119W        W31928  13.206  13.272   0.050  0.0067  0.1416  0.0422
16120W        W31929   1.397   3.476  15.167  0.0037  0.2557  0.2873
16121W        W31930  17.344   7.381  11.587  0.2295  0.0168  0.1800
16122W        W31931   7.772   2.224   4.553  0.2772  0.3396 -0.1457
16123W        W31932  10.434   0.295   1.941 -0.2342 -0.1613  0.2805
16124W        W31933   1.883   7.545   2.775 -0.0232  0.2131  0.0016
16125W        W31934   7.559   6.583  11.004  0.1604  0.1630  0.2111
16126W        W31935  16.310   7.766   5.071  0.1586 -0.1589 -0.3731
16127W        W31936   6.054  17.957  11.961 -0.0213  0.0973  0.2478
16128W        W31937   6.462   5.249  11.413  0.1976  0.2135  0.2104
16129W        W31938   9.799  18.799  14.314  0.0302  0.3043 -0.1307
16130W        W31939  10.536   4.495   3.490 -0.0304  0.0394  0.1842
16131W        W31940   8.143   8.629   1.893 -0.0879 -0.2113 -0.3452
16132W        W31941   2.169  10.440   2.176  0.1333 -0.2219 -0.1017
16133W        W31942  16.522   6.861  11.195  0.4015  0.0025  0.1066
16134W        W31943  14.319  13.100   2.276 -0.0462  0.1747  0.0763
16135W        W31944   3.567  11.644   5.204 -0.0510 -0.1484  0.2997
16136W        W31945  13.486  10.228  12.034  0.0545  0.0091 -0.1464
16137W        W31946   5.308  14.918   0.932  0.1168  0.2087  0.2034
16138W        W31947  13.108  18.040   1.732 -0.1333 -0.1723  0.0055
16139W        W31948   3.050  15.601  10.079 -0.0189  0.0010  0.0846
16140W        W31949   8.882  14.680  14.166 -0.0336 -0.1862  0.0571
16141W        W31950   1.758   1.859   1.950  0.0116 -0.2135  0.0699
16142W        W31951   9.820  11.098  10.102 -0.2639 -0.1095  0.1015
16143W        W31952  17.092  16.796  15.190 -0.0789 -0.0812  0.1006
16144W        W31953   9.191  11.300  10.158  0.1646  0.1486 -0.1383
16145W        W31954   2.684  11.241   0.827 -0.0873  0.1775  0.2022
16146W        W31955   6.094   5.971   2.268  0.1517  0.0974 -0.4968
16147W        W31956   2.179   0.315  11.953  0.1080  0.0292 -0.1183
16148W        W31957   7.068   6.505   0.347  0.1637  0.1080 -0.0683
16149W        W31958  12.780   9.496  13.827 -0.1079 -0.0976  0.0449
16150W        W31959  18.421   0.611   5.193 -0.0426 -0.1666  0.0489
16151W        W31960   1.845   2.314  11.820  0.1405  0.2266 -0.1974
16152W        W31961   6.493   7.823   0.232  0.1610  0.2593 -0.0330
16153W        W31962   5.205   6.848  14.857 -0.3232  0.3949  0.0009
16154W        W31963  16.429   1.914  10.616  0.0466  0.0702 -0.0982
16155W        W31964   3.832  12.453   3.015 -0.1310  0.1108  0.1002
16156W        W31965   0.657   8.234  12.912 -0.0758  0.3837 -0.0442
16157W        W31966   2.189  17.886   3.493  0.0025  0.3308  0.0893
16158W        W31967   3.922  18.654  11.124 -0.0590  0.1625 -0.2313
16159W        W31968   8.804  11.008  13.652 -0.0959 -0.0352 -0.0112
16160W        W31969   5.233  14.881  14.429 -0.2138  0.0582  0.0384
16161W        W31970   4.791  12.387  12.116  0.0313 -0.0046  0.0267
16162W        W31971  12.977   3.905  11.171  0.3453 -0.2274  0.3084
16163W        W31972  16.130  11.563  14.293  0.0863  0.2458  0.1613
16164W        W31973  10.058   6.593   1.160 -0.0602 -0.2292  0.1208
16165W        W31974   0.036   1.506  13.542  0.0487  0.1345  0.0576
16166W        W31975   2.775   9.897  11.927 -0.1556 -0.2703 -0.0140
16167W        W31976  17.949  18.906   0.060  0.0441  0.0842  0.1212
16168W        W31977   2.379   3.703   5.286  0.2230 -0.1488 -0.1087
16169W        W31978   2.465   8.545   5.009  0.3626  0.1445  0.2086
16170W        W31979   0.206   3.468   0.145 -0.3692  0.0933  0.1532
16171W        W31980   0.361   7.540   0.451  0.0370 -0.3331  0.1315
16172W        W31981  17.401  10.954  14.026 -0.1803  0.0540  0.0560
16173W        W31982   3.206  11.245   2.227  0.1932 -0.2715 -0.1463
16174W        W31983   1.114   1.939  15.196  0.1031 -0.2232 -0.2376
16175W        W31984   1.705   1.596   3.814  0.3664 -0.4354  0.3103
16176W        W31985  12.584  16.153  14.890  0.0082 -0.0026  0.1596
16177W        W31986  14.268   0.135  11.263  0.1171 -0.1440  0.0482
16178W        W31987   6.873  12.169   4.743 -0.0014 -0.0403 -0.0567
16179W        W31988  14.061   9.858   1.235  0.1949 -0.1258  0.0643
16180W        W31989  15.038   3.168  11.818 -0.0512  0.1627 -0.1012
16181W        W31990  16.418  14.692   1.803 -0.2026 -0.1614 -0.3336
16182W        W31991   8.309   1.147  15.139 -0.0748 -0.1274  0.4269
16183W        W31992   7.297  15.648   3.020 -0.1701  0.0823 -0.3018
16184W        W31993   0.776   0.765  15.439 -0.0346  0.2128 -0.1439
16185W        W31994   0.087  14.737   3.995  0.0771 -0.1179 -0.1676
16186W        W31995   3.603   7.041   4.502 -0.1100 -0.1198  0.0824
16187W        W31996   4.503   3.012   3.015  0.1765 -0.1737  0.1847
16188W        W31997  12.562   1.802  13.020  0.1102 -0.0240  0.0464
16189W        W31998  16.403   1.245  11.284 -0.0651 -0.3336 -0.0264
16190W        W31999   4.500   3.720   5.281  0.1276  0.0091  0.2695
16191W        W32000   0.474   2.184  12.592  0.1131  0.3759 -0.1287
16192W        W32001   2.791  12.439   3.129  0.1581  0.2741  0.1807
16193W        W32002  13.330  12.080   4.498 -0.0533 -0.1960 -0.2549
16194W        W32003   9.296  17.572  13.144 -0.4234 -0.0502 -0.0932
16195W        W32004  18.904  15.367  13.540  0.5061  0.0289 -0.1207
16196W        W32005   8.096   9.476   5.308  0.0827  0.2082 -0.5241
16197W        W32006   6.295   2.104   5.674  0.0127 -0.0574  0.0941
16198W        W32007  13.478   1.842  13.051  0.0734  0.1484 -0.0083
16199W        W32008  13.231  16.982  13.257  0.0744 -0.1817  0.2292
16200W        W32009  15.068  16.792   4.038 -0.3424  0.0273  0.2499
16201W        W32010  14.184  15.012  14.365 -0.3930 -0.1994 -0.0878
16202W        W32011   1.077   0.275   4.514 -0.0887  0.1709  0.0861
16203W        W32012  15.238   2.979   4.664 -0.2122  0.0026 -0.2533
16204W        W32013   6.699  12.634   3.370  0.1581  0.4961  0.0849
16205W        W32014   1.200  17.090   4.004 -0.1186  0.1412  0.0953
16206W        W32015  14.170  14.316  15.394 -0.0819  0.1557 -0.0768
16207W        W32016  10.095  14.311  12.292  0.2992 -0.0485  0.1437
16208W        W32017  15.415   1.202  14.660 -0.1341 -0.0419 -0.1221
16209W        W32018   1.764  18.351  14.490  0.0307  0.2354  0.0803
16210W        W32019   8.102  18.275   4.524  0.0599 -0.1477  0.1346
16211W        W32020   2.534  13.666  10.835  0.1899 -0.1016  0.4607
16212W        W32021  18.396   5.646   3.803 -0.2173  0.3261 -0.0968
16213W        W32022  14.832  18.626  12.073  0.4016 -0.2266 -0.1172
16214W        W32023   1.601   3.596  12.973  0.0180 -0.1926 -0.1360
16215W        W32024  10.878   6.510   1.752  0.2266  0.0637  0.0548
16216W        W32025   6.396  14.429   3.645  0.0218 -0.2193  0.2408
16217W        W32026  16.243  10.227  14.325 -0.0587  0.0725 -0.1892
16218W        W32027  11.077   7.687  15.398 -0.2036  0.4685  0.2404
16219W        W32028  11.975  10.577   4.236 -0.0625 -0.0547 -0.0195
16220W        W32029   5.718   9.585  15.431 -0.1259  0.0444  0.1286
16221W        W32030  15.040  11.552  14.154 -0.1982  0.1383  0.1717
16222W        W32031  15.739   7.876   5.289 -0.0062  0.1236 -0.1123
16223W        W32032   3.481   9.019  13.076 -0.0588  0.1264  0.0630
16224W        W32033  13.903  16.628   1.538 -0.0898  0.0776  0.0599
16225W        W32034   4.434  14.740  12.758  0.0155  0.0505 -0.2382
16226W        W32035   4.811  13.320  13.744  0.0053  0.0571 -0.3677
16227W        W32036   4.787   8.451  12.536 -0.0335 -0.1402  0.1567
16228W        W32037  17.443   8.541  13.051  0.0962  0.1475 -0.0308
16229W        W32038  14.077  11.651  14.560  0.0952 -0.0823 -0.2059
16230W        W32039   4.577   0.569  13.404 -0.0087  0.0243 -0.3515
16231W        W32040   6.736   0.402   3.980 -0.1546 -0.1580 -0.2266
16232W        W32041  11.663   9.151   0.971 -0.3448 -0.0286  0.0243
16233W        W32042   9.335  18.730  14.098 -0.0342  0.0746  0.0244
16234W        W32043  16.660  18.696  14.905 -0.3800 -0.3917  0.0774
16235W        W32044  10.310  16.033   9.548 -0.0238 -0.0994  0.3598
16236W        W32045   8.992   0.269   4.095  0.1841  0.0926 -0.3761
16237W        W32046   6.050   4.941  12.483 -0.4437 -0.2704  0.0981
16238W        W32047   1.829  17.575  11.354  0.1627 -0.3251 -0.0320
16239W        W32048   4.058  14.963  12.475 -0.2690  0.0874  0.1323
16240W        W32049   5.059  12.616  10.438 -0.0755  0.0961  0.3563
16241W        W32050  13.024   1.417  13.013 -0.0375  0.0004 -0.0039
16242W        W32051   6.335   2.950   1.489  0.0721 -0.0284 -0.1396
16243W        W32052  13.337  12.327  12.344 -0.3671 -0.2237 -0.0375
16244W        W32053   5.950   9.994  13.153  0.2108 -0.2673  0.0028
16245W        W32054  15.988   4.018  13.464 -0.0405  0.1493 -0.2590
16246W        W32055  14.636   4.093   0.620 -0.2392 -0.0937 -0.3016
16247W        W32056  14.519  15.948   2.470 -0.3138 -0.1432 -0.2926
16248W        W32057  10.070   9.895  14.998  0.0383 -0.0366 -0.1596
16249W        W32058   3.964  18.559   3.714  0.1916  0.0354 -0.1518
16250W        W32059  16.926   3.844  13.599  0.4915  0.1261 -0.1731
16251W        W32060  17.050   9.911   2.559  0.0013  0.0421  0.0388
16252W        W32061   4.830   3.881   4.734  0.2694  0.0469 -0.0618
16253W        W32062  17.929   9.511  14.256 -0.0124 -0.0796  0.3301
16254W        W32063   8.249   1.403  11.190 -0.0137  0.1100  0.0832
16255W        W32064  18.763   8.958  11.253  0.0800  0.1490 -0.1153
16256W        W32065   7.225  14.969  11.972  0.1698  0.0041 -0.0569
16257W        W32066  15.086   4.483   0.429 -0.1214 -0.0975  0.1214
16258W        W32067   0.763   1.251   5.732  0.0688 -0.1714  0.0739
16259W        W32068   6.977  17.600  13.283  0.0771 -0.2290 -0.0482
16260W        W32069   0.467  12.768  10.661  0.1501 -0.3159  0.3405
16261W        W32070  17.210   2.874  12.607 -0.1295  0.3616  0.1279
16262W        W32071  18.737  11.030  10.270 -0.3029  0.0650 -0.3962
16263W        W32072  14.973  17.327   3.850 -0.1953  0.1839 -0.3075
16264W        W32073   8.397  16.098  13.421  0.0735  0.0683  0.0988
16265W        W32074   7.351   4.606  11.660  0.1082 -0.1575 -0.0442
16266W        W32075  18.883   9.827   3.009 -0.2698 -0.0039 -0.0135
16267W        W32076  11.906   1.593  14.737  0.2282  0.1121 -0.0765
16268W        W32077  16.647   7.876   2.206 -0.4073  0.1862  0.0200
16269W        W32078   3.821  14.634  14.657  0.1018  0.2036 -0.0578
16270W        W32079  15.172  11.046   4.667 -0.1350  0.1477 -0.2710
16271W        W32080  12.012   9.585  11.013 -0.0474 -0.2536 -0.2019
16272W        W32081  15.006  10.394   3.554  0.2690 -0.1885  0.1752
16273W        W32082  13.321   7.475   2.912 -0.1882  0.0307  0.0178
16274W        W32083  18.289  18.086  14.915  0.1070  0.0769  0.0236
16275W        W32084  10.198  17.340  13.878 -0.0199 -0.2546  0.0763
16276W        W32085  10.580  12.449  11.197 -0.0013  0.2245 -0.3502
16277W        W32086   0.367  11.765  12.889  0.1881 -0.0498 -0.3634
16278W        W32087  13.716  17.083   0.761  0.0463  0.2115  0.0862
16279W        W32088  16.419   7.274   1.520 -0.2411 -0.1936  0.0138
16280W        W32089  10.975   0.769  11.151  0.1268  0.1208  0.1160
16281W        W32090   1.226  12.497   3.662  0.1904  0.5589  0.0811
16282W        W32091  13.496   8.142  12.685 -0.0053 -0.1263  0.0700
16283W        W32092   9.578   2.713  11.703 -0.3456  0.1112  0.2910
16284W        W32093  17.765  11.445  12.792  0.1453 -0.0092  0.0004
16285W        W32094   0.912  18.420   9.729  0.1064 -0.1556  0.1906
16286W        W32095  12.139   9.567   1.483  0.0093 -0.0301  0.2642
16287W        W32096  18.764   4.829   4.181  0.0899  0.1797 -0.0211
16288W        W32097  16.323   3.417  15.170 -0.0977  0.2591  0.0397
16289W        W32098  10.198   5.833   3.401 -0.0379 -0.1070  0.1536
16290W        W32099   3.602  18.197  11.791  0.0202 -0.2510  0.0511
16291W        W32100  11.903  10.749   5.441  0.2852  0.1477 -0.1346
16292W        W32101   4.793  11.688  11.773  0.2231 -0.1353  0.0396
16293W        W32102  14.748  17.133  13.844 -0.2983 -0.2024  0.0887
16294W        W32103   4.770  14.863  15.071  0.2361 -0.0215  0.2606
16295W        W32104  11.251  13.230  11.838 -0.0244 -0.1544  0.4747
16296W        W32105   7.154   1.065   4.240  0.0437  0.2620  0.0138
16297W        W32106   1.777  18.242   3.640  0.0777 -0.0991 -0.0994
16298W        W32107  16.482   0.167   1.120  0.0321  0.1013  0.2898
16299W        W32108  13.696   1.175  11.765 -0.2069 -0.0119  0.1109
16300W        W32109  17.075   7.475  12.084 -0.0049  0.0433  0.3748
16301W        W32110  13.850  15.356   4.734  0.1406 -0.0386 -0.0139
16302W        W32111  16.417   8.740   3.671  0.1944 -0.0396  0.0844
16303W        W32112  14.895  10.435  10.512  0.0971 -0.2833 -0.1986
16304W        W32113  11.088   6.873  14.330  0.2122  0.0074 -0.2146
16305W        W32114   8.181   8.929  11.625 -0.0034  0.0187  0.2208
16306W        W32115  13.962   6.017   1.509  0.1098  0.3005 -0.0541
16307W        W32116   9.044  13.364   2.669  0.1155 -0.2553 -0.3318
16308W        W32117  17.488  17.606  15.121  0.0233 -0.0356 -0.4967
16309W        W32118  12.756   6.810   0.813  0.0886 -0.2500 -0.2866
16310W        W32119  11.724   6.165   1.358 -0.2764  0.0914 -0.3264
16311W        W32120   2.902   0.980  12.529  0.1731 -0.0229  0.0419
16312W        W32121  12.138   7.005  11.192  0.0119  0.1719 -0.0974
16313W        W32122   5.920   0.161  12.695  0.3681  0.0089  0.2359
16314W        W32123  11.868   7.517   3.241  0.3477 -0.0172  0.0085
16315W        W32124  16.561   8.624  14.050 -0.2817 -0.1993 -0.0457
16316W        W32125  12.066   0.009   0.132  0.1529  0.3298 -0.2683
16317W        W32126   6.500  10.414   4.518  0.1434 -0.0848  0.2184
16318W        W32127   2.850  15.825  15.243  0.1420 -0.1343 -0.2320
16319W        W32128   2.581   8.685   2.377 -0.1464  0.0572  0.1298
16320W        W32129   8.227   8.079   2.642  0.0431 -0.1361  0.1169
16321W        W32130   4.597  14.943   0.549  0.5586 -0.1085  0.0999
16322W        W32131   0.910   0.695  12.917  0.0957 -0.1395 -0.2470
16323W        W32132  12.663   1.650  10.809  0.0756 -0.1135  0.2089
16324W        W32133  18.658  11.267  13.722  0.1360  0.1182 -0.1367
16325W        W32134   5.764   4.364   4.984 -0.1293 -0.1383 -0.0604
16326W        W32135  12.889   1.527   2.567  0.2139 -0.3751  0.0740
16327W        W32136   5.530   5.285  11.504  0.0905 -0.1462  0.1640
16328W        W32137   2.245   0.691   1.172 -0.3095  0.2853  0.1487
16329W        W32138  17.568   4.712  11.592  0.1872 -0.0614 -0.0351
16330W        W32139   3.603   3.100  14.884 -0.2996  0.1167 -0.3233
16331W        W32140   3.478  15.840  12.092  0.0573 -0.0463  0.2985
16332W        W32141   5.217   4.761   3.257 -0.0524  0.0667  0.0835
16333W        W32142   1.540   4.502   2.162 -0.0452 -0.3353  0.2362
16334W        W32143   6.128   8.730   3.269 -0.0755  0.1697 -0.1501
16335W        W32144  17.672  11.095   3.088  0.1858 -0.1729  0.0268
16336W        W32145  14.073  17.755   0.145 -0.1811  0.3203 -0.5457
16337W        W32146   7.566  12.126   1.849 -0.0264  0.1988 -0.1182
16338W        W32147   2.474   6.239  11.779  0.2168  0.0555  0.0011
16339W        W32148  10.471   8.212  14.933  0.0347 -0.1719  0.2242
16340W        W32149  10.070  14.556   0.905  0.2792 -0.0627 -0.1167
16341W        W32150   4.129  11.490   1.325  0.1552 -0.0264  0.1057
16342W        W32151   0.970   0.960   3.755 -0.1212 -0.2990 -0.1305
16343W        W32152   8.184  11.323   1.432  0.0310  0.2148  0.1479
16344W        W32153  10.750  12.880   2.408 -0.1485 -0.1043  0.1341
16345W        W32154  17.592   0.972  12.687 -0.0470 -0.1461 -0.3412
16346W        W32155  10.286  14.164   1.262 -0.2846 -0.0715 -0.0344
16347W        W32156  18.285  18.551  14.719  0.2947  0.4179 -0.1517
16348W        W32157   1.799   8.252   1.610  0.1987  0.3513 -0.1063
16349W        W32158   4.011  17.963   2.381  0.3026 -0.0628 -0.0941
16350W        W32159   6.720   2.182  10.913 -0.2184 -0.0185  0.3542
16351W        W32160   4.836   3.647   3.808  0.0116  0.3230 -0.2527
16352W        W32161  12.318   3.733  11.143 -0.2338  0.2926 -0.1355
16353W        W32162   3.594   8.930  13.593 -0.2074 -0.2044 -0.1148
16354W        W32163  18.017   9.330  11.574  0.1763  0.1783 -0.0083
16355W        W32164  17.117  15.274   5.785  0.2824  0.0369  0.0650
16356W        W32165  15.389   3.020   0.451  0.0329 -0.4461 -0.1670
16357W        W32166  16.988   7.709  13.787 -0.1957 -0.0681 -0.4500
16358W        W32167  10.597   7.361   3.829  0.0525 -0.0378 -0.1249
16359W        W32168   2.497  18.370   4.857  0.2302 -0.1425  0.0226
16360W        W32169   5.206  14.906   1.420 -0.2174  0.0652 -0.2007
16361W        W32170  12.265  14.218  15.299  0.0434 -0.1016  0.0033
16362W        W32171  15.884  15.846  14.423 -0.1778 -0.3211 -0.2524
16363W        W32172   5.833  12.065   0.346  0.1878  0.3272 -0.0395
16364W        W32173  14.929  13.785  14.293 -0.0233 -0.0564  0.1819
16365W        W32174   5.075   4.002  11.320  0.2622  0.0396 -0.1432
16366W        W32175  17.013  17.820  15.211  0.0577 -0.0131 -0.0300
16367W        W32176  16.858   1.027   0.101 -0.1787  0.0063  0.1586
16368W        W32177  14.373  12.545  14.054  0.1171 -0.0099  0.1425
16369W        W32178   9.271   9.584   3.043  0.7581 -0.0311 -0.0432
16370W        W32179   4.535  12.869  13.887  0.2531  0.0634 -0.1269
16371W        W32180   7.334  16.812   3.459  0.0405 -0.2507 -0.3754
16372W        W32181   6.212  11.886  11.832  0.3444 -0.0909  0.3073
16373W        W32182   8.257   3.918  15.063 -0.0230 -0.2000 -0.1892
16374W        W32183  17.007   7.806  11.508 -0.0688  0.0256  0.0993
16375W        W32184   9.585   5.333   0.010  0.0181  0.0247 -0.2099
16376W        W32185  15.920  10.365  15.123 -0.0296 -0.1755  0.5811
16377W        W32186  13.604   2.308   3.266  0.0496 -0.2261  0.4746
16378W        W32187  11.168   6.572   3.973 -0.1350  0.2688 -0.0031
16379W        W32188  11.567   9.713   5.502 -0.0382 -0.1014 -0.0436
16380W        W32189   1.443  15.412   3.641 -0.0352 -0.1107  0.0733
16381W        W32190   5.799  12.241  13.103 -0.1546  0.1976 -0.2920
16382W        W32191   5.457   4.437   0.682 -0.2393 -0.1634 -0.0408
16383W        W32192  17.557  12.354  12.063 -0.0257  0.3667 -0.0258
16384W        W32193   2.988  18.836   1.194 -0.2527 -0.0089 -0.0924
16385W        W32194   3.276  16.528   1.084  0.0926  0.0575 -0.1422
16386W        W32195  13.219  16.257  12.430 -0.0617 -0.2022  0.3754
16387W        W32196  15.701   7.871   2.630 -0.0714  0.1331  0.0863
16388W        W32197   0.273   8.516   5.723  0.0331  0.4014  0.1173
16389W        W32198   5.701   6.957   2.720  0.2821 -0.0833 -0.0508
16390W        W32199  17.797  10.910   0.353  0.1868  0.2465 -0.1916
16391W        W32200   2.598   6.742  11.772 -0.0447  0.0537  0.0488
16392W        W32201   2.532   5.918  14.444 -0.0145 -0.1029 -0.1689
16393W        W32202   6.093   9.159   0.708 -0.1053  0.3863 -0.1405
16394W        W32203   5.834  12.400  11.982  0.0657 -0.0623  0.0902
16395W        W32204  15.537   3.219  14.686  0.1852  0.0840  0.0868
16396W        W32205  18.455  13.953  11.174  0.4481 -0.2530  0.0050
16397W        W32206   4.488   0.592   0.755 -0.1300  0.0800 -0.0828
16398W        W32207   4.638   4.482  13.784 -0.1335 -0.0489  0.1914
16399W        W32208  11.149  10.824  12.466 -0.0399  0.0259  0.3065
16400W        W32209   0.610  13.477  14.762  0.0377  0.0356  0.0046
16401W        W32210  17.263   9.267   4.035  0.0992 -0.0335 -0.0382
16402W        W32211   9.104  11.122   3.014 -0.0634 -0.0459  0.1092
16403W        W32212   6.636  18.141  14.026  0.0711 -0.6206  0.0432
16404W        W32213  16.465  10.955   5.559 -0.0848 -0.0786 -0.3286
16405W        W32214   1.388  10.074   4.153  0.0052  0.1633  0.2258
16406W        W32215  14.097  14.621  14.901  0.1984 -0.0550 -0.0917
16407W        W32216   8.411  17.035  11.630 -0.1266  0.0380  0.0540
16408W        W32217   2.556  14.131  11.961 -0.1165  0.3066  0.1239
16409W        W32218   7.345  18.299  11.428 -0.0389  0.2679 -0.1495
16410W        W32219  14.894   9.831  12.675 -0.0967 -0.2076  0.1626
16411W        W32220   0.061  10.764   2.643 -0.0765  0.1955  0.1451
16412W        W32221  15.780  11.808   4.490  0.1157  0.1525 -0.2400
16413W        W32222  13.940  11.762  10.933  0.0788  0.0251  0.2219
16414W        W32223  17.721  14.760  14.436  0.1037 -0.0132 -0.1656
16415W        W32224   3.714   9.403   0.204 -0.1595  0.2743  0.4268
16416W        W32225  16.161   2.981   0.308 -0.0655 -0.0525 -0.2313
16417W        W32226  10.854  13.921  14.136  0.2997 -0.3152  0.1393
16418W        W32227   9.958   2.846  13.431 -0.1733 -0.0392 -0.0044
16419W        W32228  15.458   3.055  11.132 -0.0513  0.0745  0.0378
16420W        W32229   2.970   0.745   2.467  0.0409 -0.1339 -0.3228
16421W        W32230   9.631  11.215  12.394  0.3855  0.2280 -0.2747
16422W        W32231  11.028  13.851   3.054  0.0709 -0.2602 -0.0628
16423W        W32232   2.669  15.894  13.852 -0.2152 -0.5627 -0.1151
16424W        W32233  13.723  13.530  12.085 -0.3338  0.1711  0.0154
16425W        W32234   1.227  17.572  10.192  0.0607 -0.0988  0.1359
16426W        W32235  16.054   2.835  13.831  0.2247  0.4631  0.0424
16427W        W32236  15.255  16.431  11.429  0.0780  0.0284  0.1793
16428W        W32237   2.780  12.886  10.144  0.0820  0.0811 -0.4522
16429W        W32238   0.958  18.831   4.112  0.0408 -0.1577 -0.4418
16430W        W32239   9.947  14.721  12.900  0.1567  0.1318 -0.1458
16431W        W32240   3.576   6.284  15.360  0.1277  0.0235 -0.0351
16432W        W32241  12.080   7.216   2.875  0.1495 -0.0624  0.1251
16433W        W32242  16.231   8.219   2.043 -0.2828  0.0875 -0.0879
16434W        W32243   9.851  15.685   3.133 -0.0010  0.1526  0.0905
16435W        W32244  14.767   4.238  14.065  0.1828  0.0770 -0.2794
16436W        W32245   0.313   0.423  14.541 -0.2760 -0.0476  0.2593
16437W        W32246  14.821   4.875   0.274 -0.0756 -0.0749 -0.1037
16438W        W32247  15.854   2.747  10.806 -0.0815  0.1338 -0.3049
16439W        W32248  17.862  17.616  13.145  0.0372  0.1405  0.1455
16440W        W32249  12.561   5.257   2.202 -0.1012 -0.0442  0.3309
16441W        W32250  14.433   6.656   5.114 -0.0769  0.1412 -0.3220
16442W        W32251   0.660   7.593   3.317  0.2326 -0.1057 -0.0715
16443W        W32252  14.081  15.854   4.258 -0.0700  0.0017 -0.1999
16444W        W32253   2.085   5.887   3.342 -0.1556  0.6011  0.0530
16445W        W32254  12.473   3.525  12.704  0.0063 -0.0555 -0.2783
16446W        W32255   4.566   7.614   2.869 -0.1418  0.1994  0.1491
16447W        W32256   4.574  17.160   2.244 -0.1691  0.0954 -0.3247
16448W        W32257   8.779  10.562  13.426  0.0751  0.1260 -0.1883
16449W        W32258  16.973  16.426   4.383 -0.1320  0.0558  0.3195
16450W        W32259   6.938  10.625   0.081  0.2348 -0.1022 -0.3195
16451W        W32260  14.507   6.526  14.060  0.1730 -0.4170  0.0628
16452W        W32261   3.267   4.144  10.968 -0.3081 -0.5066 -0.1199
16453W        W32262  16.295   7.817   1.798  0.1260  0.4664  0.1240
16454W        W32263  18.607   3.494  10.744  0.1068  0.0048  0.2668
16455W        W32264  15.525  13.428   3.689 -0.1058 -0.1248 -0.2536
16456W        W32265  13.745   0.749   2.590 -0.2073  0.2229 -0.1723
16457W        W32266  18.273   1.545  11.659  0.2658  0.0129 -0.0879
16458W        W32267   7.284  14.450   2.219 -0.1277  0.1634 -0.1124
16459W        W32268  11.237   4.994   3.993  0.3322 -0.1667  0.2156
16460W        W32269   8.766  13.309  11.466 -0.0518  0.1447 -0.1089
16461W        W32270  13.230  18.881   9.572 -0.0772  0.1753  0.1211
16462W        W32271  10.564   9.206  14.549 -0.0322  0.0550  0.1443
16463W        W32272   6.056  18.607  11.140  0.1638 -0.0025 -0.0814
16464W        W32273   1.887   0.529  11.507  0.2469  0.1231 -0.4941
16465W        W32274   1.042   0.785   0.682 -0.1767 -0.1634  0.0905
16466W        W32275   1.507  12.348  10.536  0.1562  0.0763  0.1714
16467W        W32276  11.242  10.295  10.705  0.1673  0.1290  0.1807
16468W        W32277   8.242   6.593  13.036 -0.1590  0.0780  0.1089
16469W        W32278   6.269  10.439   5.167 -0.1074 -0.1511  0.1365
16470W        W32279  15.814  14.041   0.569  0.1796 -0.0416  0.1077
16471W        W32280  16.617  14.739   3.700 -0.0765  0.1438  0.1332
16472W        W32281  16.630   9.035  13.258  0.3732  0.0712  0.1061
16473W        W32282   0.864  12.658   0.507  0.2817  0.0841  0.3017
16474W        W32283  18.025  13.754   2.700  0.2776  0.2597 -0.0433
16475W        W32284  16.692  16.104  13.168 -0.1245 -0.0643 -0.0629
16476W        W32285   0.832   4.697  13.958 -0.3178 -0.0933 -0.4164
16477W        W32286   7.326  11.088   0.886 -0.0278 -0.2799  0.0471
16478W        W32287  18.005  12.796  12.475  0.0348 -0.1323 -0.1319
16479W        W32288   9.022   8.032  11.532 -0.1317 -0.1314  0.0300
16480W        W32289   1.139  16.389   4.719  0.2240  0.0151  0.2693
16481W        W32290   7.441   0.681  14.064 -0.1239 -0.1545 -0.1103
16482W        W32291  14.586  12.275   1.830  0.0444  0.3881 -0.0534
16483W        W32292  16.969  15.073   3.529 -0.0834  0.1331  0.2189
16484W        W32293   5.658   8.795  14.745  0.0271 -0.1048  0.0453
16485W        W32294   6.870   1.784   1.291  0.0158 -0.2425 -0.1393
16486W        W32295   9.823  15.324   3.954 -0.2453  0.4489  0.0090
16487W        W32296  13.664  16.051   4.963  0.1265 -0.0029  0.1280
16488W        W32297  18.506  11.936  11.445  0.1128  0.1052  0.3213
16489W        W32298   2.113   2.604  13.903 -0.0043  0.3501 -0.3498
16490W        W32299   8.044   9.431   1.568  0.0462 -0.0516  0.0369
16491W        W32300   9.143  16.924   5.205  0.2294  0.1327  0.3438
16492W        W32301  12.748  14.449  12.505 -0.0240 -0.2716  0.0200
16493W        W32302   9.766   8.521  13.535  0.1938  0.2083  0.2017
16494W        W32303  16.724   2.090  14.095 -0.1868  0.1049 -0.1885
16495W        W32304  18.526  18.348   1.467  0.1493 -0.1426 -0.2202
16496W        W32305   1.225   9.816   4.707  0.0105  0.1186 -0.0716
16497W        W32306  17.954  15.144  14.644  0.0708  0.1665 -0.0628
16498W        W32307   9.971   8.375  14.858 -0.1464 -0.0855  0.1312
16499W        W32308   2.967   4.533   0.839  0.2372 -0.0905  0.0921
16500W        W32309  14.673   7.927   1.332  0.0802  0.0092 -0.0413
16501W        W32310  10.797  17.292   4.566  0.0894 -0.1544 -0.5473
16502W        W32311  14.894  15.022  12.806  0.2120 -0.3743  0.3580
16503W        W32312  11.376   7.879   0.736  0.2961 -0.2157  0.1257
16504W        W32313   5.114   7.484  10.690  0.3799 -0.0088 -0.4364
16505W        W32314  15.486  14.245   3.041 -0.3174  0.0352 -0.0202
16506W        W32315   6.098  12.142  13.954 -0.1165 -0.1231  0.1250
16507W        W32316  11.550   3.218   3.082 -0.3678 -0.2085 -0.0543
16508W        W32317   7.970   6.629   1.903  0.1308  0.1695 -0.3520
16509W        W32318  16.105   1.104  13.528  0.1841  0.1478  0.1788
16510W        W32319   5.800  17.324   0.610 -0.0488 -0.0565  0.3272
16511W        W32320   4.494  14.024   0.300  0.2298 -0.1217  0.4741
16512W        W32321   9.376  14.877  14.080 -0.0630 -0.2455 -0.2008
16513W        W32322  14.413  18.411   2.222  0.1354  0.0882 -0.1497
16514W        W32323   6.470  10.429  13.347  0.0401 -0.0983 -0.1902
16515W        W32324   0.618  16.136  13.427 -0.1955  0.1572 -0.1444
16516W        W32325   2.328   2.330  13.564 -0.0049 -0.0718 -0.1103
16517W        W32326  16.137  10.523  11.327 -0.0379 -0.0058  0.2667
16518W        W32327   7.268   9.942   5.031 -0.0303 -0.1210 -0.0717
16519W        W32328  16.007  15.707   5.066  0.0653  0.0564  0.0430
16520W        W32329   7.918  12.780   4.801 -0.2675  0.2832  0.1218
16521W        W32330  12.850  17.840  11.472  0.2871 -0.2152  0.3724
16522W        W32331  11.605  13.949   4.040  0.0662 -0.0519 -0.0620
16523W        W32332   9.215   0.576  12.524 -0.1255 -0.2495 -0.0462
16524W        W32333  15.650  11.262   3.347  0.1536 -0.0816  0.1764
16525W        W32334   4.315  10.553   3.415 -0.0872  0.1574  0.0396
16526W        W32335   5.048  12.903   2.802 -0.1887  0.3439 -0.0223
16527W        W32336   0.321  17.938   4.547  0.1074  0.0080 -0.3208
16528W        W32337   0.119  11.591   3.006  0.1401 -0.2550  0.0120
16529W        W32338  15.478   1.946  14.860 -0.3970 -0.0388 -0.0122
16530W        W32339  18.352   4.286  14.643 -0.1293 -0.1251  0.0433
16531W        W32340  12.388   2.025  10.608  0.0514 -0.0478 -0.0906
16532W        W32341  13.057   0.143   1.665 -0.1024 -0.0652 -0.2877
16533W        W32342  10.911   1.674  13.434  0.0317 -0.0461 -0.2130
16534W        W32343  14.457   6.732  11.107  0.2419  0.1568 -0.1880
16535W        W32344  12.732   7.007  13.700  0.2125 -0.0917  0.0016
16536W        W32345   6.425  16.880  14.407  0.2336 -0.1366 -0.0135
16537W        W32346   4.570   0.219   3.132 -0.1788  0.0741 -0.4357
16538W        W32347   3.955  10.012  10.521 -0.5012 -0.0722 -0.4146
16539W        W32348  12.723   5.652  11.499  0.0578  0.1138 -0.3212
16540W        W32349  14.924  11.526  15.034 -0.3278  0.1221  0.0330
16541W        W32350  14.444   2.910   5.293  0.0406 -0.1010 -0.2622
16542W        W32351   3.465  15.937   9.370  0.1551  0.4464  0.0574
16543W        W32352   4.091   0.624  14.314  0.1356  0.0443 -0.0115
16544W        W32353  13.820  10.893   0.819 -0.0948  0.1398  0.2082
16545W        W32354   2.074   7.009  13.667  0.0616  0.2341  0.4865
16546W        W32355  14.696   6.984   4.071  0.1215  0.1437 -0.2900
16547W        W32356   3.403  17.451  13.703  0.0020 -0.2103  0.2691
16548W        W32357   8.911   2.476  12.494  0.0440 -0.0537  0.4005
16549W        W32358   7.329   9.736  14.991 -0.0941 -0.0754  0.0223
16550W        W32359  13.115  13.572   0.823 -0.0422 -0.0378  0.0663
16551W        W32360   7.824  13.798   0.117  0.1597  0.2230  0.0344
16552W        W32361   4.503  17.790  10.423 -0.2681 -0.2601  0.1204
16553W        W32362  15.532   8.931  12.047 -0.2391 -0.3047  0.0117
16554W        W32363  14.801   4.535   1.758  0.0996 -0.1802  0.0484
16555W        W32364   6.060  15.959   0.961 -0.3210 -0.1700  0.2474
16556W        W32365   0.822   3.714  12.089 -0.1561 -0.0217  0.1407
16557W        W32366   4.215   5.170   5.235  0.3005  0.0763  0.1409
16558W        W32367  10.719  11.548  12.192 -0.2477  0.1151 -0.0088
16559W        W32368   8.439   2.338  12.806 -0.2489 -0.0925 -0.1383
16560W        W32369   3.305  13.300   1.130  0.1017 -0.1687 -0.0817
16561W        W32370   4.266  18.654   2.391  0.1714  0.1469 -0.0990
16562W        W32371   6.418   6.060  10.757 -0.0615  0.1208  0.0618
16563W        W32372   9.225   6.781   3.381  0.0144 -0.1347  0.0012
16564W        W32373   8.225  10.469  12.529 -0.1057 -0.3542  0.1098
16565W        W32374   8.214   4.409  12.238  0.4344  0.0686  0.1669
16566W        W32375  16.571  10.708   1.257  0.2176 -0.0094 -0.1290
16567W        W32376  11.289   9.013   0.610  0.4239  0.3947 -0.3694
16568W        W32377  15.918   0.871  10.759  0.1528  0.3011 -0.1169
16569W        W32378   7.011   1.684   2.980  0.0755  0.1005 -0.0279
16570W        W32379   1.722  13.360   0.314  0.0568  0.0815 -0.1226
16571W        W32380   1.772   5.744   0.241 -0.1463 -0.3743  0.3993
16572W        W32381   0.502  11.538   1.300  0.2103  0.5352 -0.1353
16573W        W32382   1.885   3.744  14.404 -0.0742 -0.0471  0.0816
16574W        W32383   2.135   8.197   3.157  0.1154 -0.0495 -0.1805
16575W        W32384   7.995  10.839  13.541  0.3609 -0.0437  0.3057
16576W        W32385   4.812  17.815  11.621  0.5716 -0.1439  0.0955
16577W        W32386   0.552   5.491   2.841  0.2118  0.0714 -0.0257
16578W        W32387   7.551  18.815   2.438 -0.0232 -0.0492 -0.0915
16579W        W32388  17.783   3.737   2.700  0.2968  0.0536  0.1705
16580W        W32389  13.486  14.280   3.382 -0.2054 -0.1183 -0.2450
16581W        W32390   9.703   6.459   4.434  0.1867 -0.1352 -0.1420
16582W        W32391   9.993  14.343  13.764 -0.1097  0.1314 -0.0442
16583W        W32392   3.084   7.913  11.900 -0.1116 -0.1040  0.1849
16584W        W32393  16.226  17.458  14.305  0.3303 -0.0499  0.2335
16585W        W32394  11.044  13.820  14.997  0.0368  0.1105  0.2089
16586W        W32395  16.174   3.947  11.950  0.1285 -0.2828 -0.0635
16587W        W32396   3.132  11.698   4.801 -0.1085 -0.2144  0.3063
16588W        W32397   5.748   3.119  14.379 -0.0481 -0.0475 -0.0614
16589W        W32398  15.014   5.434   1.981 -0.0529  0.1827  0.1001
16590W        W32399   7.347   4.236  13.693  0.0473  0.0399 -0.0334
16591W        W32400  14.209   9.076  12.174 -0.1135  0.3623  0.2767
16592W        W32401  18.115   5.405   2.997 -0.0514 -0.5344  0.0299
16593W        W32402  14.369  12.123  10.969  0.0011  0.0730  0.2299
16594W        W32403  13.565   4.061   3.276  0.0075  0.2853 -0.0571
16595W        W32404  12.496  16.737  13.157  0.1800  0.1491 -0.1137
16596W        W32405   6.271   8.491  12.532 -0.0104 -0.0000 -0.1203
16597W        W32406   1.149   2.866  13.541 -0.2482  0.0262  0.1584
16598W        W32407  13.501   6.030  14.699  0.0359 -0.0476 -0.2168
16599W        W32408  13.801   3.873  11.070 -0.2011 -0.0331 -0.0652
16600W        W32409   1.246   8.595  13.499  0.1995  0.0338  0.0018
16601W        W32410   4.568   4.919   3.149  0.2650  0.0494  0.1990
16602W        W32411   2.525   0.513  11.152  0.0458  0.2474 -0.0478
16603W        W32412   3.151   1.749  13.381 -0.1836  0.0389 -0.2036
16604W        W32413  14.203   3.414   1.654 -0.1967  0.1215  0.0805
16605W        W32414   0.905  15.331  12.483  0.1249 -0.2867 -0.1090
16606W        W32415   6.513   6.455  13.743  0.0168 -0.0869  0.0427
16607W        W32416  13.025  12.277  11.121 -0.1074  0.1063 -0.1237
16608W        W32417  13.345  13.741   5.590 -0.0814 -0.1024  0.2981
16609W        W32418  13.778   5.628   1.782 -0.2820 -0.3873 -0.0096
16610W        W32419   2.009  18.091   2.691 -0.0871 -0.0980 -0.0465
16611W        W32420  12.264   1.521  11.677 -0.0312  0.1150 -0.1712
16612W        W32421  13.928   0.637   1.845  0.1058 -0.0879  0.1329
16613W        W32422   9.611   6.835   1.204  0.0350 -0.1050 -0.1125
16614W        W32423   3.078  11.938  14.567  0.0210 -0.1734 -0.1326
16615W        W32424   6.586  10.623  11.650  0.1245  0.0156  0.5985
16616W        W32425   8.477   5.614  15.369  0.4968  0.0577 -0.2269
16617W        W32426  17.014   8.806   4.130  0.2669  0.0676  0.1235
16618W        W32427   7.701   9.309   4.502  0.3514  0.3377  0.0472
16619W        W32428  16.601  10.741   4.584 -0.1586 -0.2860  0.0767
16620W        W32429   7.711   7.538   0.959  0.0768  0.0415  0.1663
16621W        W32430  15.693   7.093  11.971  0.1243  0.2614  0.1805
16622W        W32431  16.424  17.478   2.146 -0.0794 -0.3236 -0.3856
16623W        W32432  11.124   6.230  11.801 -0.0333 -0.0550  0.1231
16624W        W32433   9.805  12.269  14.247 -0.1174  0.0049  0.1794
16625W        W32434   3.837  15.149   2.694  0.1560 -0.0830  0.0705
16626W        W32435   3.306   1.168  11.647 -0.1922  0.2103 -0.4446
16627W        W32436   6.218   7.159  14.363 -0.0163 -0.1817  0.1477
16628W        W32437  17.444   4.325  13.037  0.0190 -0.0984 -0.3616
16629W        W32438  14.141  15.532  12.910 -0.1006  0.1438  0.2568
16630W        W32439   0.174   6.211   3.747 -0.0892 -0.0700 -0.2206
16631W        W32440  11.298   2.871   4.720 -0.0696 -0.2272 -0.2188
16632W        W32441   8.060   6.990  11.298 -0.0627  0.0794  0.1822
16633W        W32442   6.762  10.154   9.996 -0.0006 -0.0583  0.2705
16634W        W32443   1.373   7.697   3.698  0.0956 -0.0622  0.1134
16635W        W32444   9.684   0.776  12.550  0.1558  0.0107  0.0591
16636W        W32445  16.039  17.699   0.721  0.3768  0.0498 -0.2234
16637W        W32446   9.463   8.668   0.015  0.1089  0.2041  0.1289
16638W        W32447  16.813   4.363  13.938 -0.2772 -0.0572  0.1214
16639W        W32448   6.371   1.260   0.221 -0.0777  0.0627 -0.3229
16640W        W32449  12.048  18.045  12.466 -0.0571 -0.2466  0.1182
16641W        W32450   9.985   8.941   3.927 -0.1030 -0.0004  0.2037
16642W        W32451  18.538   5.991  13.965 -0.2813  0.4335 -0.2601
16643W        W32452  17.621  18.072  11.441 -0.0853 -0.0173 -0.0555
16644W        W32453  18.008   1.693   0.937 -0.0831  0.4301  0.3522
16645W        W32454  10.157  17.742   3.482  0.1188 -0.3176 -0.2259
16646W        W32455   7.953  18.366   1.027 -0.0206  0.7071 -0.0905
16647W        W32456   0.869  15.485   0.143 -0.0044 -0.3233 -0.4333
16648W        W32457  15.747   9.045   4.801 -0.1923  0.0944  0.3442
16649W        W32458   0.775   4.048  12.522 -0.2208  0.1841  0.3708
16650W        W32459  14.322  12.618   5.112  0.0668  0.1606  0.0479
16651W        W32460  17.834  16.453   3.742  0.0803  0.0457 -0.1856
16652W        W32461  18.264   1.994  14.520  0.0542  0.1381  0.0813
16653W        W32462   6.661  12.141  11.721 -0.0545 -0.0139  0.1909
16654W        W32463   1.874  14.966   0.047 -0.1254  0.0430 -0.3210
16655W        W32464   2.142  17.540  13.206 -0.0320  0.1147  0.0482
16656W        W32465   6.936   0.846   3.740 -0.2081 -0.1527  0.2886
16657W        W32466   2.353  16.566   0.240 -0.0533  0.1173 -0.0142
16658W        W32467  14.651  16.425   4.050 -0.1208 -0.0413  0.1327
16659W        W32468   1.048   9.426   3.566 -0.0602  0.1568 -0.2064
16660W        W32469  12.746   0.215  11.997  0.0335 -0.0329  0.5249
16661W        W32470  18.771   8.954  12.723 -0.1163  0.1765  0.2177
16662W        W32471   6.127  12.361   0.638  0.1663 -0.2233  0.3217
16663W        W32472  17.946  16.450   1.921 -0.0248  0.1503  0.0091
16664W        W32473  14.365   2.097  13.249  0.1065  0.0814  0.0188
16665W        W32474   9.148  17.495  14.154 -0.0385 -0.0570  0.0797
16666W        W32475  11.737   3.821  15.105  0.0563  0.1376 -0.1389
16667W        W32476  16.497   7.149  14.712 -0.1077  0.3692 -0.0980
16668W        W32477  11.755  15.194   3.370  0.3830  0.3027  0.1271
16669W        W32478  11.102   4.991   0.207 -0.1245 -0.3508  0.3952
16670W        W32479  10.086  18.219   1.444  0.0380 -0.3298 -0.2446
16671W        W32480   6.869  11.597   2.710  0.0277  0.1638 -0.3153
16672W        W32481  15.637   2.101   4.881 -0.1311  0.4490 -0.0738
16673W        W32482  15.561   1.443  14.107 -0.2164  0.1233 -0.0334
16674W        W32483   2.185   1.387  10.982  0.0224 -0.0204  0.0577
16675W        W32484   2.931  11.442  11.191 -0.1076 -0.0563  0.3962
16676W        W32485   0.607   3.427   1.455 -0.2184  0.3182 -0.0074
16677W        W32486   4.575  12.475   1.135 -0.0823  0.0498  0.0115
16678W        W32487  13.992   7.642  12.007  0.2766 -0.0055  0.1172
16679W        W32488   2.476  13.924  11.272 -0.2656 -0.0908  0.2152
16680W        W32489  11.575   7.524   1.198  0.2160 -0.0039  0.0559
16681W        W32490  16.307  12.812   3.512  0.0393  0.1955 -0.1778
16682W        W32491  16.904  10.419   4.269  0.0685  0.0189  0.1122
16683W        W32492  16.342   0.234   0.661  0.1574  0.2909 -0.2168
16684W        W32493  17.209   3.566  11.206  0.0017  0.0370  0.1351
16685W        W32494   9.708   1.216   0.177  0.2968 -0.3591  0.0742
16686W        W32495   5.356   7.814  10.024 -0.1673 -0.0042 -0.3625
16687W        W32496  11.927  14.587  11.867  0.5763 -0.0051  0.1188
16688W        W32497  11.703  18.070   1.138 -0.0688 -0.3364  0.0799
16689W        W32498   6.737   9.780  11.406  0.0309  0.0375 -0.1010
16690W        W32499  15.187   9.107   4.859  0.1548 -0.0066  0.1795
16691W        W32500  13.337   7.942  14.247  0.0374 -0.1954 -0.0603
16692W        W32501   4.535   9.448   3.791 -0.2298 -0.2839  0.3476
16693W        W32502  11.826  15.026  13.273 -0.0869  0.0567  0.3834
16694W        W32503   0.307  17.721  15.387  0.3179 -0.3011 -0.1783
16695W        W32504   5.418  17.016   2.677  0.0365 -0.1462 -0.3497
16696W        W32505   8.460   2.910   1.199 -0.2529  0.2036  0.1853
16697W        W32506   0.553  14.067   1.447 -0.0508 -0.2365 -0.1416
16698W        W32507  13.112  13.666   2.437 -0.1603 -0.1258  0.0084
16699W        W32508  12.575  17.293   3.279 -0.2267  0.0758 -0.1324
16700W        W32509   5.387   1.502   2.288 -0.0297  0.2214  0.1069
16701W        W32510   3.735   5.329  15.355 -0.2497 -0.0583  0.1656
16702W        W32511  13.017   9.527   5.390 -0.2290  0.1195  0.0128
16703W        W32512   8.879   8.500   3.985 -0.0686 -0.0700 -0.0489
16704W        W32513  10.202  14.407   0.446 -0.1787 -0.3636 -0.2713
16705W        W32514   4.732  11.140  11.923 -0.0435  0.3104 -0.2399
16706W        W32515  12.835  11.043  12.264 -0.3457 -0.1666 -0.0991
16707W        W32516   9.460  11.366   2.159  0.3005  0.1479 -0.0307
16708W        W32517   3.305   7.097  15.414 -0.1775  0.0228  0.1384
16709W        W32518  10.278  18.706  12.048  0.0021  0.2761  0.0893
16710W        W32519  18.176   2.358  13.007  0.1334  0.0436  0.3472
16711W        W32520   0.364   6.075   3.247  0.2120 -0.4452 -0.1507
16712W        W32521   5.280  13.928   2.279  0.1940 -0.0464 -0.0194
16713W        W32522   7.239  10.515  14.342  0.1204 -0.0439  0.2750
16714W        W32523   2.439   2.912   1.758  0.1498  0.1699  0.3495
16715W        W32524   1.506   7.519  12.666  0.1561 -0.0054 -0.1126
16716W        W32525  14.882   2.783   4.292 -0.1557  0.2089 -0.2344
16717W        W32526   5.554  15.214   5.795  0.1221 -0.2765  0.1423
16718W        W32527   9.879  16.310  10.702  0.1728 -0.3368 -0.1934
16719W        W32528   0.135   1.120  13.335 -0.1430  0.0094 -0.0160
16720W        W32529   4.676   1.993  15.097  0.0621 -0.1196 -0.1654
16721W        W32530   0.410   7.980  14.409  0.0111 -0.1663 -0.1444
16722W        W32531  13.050  13.762  14.537  0.0949  0.1385  0.0818
16723W        W32532   8.397   6.724  10.588 -0.0636 -0.0071 -0.3046
16724W        W32533  14.037  17.136  14.399  0.0479  0.2740 -0.2064
16725W        W32534   6.587  16.064   3.753  0.4191 -0.0002  0.2545
16726W        W32535   2.215   1.387  13.118  0.1746  0.1838 -0.0720
16727W        W32536  14.227  11.330   3.818  0.1357 -0.0930  0.0644
16728W        W32537  14.848   8.282   3.250 -0.1432 -0.1130 -0.0944
16729W        W32538  14.028  10.533   3.530 -0.1060 -0.1058  0.0175
16730W        W32539  14.864   4.866   4.603  0.1246  0.0953  0.0721
16731W        W32540  15.186  15.908  14.892  0.3966  0.0306  0.1479
16732W        W32541   5.817   1.896   3.765 -0.1908  0.0493 -0.0697
16733W        W32542   6.998  14.044   4.504 -0.1287  0.1699 -0.0698
16734W        W32543  10.940   4.625   3.751  0.4439 -0.1442 -0.0273
16735W        W32544  14.545   4.802  10.173  0.0806  0.0864  0.1949
16736W        W32545   3.804  16.936   4.662  0.1659  0.1294 -0.1248
16737W        W32546  14.006   1.412  14.621  0.1318 -0.0110  0.1645
16738W        W32547   3.882  14.606   3.956 -0.0486  0.1338 -0.1141
16739W        W32548  15.698  15.515   0.339  0.1891  0.0076 -0.0672
16740W        W32549  10.775  12.025  13.995  0.2396 -0.0879  0.1056
16741W        W32550   2.878   4.923   1.533  0.1799  0.2685 -0.0708
16742W        W32551  14.860  14.199  12.990 -0.1091 -0.0991 -0.1912
16743W        W32552   4.450  15.240  14.908 -0.4106 -0.1519 -0.3493
16744W        W32553   0.699   3.518  13.782 -0.1226 -0.0950 -0.4116
16745W        W32554   2.315   7.541   0.158  0.2277 -0.2900 -0.1040
16746W        W32555   6.853  17.987  11.270 -0.1000  0.1453 -0.0654
16747W        W32556   1.207   7.089   5.253 -0.0955 -0.1164 -0.0854
16748W        W32557   3.988   4.076  12.032 -0.1877  0.0333  0.2500
16749W        W32558  17.243   1.593   0.966  0.0932 -0.4644 -0.3144
16750W        W32559  10.813   6.429   2.706 -0.0916 -0.2866 -0.2691
16751W        W32560   6.127  10.141  11.103  0.2707 -0.0893 -0.0861
16752W        W32561  18.237  11.512   1.989  0.2658  0.0118  0.0511
16753W        W32562  12.750   4.737  14.615  0.1983  0.0609  0.2992
16754W        W32563  11.731   6.305   2.557  0.2255 -0.0755  0.0942
16755W        W32564   0.440  12.275   2.617 -0.0947  0.1581 -0.0581
16756W        W32565   5.323   2.217   2.048 -0.2387  0.0131 -0.0301
16757W        W32566  18.026  17.050   0.168  0.0368 -0.2243  0.0950
16758W        W32567   0.005  18.234  10.658 -0.1816 -0.0093  0.0608
16759W        W32568  11.802   6.209  15.365 -0.2359  0.2474 -0.0598
16760W        W32569   7.819   3.165  13.208 -0.0119 -0.0446 -0.0661
16761W        W32570   9.432  13.731   0.201  0.0926  0.3074 -0.3020
16762W        W32571   9.729   2.339  10.562  0.0867 -0.0544  0.4010
16763W        W32572  15.637   1.208   4.945 -0.0993 -0.3212 -0.0178
16764W        W32573  11.204  13.163  12.502 -0.0520 -0.1095  0.1555
16765W        W32574   5.688   7.115  12.089 -0.1456 -0.0768  0.3075
16766W        W32575  15.038   3.971   0.282  0.1159 -0.0252  0.0661
16767W        W32576  15.189  10.732   0.847 -0.2236 -0.0260  0.2008
16768W        W32577   3.434  14.606   4.114  0.0618 -0.2224 -0.3275
16769W        W32578   2.891  17.240  12.434  0.0576 -0.0349 -0.2611
16770W        W32579   3.112  17.120  13.358 -0.0352 -0.0251 -0.0134
16771W        W32580   6.257  15.058   2.421 -0.3008  0.0511 -0.5183
16772W        W32581   6.964  18.006  13.578  0.2400  0.2089  0.0841
16773W        W32582  15.648  13.888  12.672  0.1691 -0.0931 -0.1680
16774W        W32583   0.735  12.294  12.942 -0.2826 -0.0439  0.1600
16775W        W32584  15.711   1.037   2.576  0.4025  0.0886 -0.1252
16776W        W32585   6.748   4.096  13.325 -0.0385  0.0315  0.0184
16777W        W32586   0.155   6.397  12.226  0.0494 -0.2031 -0.1270
16778W        W32587  15.765   3.598  14.403 -0.0786  0.2305 -0.0120
16779W        W32588  11.102  12.095   3.547  0.3720  0.0584 -0.3615
16780W        W32589  10.118  14.917  10.595 -0.1946 -0.2964  0.0423
16781W        W32590   0.376  14.346  15.124  0.0791 -0.1872 -0.1437
16782W        W32591   9.018   3.392   1.873  0.1012 -0.0007  0.1659
16783W        W32592   6.192  18.755   4.294 -0.0247  0.0592  0.4670
16784W        W32593  11.782   9.389  12.012  0.2581  0.0580  0.1498
16785W        W32594  17.539  17.058   0.039  0.2445  0.4544  0.0748
16786W        W32595   7.861  12.452  14.390  0.3187  0.0310  0.0556
16787W        W32596   7.341  16.967   2.279  0.0667 -0.1874  0.2034
16788W        W32597  13.518   0.382   1.725 -0.1019  0.2819  0.1225
16789W        W32598  12.568  11.817   4.713 -0.0402 -0.1432  0.2362
16790W        W32599   4.414  13.029   3.687 -0.0161 -0.5765  0.3636
16791W        W32600   9.888  14.761   3.024 -0.0607 -0.1051  0.0054
16792W        W32601  10.928  17.580  15.028  0.1667  0.0801 -0.0307
16793W        W32602   8.344   5.195  14.906  0.2173  0.1696 -0.1264
16794W        W32603   6.428   9.530  12.215  0.2666  0.4339 -0.3518
16795W        W32604  11.843   6.055  11.229  0.1008  0.1105 -0.3901
16796W        W32605  10.547  10.099  12.009 -0.1970  0.0725 -0.0165
16797W        W32606   9.078   3.325   0.552  0.1597  0.0682  0.2321
16798W        W32607  17.256  13.830  12.804  0.1781  0.0449  0.0262
16799W        W32608  15.145  13.884   3.828 -0.1520 -0.0334  0.0590
16800W        W32609   9.319   5.255   1.685 -0.1803  0.1195 -0.1052
16801W        W32610   5.882  13.025   4.743  0.0612 -0.0217 -0.2078
16802W        W32611   3.907   3.078   0.760  0.6234  0.0093  0.1072
16803W        W32612  11.978   5.869   1.710 -0.1740  0.1281  0.0005
16804W        W32613   9.243  13.013   0.904 -0.0995  0.3581 -0.1189
16805W        W32614   2.908  18.724  13.114 -0.3718 -0.1216  0.1053
16806W        W32615   2.141   6.042   1.552  0.0241 -0.0554 -0.2579
16807W        W32616  14.009  14.171  14.681  0.0152  0.0350 -0.4965
16808W        W32617  13.361  15.570   1.680 -0.3219 -0.0214 -0.1860
16809W        W32618  15.817  16.530  12.677 -0.0913 -0.1381  0.1370
16810W        W32619  13.689  11.454  12.545 -0.1431 -0.1716 -0.0615
16811W        W32620  16.683   3.233  12.452 -0.0052  0.0111 -0.1268
16812W        W32621   4.210   1.542  13.777  0.1321 -0.1791 -0.1789
16813W        W32622   8.790  16.548  12.397  0.0348 -0.5295 -0.0357
16814W        W32623  13.118  16.530   3.612 -0.0266  0.1526  0.0860
16815W        W32624  17.149  17.512  10.346  0.2758  0.0615 -0.0139
16816W        W32625   4.145  15.648   0.572  0.1408 -0.2477 -0.1840
16817W        W32626   2.852  18.678   1.807  0.2591  0.0853 -0.1812
16818W        W32627  17.680  15.997   2.060 -0.0243  0.0990  0.1024
16819W        W32628   6.686   0.574  15.406 -0.1344 -0.0086 -0.1623
16820W        W32629   3.469   7.342  14.902 -0.1897  0.0403 -0.0481
16821W        W32630  12.521   9.113  12.167 -0.0943  0.4975 -0.0913
16822W        W32631  15.782  13.923  12.205 -0.0347 -0.0026 -0.4298
16823W        W32632   3.805   9.668   1.211 -0.3183 -0.2115  0.2991
16824W        W32633   7.518   9.814   4.038 -0.0498  0.0667  0.0698
16825W        W32634   1.099  13.791   2.483  0.2695  0.1145 -0.2579
16826W        W32635  13.995  16.970  11.391 -0.1464 -0.1640  0.3595
16827W        W32636  13.939   8.588   0.951 -0.2345 -0.3246 -0.0165
16828W        W32637   3.622   0.929  13.164 -0.3616  0.3819  0.2253
16829W        W32638   1.741  17.979   5.284 -0.1220 -0.1663 -0.0534
16830W        W32639  10.679  17.865  13.052  0.2105 -0.0834 -0.5134
16831W        W32640  13.597  16.021  13.024 -0.5005 -0.0344  0.1720
16832W        W32641   1.359   2.843   1.353  0.1624  0.3578 -0.0763
16833W        W32642  16.068   7.992  13.042 -0.0546  0.1260 -0.0004
16834W        W32643   0.686   1.824   0.949 -0.0536  0.0352  0.0804
16835W        W32644   1.078   4.283   1.025  0.1151 -0.0701  0.2176
16836W        W32645   1.334  12.527   0.794 -0.1810  0.1463 -0.2365
16837W        W32646  11.801  14.394  10.348  0.0940 -0.0856 -0.0679
16838W        W32647   4.132  17.888   3.697  0.1286  0.1305 -0.3335
16839W        W32648   6.415   9.660  13.851 -0.2140 -0.1228 -0.1848
16840W        W32649   3.302   2.659   1.128 -0.3057  0.0027  0.1319
16841W        W32650  11.315   3.093   0.358 -0.0248 -0.1311  0.2151
16842W        W32651   6.840  15.060  12.853  0.0751  0.0259 -0.1879
16843W        W32652   8.699   0.159   4.607  0.1594 -0.1534  0.1391
16844W        W32653   0.306  13.396  15.298 -0.1866  0.0022 -0.0683
16845W        W32654   4.311   4.923  11.330  0.0426 -0.5683  0.2469
16846W        W32655  14.837  13.398   4.301 -0.2833 -0.4274  0.0310
16847W        W32656  17.651   6.138   0.519 -0.1015 -0.2466  0.0099
16848W        W32657   3.080   6.738  13.840 -0.2135  0.0918 -0.0173
16849W        W32658  12.990  10.002   5.215 -0.3055  0.0764 -0.3051
16850W        W32659   6.721  15.537  14.897 -0.1462  0.2015  0.2407
16851W        W32660   3.598  13.362  12.170 -0.1738 -0.2516 -0.2301
16852W        W32661  15.373   5.183  13.979 -0.2696 -0.1740 -0.1093
16853W        W32662   6.316   7.203   4.086  0.1962  0.3011  0.0316
16854W        W32663  15.725  18.792  11.534  0.0738  0.1757  0.0730
16855W        W32664   3.298   3.931  13.726  0.0764 -0.3164 -0.3017
16856W        W32665  12.805  14.712   4.945 -0.2952 -0.0494  0.0671
16857W        W32666  17.023   9.114  12.648  0.0585 -0.1319  0.0170
16858W        W32667   8.233   4.001  12.543 -0.0132  0.1007 -0.0390
16859W        W32668   0.950   9.386  14.594 -0.0624  0.2101  0.3129
16860W        W32669   1.441  18.087   0.749 -0.3138 -0.2888 -0.2063
16861W        W32670   5.144  17.427  11.476  0.3161 -0.0255  0.1622
16862W        W32671   3.648   2.149   3.060  0.1807  0.1047 -0.1731
16863W        W32672  15.387   0.292   3.836  0.0574 -0.4411 -0.0201
16864W        W32673   4.200   6.828   2.741  0.0885 -0.0829 -0.2134
16865W        W32674   9.716  18.315  14.218  0.3254 -0.1012 -0.0407
16866W        W32675  13.140   4.061  12.269 -0.0080  0.3068  0.3408
16867W        W32676   9.140  12.543  11.808 -0.2180 -0.0298 -0.0097
16868W        W32677   9.925   2.246  12.948 -0.2221  0.0970  0.1270
16869W        W32678  10.692   6.506   3.796 -0.1350 -0.0115 -0.2830
16870W        W32679  16.505  16.026  12.676  0.0179  0.1488  0.2914
16871W        W32680   8.320   4.790  11.175  0.2256 -0.2673 -0.2148
16872W        W32681  14.994   3.026  10.422  0.2907 -0.2992  0.2826
16873W        W32682  15.916   9.340  10.677  0.3993 -0.1184  0.1054
16874W        W32683  13.103  14.884  14.825 -0.0406  0.0669  0.0792
16875W        W32684  13.091  17.328  14.184  0.0459  0.0218 -0.0597
16876W        W32685   0.868  13.195   3.101  0.3850  0.3603 -0.1090
16877W        W32686   4.347   8.839   1.442  0.1035  0.2561  0.1206
16878W        W32687   1.723  12.800  10.574 -0.1628  0.1661  0.0857
16879W        W32688   8.570   6.408  10.140  0.2245  0.0653 -0.1829
16880W        W32689   4.023   9.339   4.361 -0.0229 -0.2975  0.0498
16881W        W32690  10.901  14.684   1.769 -0.1627 -0.1410  0.1487
16882W        W32691   9.301   9.983   9.655 -0.2256  0.1034 -0.0803
16883W        W32692   9.402   9.009   0.597 -0.0944 -0.2269  0.2657
16884W        W32693  11.452   7.045   1.255 -0.1029 -0.0908  0.1275
16885W        W32694   9.403   6.972   1.638 -0.2602 -0.1759 -0.1931
16886W        W32695  11.579   5.220   0.055 -0.2928  0.2065  0.1618
16887W        W32696  15.428   1.805  11.695 -0.0576  0.1955 -0.2311
16888W        W32697   6.731  10.273  12.868  0.0405  0.2909 -0.0386
16889W        W32698  13.929  17.983  11.201  0.0022 -0.3700  0.4192
16890W        W32699  12.305  13.977  13.339  0.1412  0.1534 -0.2070
16891W        W32700  10.572   1.661   1.726  0.1000  0.2909 -0.1409
16892W        W32701   5.464   6.349   1.691 -0.1682  0.0378 -0.2012
16893W        W32702  17.404  13.057   2.718 -0.1320 -0.5048  0.0883
16894W        W32703   6.538  11.930  13.683 -0.1403 -0.3923  0.1668
16895W        W32704  12.442   6.981   5.221 -0.2213  0.6686  0.1492
16896W        W32705  11.013   8.081   2.880 -0.0904 -0.4121 -0.0998
16897W        W32706   8.778   5.502  12.624 -0.0580 -0.0161  0.0388
16898W        W32707   0.545  14.452   3.272  0.1352 -0.0921 -0.0838
16899W        W32708  11.827  12.477  11.661  0.1974 -0.1096  0.4092
16900W        W32709   7.423   3.761   0.298  0.0267  0.1932 -0.2891
16901W        W32710  17.471   9.834   5.352  0.0502  0.2206  0.1943
16902W        W32711  18.485   9.507  11.485  0.1483 -0.3345 -0.1868
16903W        W32712   3.769   7.007   3.119 -0.3912  0.1548 -0.2146
16904W        W32713  10.781   0.230  13.898  0.2061  0.0125 -0.2339
16905W        W32714  13.382   3.086   2.110  0.0721  0.2121  0.1967
16906W        W32715  17.615  13.470   2.264  0.0458 -0.0431 -0.0410
16907W        W32716   2.274   2.182   4.814  0.3445  0.1320 -0.0773
16908W        W32717  13.708   9.127   4.520  0.2722 -0.2499 -0.1953
16909W        W32718   9.247   9.891   0.317 -0.0132 -0.0422 -0.0475
16910W        W32719   5.815   7.171  13.821  0.2446 -0.0010 -0.0730
16911W        W32720  18.810   7.507  11.494  0.0742  0.2551 -0.1184
16912W        W32721  17.869  12.380   5.056  0.0540 -0.1617  0.1495
16913W        W32722   1.196  14.330   2.423 -0.0173  0.0902  0.1416
16914W        W32723  17.810   3.012   2.416  0.1062 -0.0023  0.0056
16915W        W32724   3.568   3.536   2.592  0.1699 -0.2009 -0.4355
16916W        W32725  12.575   6.437   1.774  0.1130  0.2952  0.1301
16917W        W32726   0.358   8.117   9.784 -0.4511  0.0767  0.1041
16918W        W32727  15.398  16.548  10.417 -0.2335  0.0407  0.0414
16919W        W32728  17.891  11.587   5.051 -0.0489 -0.1055 -0.1872
16920W        W32729   5.583  17.200   3.528  0.0137 -0.1819  0.1680
16921W        W32730   6.587  16.299   1.967  0.0248 -0.3249 -0.2595
16922W        W32731  14.985   3.914   0.911  0.1063  0.0644 -0.2132
16923W        W32732   2.355   4.190   4.170 -0.1168  0.1302 -0.0688
16924W        W32733  11.897  10.923   1.936 -0.2344 -0.2204  0.0714
16925W        W32734  15.666   7.824   5.804 -0.1706  0.1176  0.0056
16926W        W32735  10.332  16.842   4.649 -0.1278 -0.1169  0.1445
16927W        W32736   0.971   7.722  13.731 -0.2293 -0.2290 -0.0498
16928W        W32737   3.840   8.724  10.674 -0.0215 -0.0834 -0.2139
16929W        W32738   1.055  13.780  14.965 -0.0845  0.1781  0.0243
16930W        W32739   2.606  18.815   4.937  0.1438 -0.0868 -0.2382
16931W        W32740   0.917   8.398  14.711  0.3541 -0.0365 -0.1152
16932W        W32741   8.017  16.936   2.419  0.0939  0.1001  0.3776
16933W        W32742   0.550   0.607  13.327  0.0596  0.2870 -0.0021
16934W        W32743  18.675  15.356  14.037  0.0134 -0.1750  0.1335
16935W        W32744   1.926   7.496  10.170 -0.1505 -0.1212 -0.0522
16936W        W32745  13.904  11.117   5.388 -0.0797 -0.1047 -0.0628
16937W        W32746  17.533  18.145  11.961  0.0943  0.0214 -0.2484
16938W        W32747  17.309  15.390  11.309  0.0998 -0.0855 -0.1760
16939W        W32748   8.745   5.806  11.377 -0.1111  0.3696  0.1332
16940W        W32749   3.701  13.515   0.241 -0.0362 -0.2178 -0.1638
16941W        W32750  17.535  14.652  13.350 -0.2699  0.1253  0.1018
16942W        W32751   8.938  11.656   1.512  0.1409 -0.2108 -0.1251
16943W        W32752  13.471  11.583   3.572 -0.2109 -0.3335  0.1882
16944W        W32753  17.523   9.810  10.995 -0.1625  0.2214  0.0240
16945W        W32754  16.579  11.269  13.485  0.0997 -0.2430  0.0725
16946W        W32755   1.549  16.069   9.902  0.0015 -0.1368  0.3527
16947W        W32756  16.946  15.282   5.236 -0.1534 -0.0194 -0.0740
16948W        W32757   3.948   1.376   1.674  0.1962  0.1208  0.2218
16949W        W32758  13.302  11.955   2.362 -0.0688 -0.1541  0.0204
16950W        W32759  13.316   9.703   4.814 -0.1745  0.0982 -0.2425
16951W        W32760   7.897   1.113   0.130 -0.0977  0.3248  0.3453
16952W        W32761   7.992   6.425   3.770 -0.3485  0.1962 -0.1329
16953W        W32762  11.242   1.667  12.206  0.0620  0.1117 -0.1195
16954W        W32763   9.148   8.030   4.010  0.1407 -0.1420  0.2869
16955W        W32764  17.394  16.370  15.229 -0.0064  0.0933  0.0565
16956W        W32765  17.444   3.550   5.988  0.1879  0.1655  0.1893
16957W        W32766   0.803   2.616   1.477  0.3931 -0.0328 -0.2588
16958W        W32767  10.021   5.863   5.049  0.0237 -0.2927  0.1812
16959W        W32768   6.684   1.716  11.311  0.1774 -0.2585 -0.6687
16960W        W32769   0.417  18.350   4.865 -0.1721  0.1621  0.1183
16961W        W32770  12.269   4.094   0.518  0.3719  0.2275 -0.0472
16962W        W32771  16.326  14.020  15.148  0.1135 -0.0646 -0.0777
16963W        W32772  13.492   5.670  12.832  0.0261 -0.0228 -0.1403
16964W        W32773   5.941   8.853  12.414 -0.1185  0.0025  0.0275
16965W        W32774  16.780  13.562  13.049 -0.2513  0.0924  0.1354
16966W        W32775   3.845   8.808   2.182  0.0270 -0.0426 -0.3674
16967W        W32776   1.661   2.186   3.068 -0.0548  0.0423  0.2055
16968W        W32777  17.929  18.886  14.997  0.0639  0.4176 -0.0012
16969W        W32778   1.193  18.159  14.380 -0.2021 -0.1050  0.1947
16970W        W32779  13.914   1.961   3.048 -0.1824 -0.1624 -0.1786
16971W        W32780   0.379   4.039  11.984 -0.0602  0.0792  0.0532
16972W        W32781   7.591  12.319  12.818 -0.3621  0.3130 -0.1340
16973W        W32782   7.589   9.524   5.129  0.1608  0.1276  0.2014
16974W        W32783   9.220   9.393  11.071  0.0425 -0.2257 -0.0911
16975W        W32784  15.497   0.682   4.276  0.2957  0.1561  0.0934
16976W        W32785   0.151  12.959   2.867 -0.0676  0.0548 -0.3203
16977W        W32786   6.488  13.655   2.450 -0.1900  0.1597 -0.1151
16978W        W32787  12.053  10.335  13.129  0.2632  0.2434  0.0267
16979W        W32788   2.074  15.333  11.504  0.4436 -0.1721 -0.0012
16980W        W32789  12.558  17.763   1.193  0.0888  0.0997  0.1566
16981W        W32790  13.819   3.476   2.451  0.1302  0.2204  0.1333
16982W        W32791   6.590  17.698  13.754 -0.4006 -0.1572 -0.1931
16983W        W32792  16.437   5.006  12.810  0.1700 -0.2011  0.0433
16984W        W32793  16.991  13.537   3.694 -0.2385  0.2842 -0.0186
16985W        W32794   8.691  10.107   4.652 -0.3122  0.0205 -0.0197
16986W        W32795  18.008   0.807  12.307  0.0470 -0.0719  0.0133
16987W        W32796  11.775   0.414   0.010  0.1770  0.5655 -0.0890
16988W        W32797   6.996   2.616   4.411 -0.1076  0.1271  0.4171
16989W        W32798  16.945  13.547  11.822  0.0184  0.0246  0.4383
16990W        W32799   4.373  16.857  11.547  0.1364  0.1447 -0.0365
16991W        W32800  11.128  18.292  13.374  0.2095  0.2009  0.1472
16992W        W32801  10.605  12.170   3.421  0.0662 -0.0052 -0.2248
16993W        W32802   1.693  14.334  12.225  0.1314  0.1451  0.1140
16994W        W32803   3.861   4.203   4.727 -0.0123  0.3022 -0.0971
16995W        W32804   3.564  10.852   0.929 -0.0135 -0.3258  0.2915
16996W        W32805   5.885   1.403   3.906  0.5182 -0.0406  0.0422
16997W        W32806   7.055  14.872   3.288 -0.0735  0.2459  0.1673
16998W        W32807  15.981   6.307   2.799 -0.1711  0.0933  0.2294
16999W        W32808  15.598  14.676  13.240  0.1424  0.3277 -0.2018
17000W        W32809   5.838  16.922  11.314 -0.1848 -0.0663 -0.0031
17001W        W32810  14.743   3.467  12.601 -0.1096 -0.2908 -0.3997
17002W        W32811  13.421  15.014   5.460 -0.0735 -0.1634 -0.1944
17003W        W32812  16.950   4.255  14.374 -0.2285 -0.1377 -0.1963
17004W        W32813   1.359  14.137  10.336 -0.1629 -0.3946  0.0804
17005W        W32814   8.372  11.561  12.238 -0.1554  0.0946 -0.2484
17006W        W32815  10.293   3.775   3.791 -0.1137  0.0841  0.0154
17007W        W32816  12.135   0.928   2.118 -0.0315 -0.1307 -0.2617
17008W        W32817   5.257  12.971   3.619 -0.1729 -0.0915  0.1712
17009W        W32818  12.124  11.238  15.334  0.0884  0.1117  0.2809
17010W        W32819  11.824  12.300  13.162 -0.1728  0.0471  0.2820
17011W        W32820   4.685   7.269  14.145 -0.1212  0.1979  0.0544
17012W        W32821   7.221  14.895  10.621 -0.2826 -0.1441 -0.4020
17013W        W32822  16.871  15.866   3.048  0.1153  0.0071 -0.2189
17014W        W32823   5.614   1.311  11.650  0.2526  0.3938 -0.0663
17015W        W32824   1.062   4.307  13.008 -0.2003  0.3154  0.0350
17016W        W32825   4.688   6.164   0.634  0.3556 -0.0146  0.2932
17017W        W32826   0.942   7.939   3.644 -0.1229 -0.2148  0.3353
17018W        W32827  11.152   9.446   3.719 -0.1445  0.2638  0.2159
17019W        W32828  10.464  11.277   4.041 -0.1305  0.0484 -0.0469
17020W        W32829  14.468  14.305  12.073  0.1708  0.1221 -0.3739
17021W        W32830  17.046   7.056   0.911 -0.3415  0.0855 -0.0236
17022W        W32831  17.213   3.815   2.840  0.2789 -0.4232  0.1626
17023W        W32832   4.592   5.714  10.229 -0.1671  0.1410  0.1264
17024W        W32833  16.806  13.481   5.579  0.2043 -0.0059 -0.0362
17025W        W32834   0.502  10.123  14.941 -0.1112 -0.2372 -0.0282
17026W        W32835  14.743   3.073  10.843 -0.1010  0.0606 -0.2360
17027W        W32836  18.887   3.599  13.438 -0.1636 -0.5063 -0.2198
17028W        W32837   3.362  18.421  11.234 -0.1296 -0.0319 -0.2425
17029W        W32838   6.871   1.764  14.972 -0.1435 -0.0530  0.0815
17030W        W32839   8.292   6.314   4.688 -0.2300 -0.1048  0.1621
17031W        W32840   2.392   2.242   3.335 -0.3493  0.0292  0.0483
17032W        W32841   9.077  10.095   5.539 -0.1452  0.2006  0.1668
17033W        W32842   1.698  17.213  12.431  0.0528  0.0575 -0.0343
17034W        W32843  10.976   2.100   0.187 -0.2000 -0.0747  0.0897
17035W        W32844  11.055   3.807   5.102  0.3270  0.4664 -0.3387
17036W        W32845  17.752   9.910   1.548 -0.0571  0.0109  0.0035
17037W        W32846  18.689   3.896   3.042 -0.3000 -0.1019 -0.2026
17038W        W32847  16.672   3.422  13.404  0.1401 -0.1318  0.0019
17039W        W32848  17.169   3.919   5.405  0.2211 -0.2149  0.1243
17040W        W32849  12.802  13.170  14.736  0.3226 -0.0398  0.2193
17041W        W32850   7.149  12.651   3.518 -0.0657 -0.0200  0.1670
17042W        W32851   5.797   4.875  11.123  0.1049  0.1851 -0.0053
17043W        W32852   3.612  10.573   2.782  0.2966 -0.0400  0.0801
17044W        W32853  16.136  11.425   2.130  0.2175  0.1492  0.1592
17045W        W32854   0.076  10.745  12.445  0.0667 -0.0887  0.0454
17046W        W32855  18.567  12.576  14.586 -0.2173  0.2338 -0.1382
17047W        W32856   0.963   1.116   1.302 -0.1283 -0.0855  0.3198
17048W        W32857   8.355   1.729  10.768 -0.2012 -0.1497  0.0895
17049W        W32858   7.784   7.720   2.808 -0.0310  0.0051 -0.1044
17050W        W32859   2.892  16.139   9.286  0.3149 -0.1249  0.0660
17051W        W32860  11.201  11.120   2.468 -0.1025  0.2255  0.0025
17052W        W32861  18.370  12.665  14.077 -0.1292 -0.1868 -0.2070
17053W        W32862  18.695   9.281   1.734 -0.1629 -0.1335  0.0239
17054W        W32863  11.757  12.634  15.400 -0.0362  0.0978  0.0866
17055W        W32864  18.880  14.941  14.306  0.2860 -0.1400 -0.0437
17056W        W32865  16.283   6.744   1.668  0.1367 -0.1815 -0.1781
17057W        W32866  16.659   8.108  15.351  0.1747  0.0656  0.0478
17058W        W32867   4.528  10.340   1.083 -0.2634  0.0049  0.0954
17059W        W32868  10.814  16.122   2.944  0.2913 -0.0513  0.0195
17060W        W32869  10.089   0.080  11.623  0.2528  0.3194  0.3695
17061W        W32870   0.367   9.918   2.050 -0.1165  0.0011 -0.0982
17062W        W32871  12.915   6.805   1.965 -0.1051  0.2172  0.1891
17063W        W32872  15.252   4.461  14.026 -0.0321 -0.1231  0.1932
17064W        W32873  12.128   1.007   3.805 -0.3196 -0.0345 -0.4617
17065W        W32874   4.718  17.632  13.188 -0.0642 -0.4897  0.0098
17066W        W32875  13.729  16.341   0.459 -0.0423 -0.1213 -0.1496
17067W        W32876   4.989   9.235  11.565  0.2532 -0.0522 -0.0855
17068W        W32877  15.923  16.982  14.467 -0.2627  0.0893 -0.1116
17069W        W32878  14.548  10.233   3.510 -0.3018 -0.2682  0.4493
17070W        W32879   4.197  18.527   0.705  0.0050 -0.0847 -0.2441
17071W        W32880   6.408  13.979   1.395  0.2958 -0.4870 -0.1319
17072W        W32881   1.128   3.790  12.980  0.1650 -0.0611  0.0534
17073W        W32882   2.410   2.285  11.460 -0.1236 -0.3169  0.1237
17074W        W32883   5.414   0.684   2.567  0.2369  0.1066 -0.3690
17075W        W32884  11.895   0.368   1.122 -0.0341 -0.1795  0.1654
17076W        W32885  17.500   8.939   2.543  0.0889 -0.2463  0.0968
17077W        W32886  16.870  15.707   1.998 -0.1642  0.0484  0.0776
17078W        W32887  15.576   2.459  13.545 -0.0201  0.0128 -0.1116
17079W        W32888  10.167  12.635  11.992  0.1608  0.0756 -0.0975
17080W        W32889   2.907  12.614  12.849  0.1845 -0.1152  0.1833
17081W        W32890   5.780  10.051  14.409  0.1601 -0.2545  0.0913
17082W        W32891   9.818  10.110   4.172  0.1174  0.0123 -0.0387
17083W        W32892  12.385   6.788  13.416 -0.1511  0.4331 -0.1976
17084W        W32893  18.901  16.142   1.683  0.1439 -0.2450  0.0363
17085W        W32894   5.997   3.333   3.330  0.0119 -0.2768 -0.2507
17086W        W32895   3.384   8.542  10.676  0.4628  0.1394  0.0276
17087W        W32896   2.495  12.522   5.317  0.3976 -0.0451  0.1585
17088W        W32897   8.600  12.474   1.186  0.1317  0.1887 -0.0030
17089W        W32898  16.653  12.549   2.723 -0.1860 -0.1437 -0.4813
17090W        W32899   6.819  10.238   1.400 -0.0246  0.0843 -0.0291
17091W        W32900  14.394  11.014   0.861 -0.0025  0.0010  0.0689
17092W        W32901   3.114  10.656   1.741  0.4122  0.2022  0.3695
17093W        W32902   9.598   0.468  12.918 -0.3262  0.2035  0.1829
17094W        W32903   2.762   4.500   2.994 -0.0808 -0.1775 -0.3592
17095W        W32904  14.669  17.633   2.373 -0.4201 -0.1975  0.0781
17096W        W32905   7.532  10.741  10.188  0.3314  0.2295  0.3600
17097W        W32906   9.649  17.849  14.935  0.1468  0.0263 -0.1309
17098W        W32907   4.859  15.705  10.533 -0.4197 -0.0321  0.1097
17099W        W32908  12.667   4.778   2.011  0.0791  0.1986 -0.2890
17100W        W32909   5.088   5.479   3.511 -0.2723 -0.1048 -0.0700
17101W        W32910  13.013  16.911  14.388 -0.0819  0.0206  0.1897
17102W        W32911   9.099   7.557   2.975 -0.1117  0.1863  0.3573
17103W        W32912   3.976   2.439   5.016  0.2973  0.0562 -0.2375
17104W        W32913   2.623   9.061   3.210  0.3490  0.4806  0.0108
17105W        W32914  12.965  15.883  14.677 -0.0345  0.1538 -0.2517
17106W        W32915  18.629  17.592  11.658  0.1038 -0.0818  0.0047
17107W        W32916   7.602  16.492  15.353 -0.0577 -0.2111 -0.0620
17108W        W32917  17.363   8.266  11.728 -0.0251 -0.0606 -0.1278
17109W        W32918  18.625  15.634   2.313  0.2933  0.0680 -0.3097
17110W        W32919   3.531   9.699   5.794 -0.0920  0.1101  0.0792
17111W        W32920  18.869   1.752   2.282  0.2306  0.1240  0.1351
17112W        W32921   8.836   9.651  12.477 -0.1480  0.0684 -0.1905
17113W        W32922  10.113  10.573  13.811 -0.1742 -0.0647 -0.0705
17114W        W32923   3.361   4.887   2.173 -0.2761 -0.1088 -0.0441
17115W        W32924  12.396   1.205  12.137 -0.2304  0.2529 -0.1806
17116W        W32925   9.894   7.997   5.178  0.0044 -0.0621  0.1541
17117W        W32926  16.129   8.749   2.360 -0.1976 -0.4766 -0.0859
17118W        W32927   2.057  17.426   3.840  0.1744  0.5357 -0.1674
17119W        W32928   5.835  18.028  12.454  0.1913 -0.1001 -0.3480
17120W        W32929  13.451  15.182   4.426 -0.2138 -0.4534  0.0655
17121W        W32930  10.483   8.368   1.933  0.1262  0.0746  0.1285
17122W        W32931   8.362   0.211   1.445 -0.0269  0.1586  0.1428
17123W        W32932   2.819   3.178   3.577  0.2788 -0.2785  0.0358
17124W        W32933  17.746   0.177   4.484  0.1152  0.0265  0.4656
17125W        W32934  17.982  10.145  12.105  0.0709 -0.0769  0.2529
17126W        W32935  17.895  11.549  14.747  0.0043  0.0086 -0.4023
17127W        W32936  14.070  18.736   2.257 -0.0279 -0.1389  0.2338
17128W        W32937   7.682   8.280  12.462 -0.2759  0.0575 -0.1911
17129W        W32938  15.782   9.969  15.403 -0.1637  0.2024 -0.3374
17130W        W32939  18.687  17.432   2.432  0.1029  0.2526  0.2155
17131W        W32940   0.984   9.681   0.582  0.2096  0.1297  0.3656
17132W        W32941   4.630   0.037  14.658  0.2506 -0.0778  0.0252
17133W        W32942   3.247   2.739   5.597 -0.1577  0.0603  0.0375
17134W        W32943  14.392  11.872   1.536  0.2430  0.1648 -0.0003
17135W        W32944   1.911  18.464   0.714 -0.1815 -0.0098  0.1998
17136W        W32945   9.357   9.894  14.301  0.0573 -0.1012 -0.1005
17137W        W32946   1.592   9.250   0.233  0.1903 -0.1138  0.1049
17138W        W32947  18.193   8.006  14.757  0.3147 -0.0155  0.2288
17139W        W32948   9.915  11.931  14.654  0.3673 -0.0641 -0.0691
17140W        W32949   2.164  12.214  14.433 -0.1646  0.1329  0.0547
17141W        W32950   5.806  10.043   1.609  0.0382  0.0677  0.4478
17142W        W32951  16.482  16.836  11.143 -0.2566  0.1760  0.1925
17143W        W32952  11.079   1.924   4.112  0.1381 -0.2130  0.2381
17144W        W32953   0.343  10.482   0.536  0.4062 -0.4360 -0.0165
17145W        W32954   9.887   4.942  11.922  0.2317 -0.0941  0.0236
17146W        W32955   8.756   8.717   5.016  0.2965  0.0749  0.1204
17147W        W32956  18.271   4.242  13.868  0.2156  0.4091 -0.0020
17148W        W32957   9.299  12.242   4.722  0.1447 -0.2304  0.3192
17149W        W32958  10.237  18.130  13.275 -0.2408  0.2476  0.1780
17150W        W32959  16.478  10.750  11.041  0.2743 -0.0272  0.3331
17151W        W32960  14.543  15.396  15.222 -0.1971  0.2994 -0.0943
17152W        W32961  17.763  14.135  10.551 -0.1172  0.2066 -0.1365
17153W        W32962   9.236  14.572  12.335  0.3982 -0.2523 -0.0037
17154W        W32963   2.079   2.686  11.181 -0.0392 -0.2550 -0.0895
17155W        W32964  17.272  15.669  14.463  0.2611  0.2599 -0.1625
17156W        W32965  17.595   8.539   2.905  0.1608 -0.0330  0.3522
17157W        W32966  11.375   8.068   2.122 -0.0467 -0.2979  0.0414
17158W        W32967  10.977   2.083  14.537 -0.0293 -0.0569  0.1215
17159W        W32968   3.445   3.897  11.881  0.1118 -0.1933 -0.0654
17160W        W32969  18.287  12.830   4.492 -0.0714  0.1122 -0.3371
17161W        W32970   6.883  15.931   4.158  0.6326  0.1411  0.2264
17162W        W32971   8.833  10.072  11.126 -0.2640 -0.0560 -0.1414
17163W        W32972   5.158  12.854   1.632  0.3591  0.1996  0.2728
17164W        W32973  14.641  17.563  14.539 -0.1757 -0.0988  0.2038
17165W        W32974   1.839  18.553  15.001  0.0116 -0.3589  0.2943
17166W        W32975   5.089  11.904  13.597  0.1627 -0.0630  0.0114
17167W        W32976  15.710  10.821   0.656 -0.2453 -0.0173  0.3334
17168W        W32977   7.008  13.784   0.286 -0.1737 -0.1137  0.0398
17169W        W32978   1.138  16.242  15.042 -0.1939  0.3049  0.0036
17170W        W32979   2.258  12.537   3.904 -0.0797 -0.1638 -0.0628
17171W        W32980   2.346   4.896  12.966  0.0071 -0.0867 -0.3302
17172W        W32981   7.002   0.194   1.394 -0.0574 -0.1449 -0.2169
17173W        W32982  16.784   9.719  10.777  0.3088  0.1905 -0.5026
17174W        W32983  13.147   3.708  13.427 -0.2234  0.1153 -0.0310
17175W        W32984   2.226   3.551  12.720  0.0490 -0.1929 -0.3166
17176W        W32985  18.212   8.064   3.078 -0.5010  0.0043  0.2703
17177W        W32986   7.297   4.733   2.068 -0.1133  0.1250  0.0836
17178W        W32987  13.094   6.296   1.741  0.1342  0.0586  0.0497
17179W        W32988   6.537  16.283   2.479 -0.3047  0.1300  0.0904
17180W        W32989   7.619  11.245   2.369  0.1044 -0.1066  0.1930
17181W        W32990   8.338   1.998   3.148 -0.0604  0.2612  0.0809
17182W        W32991   3.335   1.220   4.119 -0.1107 -0.0514  0.0898
17183W        W32992   8.399  11.430  10.946 -0.0747 -0.0957  0.0298
17184W        W32993  17.418  15.823  11.146 -0.0830 -0.2847  0.0426
17185W        W32994  10.073  18.672   4.025  0.2400 -0.2633  0.1525
17186W        W32995   7.368  10.715  10.849 -0.2103 -0.1794 -0.0725
17187W        W32996  18.574  13.674  10.813 -0.1321 -0.0958  0.1279
17188W        W32997   8.740   9.138  11.157 -0.3645 -0.0105  0.0695
17189W        W32998   3.154   8.872  10.947  0.0678  0.0601 -0.1651
17190W        W32999  17.772  15.399   0.224 -0.1051 -0.1566  0.3077
17191W        W33000  11.760   1.818   2.494 -0.0349 -0.0723  0.0956
17192W        W33001  17.255  18.228   4.781 -0.1387  0.0132 -0.2488
17193W        W33002   7.149   8.786  14.996  0.1556 -0.0700 -0.0504
17194W        W33003   1.876   5.692  13.990  0.2166 -0.0526 -0.1957
17195W        W33004   0.022   9.443  11.403  0.0021  0.0144  0.0693
17196W        W33005   8.370  14.770  15.227 -0.1347 -0.0758  0.2303
17197W        W33006  16.146  12.727   0.977 -0.2364 -0.2347 -0.1184
17198W        W33007  13.889  17.998  14.137  0.0661 -0.3371  0.1798
17199W        W33008   9.072   1.055   1.044 -0.0055 -0.0154 -0.2839
17200W        W33009  17.752  17.737  12.639  0.1189  0.0802 -0.5383
17201W        W33010   1.827  12.281  13.313  0.1690 -0.2515  0.1966
17202W        W33011  10.191  15.698   1.461 -0.1346 -0.0727  0.0397
17203W        W33012  15.559   0.979  13.752  0.1710  0.2011  0.1399
17204W        W33013   1.492  12.492  11.640  0.1051  0.3077 -0.3414
17205W        W33014   6.037   9.318   3.086 -0.3217 -0.2938  0.0654
17206W        W33015   4.805  13.694   4.688 -0.0208 -0.2839  0.0507
17207W        W33016  17.352  12.613  10.639 -0.2159 -0.3244  0.2193
17208W        W33017  17.833  18.392  14.925 -0.0835  0.0080 -0.2535
17209W        W33018  13.385   6.625   5.061 -0.3696  0.1955  0.0644
17210W        W33019   4.960   6.602  10.086 -0.1675 -0.1745 -0.0003
17211W        W33020  10.424   5.072   9.650 -0.1506  0.1940 -0.1018
17212W        W33021  10.728   6.029   1.817 -0.3058  0.0224  0.2203
17213W        W33022   5.460   3.146  14.786 -0.0325  0.0753  0.1526
17214W        W33023   9.260   8.623  14.450  0.2363  0.2265 -0.2126
17215W        W33024  11.737   2.136  15.076  0.0745 -0.1335  0.3458
17216W        W33025  11.423   2.033   0.004  0.1593 -0.1132  0.0169
17217W        W33026   3.036   0.953   3.795  0.1214  0.1785  0.1242
17218W        W33027  17.845  14.880   3.029  0.0498 -0.1491  0.0610
17219W        W33028   5.673  13.897  13.909 -0.0262 -0.1045  0.0331
17220W        W33029  13.404  13.510   4.578  0.2185  0.1162 -0.2835
17221W        W33030   3.292   1.067  11.109  0.0599 -0.0527 -0.1792
17222W        W33031   5.752  12.731   1.877  0.1258  0.0446  0.1701
17223W        W33032   5.762   5.906  11.187  0.1092  0.0412  0.2872
17224W        W33033   3.170   7.231   0.735  0.2198 -0.2315  0.0793
17225W        W33034  11.211   2.945  15.071  0.3443 -0.0174 -0.1277
17226W        W33035  14.608  11.920  12.653 -0.1661  0.3120 -0.1359
17227W        W33036   3.577   5.257  11.078 -0.0257 -0.1840 -0.2147
17228W        W33037  11.627  13.910   1.693 -0.0575  0.1194  0.0886
17229W        W33038  12.321   3.046   3.661  0.0455 -0.1398  0.0521
17230W        W33039   3.848  15.432  14.718 -0.0560  0.3015  0.3458
17231W        W33040  11.411   9.097  11.621 -0.1394  0.2722  0.2027
17232W        W33041   0.921   0.602  11.529  0.2883  0.0602  0.0829
17233W        W33042   5.126   5.828   2.315  0.1328 -0.0936 -0.0466
17234W        W33043  17.298  10.687  14.445  0.0661  0.0510  0.2119
17235W        W33044  14.099   9.497   0.067  0.0592  0.1092 -0.0580
17236W        W33045   0.839  15.066  12.902 -0.0392  0.2083  0.2087
17237W        W33046   9.011   9.899  15.283  0.0006  0.1833 -0.2470
17238W        W33047  14.524  17.421   1.299  0.1144  0.2852 -0.1664
17239W        W33048   0.614  12.632   2.158  0.0481  0.0023 -0.3061
17240W        W33049  13.815  12.909  12.166 -0.0386 -0.3222  0.1034
17241W        W33050   2.753  12.382  11.985  0.1022  0.2467 -0.1163
17242W        W33051   5.468  11.957  14.947 -0.0256  0.0062  0.1641
17243W        W33052   7.556  14.187  15.121  0.2258 -0.0078 -0.0122
17244W        W33053   7.742   1.999  12.249  0.1303 -0.0894 -0.0207
17245W        W33054   1.946   7.995   0.751  0.1914  0.2249  0.1710
17246W        W33055   0.575  13.038  13.971  0.1306 -0.3432 -0.2887
17247W        W33056  10.729   3.084   6.131  0.1758  0.0680  0.0879
17248W        W33057  11.785   9.980   1.499  0.0057  0.0149 -0.1704
17249W        W33058   5.923  18.397   2.093  0.0072 -0.0265 -0.2259
17250W        W33059   0.249  14.739   2.200  0.1049 -0.1023  0.2499
17251W        W33060  14.814   5.447  13.941  0.0661 -0.1408 -0.0680
17252W        W33061   4.060   9.368  14.878 -0.1329  0.1519 -0.0111
17253W        W33062  17.141  14.253  12.953  0.2205  0.4801 -0.0610
17254W        W33063  14.529   8.903  12.612  0.4494 -0.1421  0.1593
17255W        W33064  16.790  13.945  13.870 -0.0100 -0.1042 -0.3032
17256W        W33065   1.672   6.719   2.161 -0.1001  0.0159  0.1080
17257W        W33066  10.683   7.734   2.668 -0.0660  0.2081 -0.2070
17258W        W33067  14.048  17.478   4.984  0.0010 -0.3055 -0.1735
17259W        W33068   0.446   5.579  11.160  0.0282  0.3580  0.2594
17260W        W33069   9.726   8.655   1.974  0.3182 -0.1714 -0.1895
17261W        W33070  13.682  13.110  11.724  0.0663  0.0102 -0.1359
17262W        W33071  16.194  14.092   1.756 -0.3903 -0.1937 -0.0823
17263W        W33072  15.048   9.631  10.301  0.1994  0.4519 -0.1088
17264W        W33073   5.571  16.571  11.048 -0.0069  0.2340 -0.0146
17265W        W33074   5.511  17.180   1.968  0.0324 -0.2887 -0.2505
17266W        W33075   2.287  14.175  14.700  0.1733  0.1122  0.0989
17267W        W33076  17.020  10.643  10.976 -0.3274  0.1523  0.1291
17268W        W33077  16.178   2.354   4.179 -0.0056 -0.0767  0.0881
17269W        W33078  14.518   6.688  13.164  0.1324  0.1205 -0.0961
17270W        W33079   5.880  18.421  12.744  0.0538 -0.1503 -0.5328
17271W        W33080   2.031   9.485  11.611 -0.1041  0.2270 -0.1562
17272W        W33081   7.413  16.907  15.014  0.1572 -0.0132  0.1365
17273W        W33082  13.645  14.528  11.642 -0.0589  0.0822  0.1354
17274W        W33083   7.541   7.313  11.720 -0.2780 -0.2436  0.0971
17275W        W33084  16.146  12.559  12.323  0.1267  0.0956 -0.0198
17276W        W33085   1.583   7.139   2.453  0.0982  0.1077  0.3799
17277W        W33086   4.347   7.682   3.422 -0.0544 -0.0170  0.0019
17278W        W33087  11.493  11.740  12.292 -0.3346  0.2382 -0.2068
17279W        W33088   5.963   4.304  13.275  0.0096 -0.0660 -0.3050
17280W        W33089   3.622   8.719   1.373 -0.2589 -0.2535 -0.0068
17281W        W33090   7.872  15.860  12.700  0.0589 -0.1103 -0.0512
17282W        W33091  14.570  18.081  13.482  0.1852  0.0676  0.0827
17283W        W33092  13.686  11.955  12.454 -0.2822 -0.0342 -0.0192
17284W        W33093   6.466   8.017   4.151  0.2438  0.4011 -0.0792
17285W        W33094  16.585   0.674   3.343  0.2353 -0.1821 -0.2730
17286W        W33095   3.631  14.143   3.982 -0.1011 -0.2280  0.1376
17287W        W33096   9.326   4.833  12.935  0.0521 -0.0282  0.1978
17288W        W33097  18.533  11.717  13.505 -0.2763  0.1563 -0.4233
17289W        W33098   2.244   7.973  10.897  0.1921 -0.0750 -0.1140
17290W        W33099   3.894   2.742   3.843  0.3010  0.1437  0.2258
17291W        W33100   8.557   4.253  10.405 -0.0170 -0.3358  0.0778
17292W        W33101   5.711  14.960  14.618 -0.3375  0.0059 -0.1825
17293W        W33102  13.530   6.023  12.422 -0.1727 -0.0563 -0.0087
17294W        W33103   3.926  16.671   4.247  0.0108  0.0066  0.0630
17295W        W33104   9.590  10.808   4.319 -0.0250  0.0473 -0.4156
17296W        W33105  10.875   8.961   3.808 -0.2279  0.0466 -0.0918
17297W        W33106   7.027   6.093  13.796 -0.1976 -0.3017 -0.1594
17298W        W33107   0.415  15.980   3.001  0.0023  0.1741 -0.2187
17299W        W33108   3.119  18.078  11.537 -0.1343 -0.2231 -0.1745
17300W        W33109   8.988   3.685   1.463 -0.3060  0.0067  0.1676
17301W        W33110  17.896  13.756   0.358 -0.0556  0.1055  0.1027
17302W        W33111  10.007  10.797  14.545 -0.1271 -0.1422 -0.0223
17303W        W33112  18.393   5.606   2.002 -0.1357 -0.4127  0.2090
17304W        W33113  10.936   3.358   3.882 -0.0539 -0.0161 -0.1853
17305W        W33114  10.933   1.420  12.864 -0.3673 -0.1133 -0.0128
17306W        W33115   9.819   5.552   3.455 -0.1392  0.1125  0.1854
17307W        W33116  11.787   0.543  14.591 -0.0331 -0.0504  0.0146
17308W        W33117   9.475   4.922  10.668  0.4125  0.2331 -0.1899
17309W        W33118   7.227  18.190   3.447 -0.1531  0.1837  0.0731
17310W        W33119   5.106   6.646   1.356  0.4670  0.0623  0.0203
17311W        W33120  14.993   7.796   5.071 -0.0543  0.1432  0.0665
17312W        W33121   4.355  13.718   4.461  0.2906  0.0745 -0.0912
17313W        W33122  13.773  17.130  13.741 -0.0696  0.1372 -0.0994
17314W        W33123  10.503   4.515   5.470 -0.0971 -0.0202  0.0726
17315W        W33124  14.960   1.798  11.519 -0.3937 -0.0791 -0.2550
17316W        W33125   8.038  18.896  14.306 -0.1006  0.0142 -0.3198
17317W        W33126   5.190   1.496   4.366  0.0218  0.0758 -0.1453
17318W        W33127  14.926   7.103   0.807 -0.1749 -0.1359 -0.1797
17319W        W33128   3.639  10.068  15.015 -0.3745 -0.1188 -0.4428
17320W        W33129  13.369  14.576   2.870  0.0386 -0.2558 -0.0455
17321W        W33130  18.553  16.702   3.053 -0.1742  0.0755  0.2167
17322W        W33131  11.241   4.832  13.556 -0.0120 -0.0538 -0.2130
17323W        W33132  11.635  13.661  15.254  0.1052  0.0366  0.2283
17324W        W33133  10.913   1.769  11.434  0.1071  0.0608  0.3360
17325W        W33134   5.253   2.344  13.525 -0.1859  0.0178 -0.0727
17326W        W33135  17.742   1.309  11.547 -0.1885 -0.2676  0.1375
17327W        W33136  15.303  13.166  11.495  0.1929  0.1195 -0.0344
17328W        W33137   0.884   6.694   0.337  0.3307 -0.2253 -0.2761
17329W        W33138   5.573   8.821   4.464  0.3616  0.3735 -0.3647
17330W        W33139  15.029  18.299   2.948  0.2137 -0.2001  0.2722
17331W        W33140  16.529   7.671   3.818  0.0906 -0.2575  0.2297
17332W        W33141  16.640   4.673  14.346 -0.0697 -0.2437 -0.1447
17333W        W33142   7.826   5.547   1.778 -0.2783 -0.1964  0.1906
17334W        W33143  11.432  11.256   2.075 -0.1378  0.0211  0.1282
17335W        W33144   8.965   8.536   0.450 -0.0598 -0.0015 -0.0671
17336W        W33145   9.059   5.940  12.569  0.3484  0.2571  0.2685
17337W        W33146   4.649  13.804  13.993  0.1522  0.1611  0.0852
17338W        W33147   8.000   4.090   0.066  0.1830  0.0470 -0.0951
17339W        W33148  10.092   3.550   1.636  0.1577  0.2003 -0.0355
17340W        W33149  11.257  17.107   4.541 -0.3765 -0.2768 -0.1603
17341W        W33150   1.671   2.085  12.559  0.1254  0.0631  0.0532
17342W        W33151   1.205   8.894   3.557  0.3722 -0.1232  0.0419
17343W        W33152  12.778  15.633   4.097  0.3506 -0.4999 -0.0832
17344W        W33153   9.013   9.930   2.752 -0.2513  0.4470 -0.2086
17345W        W33154   8.985  14.510  15.205 -0.2031  0.1906 -0.1462
17346W        W33155  10.216  11.562   0.006 -0.1948 -0.1030  0.1878
17347W        W33156   8.169  10.201   0.855  0.0611 -0.0310  0.0068
17348W        W33157  12.156   8.999  14.526  0.0906  0.2327  0.2391
17349W        W33158   9.720   5.874  11.726 -0.0958 -0.1813 -0.0442
17350W        W33159  14.752  15.679  14.723  0.1069  0.0106 -0.3627
17351W        W33160   4.142  17.434  10.239  0.0770  0.2883  0.3179
17352W        W33161   2.534  16.089   4.302 -0.0422  0.0493  0.2140
17353W        W33162   7.186  10.889  14.646 -0.0667 -0.3008 -0.2277
17354W        W33163  12.997   5.050   2.259  0.2098  0.0217 -0.0934
17355W        W33164   8.796  13.033   0.630 -0.1705 -0.0138 -0.0181
17356W        W33165   9.297   9.367  12.477  0.2643  0.1764  0.1465
17357W        W33166   7.761   3.303  10.997  0.1717 -0.1397  0.2333
17358W        W33167  11.187  16.266  11.250 -0.2299  0.2621  0.0526
17359W        W33168   2.685   3.194  12.675 -0.0067 -0.2297  0.1319
17360W        W33169   8.990   8.549  11.481  0.2250 -0.3932 -0.1887
17361W        W33170   5.551   1.248   1.907 -0.3809 -0.2531  0.0909
17362W        W33171  14.174  14.228   1.659  0.0068 -0.0334 -0.0382
17363W        W33172  13.404  14.110  12.010 -0.1035  0.2804  0.2640
17364W        W33173  17.792  11.607  13.315 -0.3008  0.3299  0.0957
17365W        W33174  11.498   2.169   2.803  0.0541 -0.0480  0.0114
17366W        W33175   1.469   5.263  13.845 -0.1904 -0.1508 -0.0013
17367W        W33176   6.297  16.323  13.787 -0.0679 -0.4548 -0.0094
17368W        W33177  16.526   9.974   2.469 -0.0161  0.1514  0.1440
17369W        W33178   7.983   7.837  12.647 -0.3269 -0.0212  0.0659
17370W        W33179   7.760   1.172  11.120 -0.0928 -0.0547  0.2999
17371W        W33180   4.216   6.516   0.029 -0.2155  0.0358 -0.0039
17372W        W33181  15.499  14.115  11.443 -0.0537  0.1266  0.1005
17373W        W33182  11.534  12.639   4.825 -0.2433 -0.1723 -0.0091
17374W        W33183   5.668   1.960  15.426 -0.0598  0.0859 -0.2302
17375W        W33184   4.185  13.214   0.777 -0.0471  0.0175 -0.1759
17376W        W33185   0.612   5.835  14.093  0.0633 -0.0481  0.1259
17377W        W33186  10.626  15.610  10.315  0.1661  0.0710  0.0363
17378W        W33187  11.646  12.148   1.563  0.0466 -0.2622 -0.1449
17379W        W33188   2.327   6.591   1.536  0.2132  0.1265 -0.0658
17380W        W33189  14.716   0.416   0.946  0.0468  0.1631 -0.0556
17381W        W33190  13.672   2.411  14.699  0.0212  0.0481 -0.3239
17382W        W33191   4.513  16.324   3.670  0.1248 -0.1159  0.2733
17383W        W33192   6.208   0.347  11.181 -0.2523 -0.1068  0.3950
17384W        W33193   5.677  14.222   0.291  0.0978 -0.0423 -0.2598
17385W        W33194   3.259   8.291  12.816  0.0104  0.1380  0.1278
17386W        W33195   0.185  14.300   5.231  0.2768  0.0646  0.2609
17387W        W33196   7.350  11.169   4.205  0.1711  0.2194 -0.0865
17388W        W33197   9.649  16.575   0.069  0.2178 -0.0674 -0.2222
17389W        W33198  15.796   9.820  13.928  0.0696  0.0457  0.3621
17390W        W33199   3.481  17.350   4.729 -0.0927 -0.2211  0.0090
17391W        W33200   1.092   1.630  12.553  0.0016 -0.0483  0.3826
17392W        W33201   8.545   1.653   3.765  0.1399 -0.0116  0.1614
17393W        W33202   8.229   2.916   4.351 -0.4040 -0.0451 -0.0163
17394W        W33203  13.541   0.578  13.486  0.0386  0.2043  0.0533
17395W        W33204   8.948   1.597   4.038 -0.2493  0.4167  0.1435
17396W        W33205   4.350  10.843   4.364 -0.2789 -0.1570  0.2711
17397W        W33206   5.295   9.966   1.590  0.0974 -0.3812  0.0963
17398W        W33207   0.277   4.972   4.370 -0.1230  0.0371 -0.1619
17399W        W33208  10.822  14.771  12.328  0.4567  0.0365 -0.2155
17400W        W33209   0.477   2.809  14.265  0.0174  0.2342  0.0511
17401W        W33210  11.470   1.336   3.432 -0.3245  0.0135 -0.0194
17402W        W33211  18.311  14.620   2.850 -0.0659 -0.0793  0.1662
17403W        W33212  12.677  15.803  12.832  0.1895  0.2158 -0.3473
17404W        W33213   6.985  17.145   3.230 -0.0618  0.1516  0.0530
17405W        W33214  15.513   0.998  15.140 -0.1148 -0.0225 -0.1439
17406W        W33215  12.535  13.580   1.676  0.2798  0.1177  0.1370
17407W        W33216  16.091  15.864   0.358 -0.1778 -0.0434  0.0427
17408W        W33217  10.742  13.789   3.427 -0.0520 -0.2050  0.3706
17409W        W33218   6.855   4.602  10.926 -0.0426  0.3199  0.4587
17410W        W33219  18.815  14.206  10.646 -0.3953  0.3325 -0.1084
17411W        W33220   0.280  18.250   3.294 -0.0937 -0.0311  0.3331
17412W        W33221  11.634   6.752   5.130 -0.1060 -0.2843  0.0885
17413W        W33222  14.236   1.810   4.947 -0.2987  0.1871 -0.0248
17414W        W33223   6.761   4.714  13.793 -0.1808  0.1109  0.0472
17415W        W33224  15.173   2.342  11.718 -0.1209 -0.0033 -0.1025
17416W        W33225   4.686  14.263   5.679  0.0601  0.1093 -0.3596
17417W        W33226  14.988  10.801   1.770  0.1759 -0.1552 -0.1274
17418W        W33227  13.555   1.848   4.002 -0.0963  0.0399  0.1915
17419W        W33228  13.987  16.437   4.784 -0.1730  0.1333  0.1242
17420W        W33229   5.091  11.313   0.402 -0.0964  0.1216 -0.0010
17421W        W33230   7.278   1.033  14.858 -0.1206 -0.0235  0.0525
17422W        W33231   6.212   2.830   0.096  0.0086  0.1221 -0.1538
17423W        W33232   1.397   7.625   4.188  0.4463 -0.3466  0.0768
17424W        W33233  15.591   4.233   2.268 -0.1144  0.1180  0.0058
17425W        W33234   1.151   3.295  12.975 -0.0963  0.1794  0.1919
17426W        W33235   3.563   0.699  14.130  0.1444  0.3338  0.1769
17427W        W33236  15.248   2.143   4.576 -0.3763  0.2699  0.1997
17428W        W33237   1.418  16.494  12.846  0.2136 -0.1808  0.0059
17429W        W33238  15.216   4.258   2.994 -0.1017 -0.0476 -0.2273
17430W        W33239   5.938   5.492  13.116  0.1342 -0.0583 -0.1548
17431W        W33240   6.506  18.431   4.649 -0.2724 -0.0936 -0.2087
17432W        W33241  15.043  18.027  12.621 -0.2610  0.2833 -0.3478
17433W        W33242   1.288  14.872  13.960  0.4240  0.1720 -0.0788
17434W        W33243  13.647   6.130  11.111  0.3585  0.5578 -0.0597
17435W        W33244   1.074   4.738   2.105 -0.3304  0.0293 -0.0649
17436W        W33245   9.044   8.007  12.529  0.2569  0.1413 -0.2246
17437W        W33246   8.479   9.298   2.445  0.3779  0.2395 -0.0285
17438W        W33247   9.466   5.848   1.286 -0.0636  0.0822 -0.2046
17439W        W33248  11.475  15.169   4.806 -0.0181 -0.0908  0.0865
17440W        W33249   9.706  17.875  12.244 -0.0637  0.0120  0.0967
17441W        W33250   8.764   5.532  14.340 -0.1165  0.2291 -0.1318
17442W        W33251  11.496   8.389   0.579 -0.3378 -0.0512 -0.2830
17443W        W33252   1.765  18.158  15.289  0.1416  0.1707 -0.0046
17444W        W33253   2.694  16.678   3.266  0.1641 -0.0525 -0.1201
17445W        W33254   8.946  13.310   3.175  0.2820  0.1368  0.3202
17446W        W33255  18.532   5.717  11.926  0.0375 -0.1296  0.0496
17447W        W33256   8.678  10.677   3.659 -0.0570 -0.0102  0.0324
17448W        W33257  16.116   6.952   3.460  0.0017 -0.0946  0.1758
17449W        W33258   4.250   6.014   1.370 -0.2897 -0.1614 -0.2167
17450W        W33259   8.055  11.997   2.374 -0.2005 -0.2657 -0.2285
17451W        W33260   2.659  17.890  14.063 -0.0558  0.2364  0.0057
17452W        W33261  13.635  10.615  10.535 -0.0330 -0.1911 -0.1144
17453W        W33262  10.960  10.738   0.729  0.1264 -0.0144  0.1397
17454W        W33263  17.503  10.790  10.873  0.1101  0.0170  0.5111
17455W        W33264  11.312   4.644   2.969  0.1400 -0.4805  0.2123
17456W        W33265  10.544   8.157   4.398  0.1796 -0.0143 -0.2409
17457W        W33266   1.708   7.834  12.330 -0.1600  0.1653 -0.1875
17458W        W33267  12.776  14.937   0.720 -0.1415 -0.4711 -0.1653
17459W        W33268  15.292  16.273   3.285  0.0880  0.3890 -0.0890
17460W        W33269   9.653  14.041   0.542  0.0653 -0.0074 -0.1970
17461W        W33270  11.649   2.802  13.562  0.1456 -0.1934  0.0851
17462W        W33271  12.987   8.131  12.878  0.1602 -0.0196  0.1789
17463W        W33272  11.927   6.424  12.924  0.1344 -0.0421 -0.2898
17464W        W33273   8.539   2.692  13.222  0.0476 -0.0479  0.0883
17465W        W33274  13.113   4.043   2.340  0.1457 -0.1065  0.1718
17466W        W33275   2.423   4.495   0.066 -0.2939  0.0541 -0.1201
17467W        W33276   2.524   8.830  10.330 -0.1165  0.0621  0.0194
17468W        W33277  14.938  15.565   4.058  0.2397 -0.2011 -0.2570
17469W        W33278   1.861   8.717   1.787  0.1662 -0.0897 -0.4099
17470W        W33279   2.662  18.647  11.344 -0.2350  0.0543 -0.3434
17471W        W33280  15.584   7.550   4.455  0.0794  0.0561  0.2016
17472W        W33281   4.767  13.123   1.966 -0.2267 -0.1951 -0.0714
17473W        W33282   4.456   6.090  10.625  0.0149 -0.0321  0.2464
17474W        W33283  12.931  11.924  14.504  0.1628  0.2085  0.3229
17475W        W33284  12.966  13.308   4.789  0.2252 -0.1632  0.0410
17476W        W33285  13.981   8.134  12.099 -0.2473 -0.1326  0.1206
17477W        W33286  12.163  16.914  10.582 -0.6125  0.0261 -0.1583
17478W        W33287  13.049   8.725  14.193  0.1678 -0.0724  0.3299
17479W        W33288   7.960  13.358  10.809 -0.3087  0.5152  0.2266
17480W        W33289   0.867  18.350  14.782 -0.2052  0.0103  0.2508
17481W        W33290  18.343   6.069   4.698 -0.0540 -0.0856 -0.0968
17482W        W33291   0.839   8.624  11.910  0.0984  0.0139  0.0132
17483W        W33292  10.212  12.401   3.090  0.3033  0.0433 -0.0767
17484W        W33293  17.772   9.618   1.940  0.4021  0.0487 -0.0052
17485W        W33294   9.582   0.084   2.453 -0.0755 -0.4262  0.3145
17486W        W33295   3.153   4.823   3.137 -0.0054 -0.0300  0.0593
17487W        W33296  10.906  11.561   5.553  0.0683  0.1410 -0.2589
17488W        W33297  17.237   1.844  13.493 -0.0120  0.1545  0.1686
17489W        W33298   8.231  16.695  12.239 -0.1397 -0.3922 -0.1633
17490W        W33299  18.092   6.755   3.566  0.4078 -0.2187 -0.0579
17491W        W33300   4.323   9.535  11.113 -0.1601  0.1665 -0.1773
17492W        W33301  12.215   6.260   0.251 -0.1652  0.1522 -0.0068
17493W        W33302  13.154   7.551  14.564  0.2424  0.1843 -0.2264
17494W        W33303  14.071   2.614   2.613 -0.3116  0.1838  0.0920
17495W        W33304  11.887  12.681   4.053 -0.0872 -0.1282 -0.0231
17496W        W33305   2.306   8.700   1.029  0.1982  0.1311  0.0334
17497W        W33306  10.336  13.914  14.017 -0.2034 -0.3546  0.0723
17498W        W33307   1.212  13.365  11.758 -0.0843 -0.1972 -0.0139
17499W        W33308  13.296   5.455  13.806 -0.2985  0.2344 -0.2034
17500W        W33309   2.669  14.440   0.116  0.0010 -0.1974 -0.0505
17501W        W33310   0.976   0.272  13.224 -0.0351  0.0509 -0.1349
17502W        W33311  15.655   5.981   1.258  0.3840  0.2178  0.0086
17503W        W33312   7.683  15.660   3.862 -0.1075  0.1348 -0.0841
17504W        W33313   0.803  11.740  14.036 -0.0107  0.1020 -0.6633
17505W        W33314   8.238   8.288  13.456 -0.0354  0.3556  0.2291
17506W        W33315   9.525   2.132  13.181  0.1650 -0.1617 -0.1443
17507W        W33316   5.563   5.852   4.972  0.2999 -0.1556 -0.2576
17508W        W33317   0.010  12.032  11.960 -0.1084  0.2361 -0.0799
17509W        W33318   9.091   1.790   2.902 -0.1542  0.1328  0.0533
17510W        W33319  13.468   1.396   3.261  0.1991  0.3509  0.0001
17511W        W33320   1.305   6.511   9.376  0.1576  0.1369  0.0245
17512W        W33321  15.414   9.113  11.574  0.0703 -0.0751  0.0846
17513W        W33322   3.113   7.147  13.540 -0.2987  0.0026 -0.2724
17514W        W33323   9.939   6.127   0.372  0.2759 -0.0601 -0.0082
17515W        W33324  10.050  16.151  13.291  0.0167  0.0727 -0.0411
17516W        W33325   2.612  17.823  15.317  0.1191  0.2748 -0.3085
17517W        W33326   5.644   2.761   4.402 -0.2743 -0.1372 -0.0935
17518W        W33327  15.089   7.951  13.373 -0.3263 -0.0951  0.1729
17519W        W33328  14.460  13.844  15.382 -0.1076 -0.0128 -0.2849
17520W        W33329   1.864  13.287  15.309  0.0009  0.3739  0.1664
17521W        W33330   3.080   6.503  12.949 -0.1905  0.2821 -0.3623
17522W        W33331   3.918   5.856   3.586  0.1076 -0.1501  0.3661
17523W        W33332  16.148  18.270  11.819  0.0108  0.1043  0.0965
17524W        W33333   5.317   8.986   0.588 -0.0970 -0.1826 -0.1335
17525W        W33334   1.990   5.204  13.089  0.0466 -0.1712 -0.1914
17526W        W33335  16.446   1.801   5.388 -0.1161 -0.1846  0.1794
17527W        W33336  18.451  13.283   4.464  0.0834 -0.2542  0.0293
17528W        W33337   3.891  10.083   2.813  0.2468  0.1125 -0.1515
17529W        W33338   4.050   1.249   4.567  0.3574 -0.1393 -0.0028
17530W        W33339   1.055  16.087   2.552 -0.3444 -0.0848  0.1160
17531W        W33340  14.697   7.850   2.279  0.0532  0.4226  0.0516
17532W        W33341   1.780   7.737  14.336 -0.1948 -0.1021 -0.0167
17533W        W33342  12.355  17.124  14.740 -0.0500  0.1001  0.2751
17534W        W33343   8.131   2.669  10.204 -0.0691  0.0848 -0.0548
17535W        W33344   6.153   6.496   2.317 -0.1736  0.2941  0.0919
17536W        W33345  14.789  14.159  14.589  0.1234  0.0491 -0.2867
17537W        W33346  13.296  13.445   3.389 -0.1847 -0.0402  0.0756
17538W        W33347   3.644   6.919  14.636 -0.1055  0.1162  0.0582
17539W        W33348   6.117   2.934  14.763  0.3454  0.2930  0.0552
17540W        W33349   1.240  15.902  13.522  0.0542 -0.0378 -0.0735
17541W        W33350   6.085  16.940   4.802 -0.1678  0.1710  0.2970
17542W        W33351  18.456  10.712   2.963  0.2282 -0.1124 -0.2166
17543W        W33352   7.272  12.813   4.213  0.2473 -0.0713  0.0275
17544W        W33353  17.171  18.212  12.953 -0.0736 -0.0586  0.2032
17545W        W33354  14.039   0.828   1.339  0.0871 -0.1247 -0.1869
17546W        W33355   3.226   4.042  15.379 -0.0147 -0.0470 -0.0559
17547W        W33356   0.278  17.294   0.723  0.0412 -0.1949 -0.1898
17548W        W33357   6.931   2.429  14.498  0.2802 -0.3805 -0.0437
17549W        W33358  15.044  17.810  15.420  0.0551  0.2792 -0.1151
17550W        W33359   2.149  12.767  11.401  0.1663  0.2283 -0.0201
17551W        W33360  13.602  12.474   3.616  0.1083  0.1688 -0.0547
17552W        W33361  11.922   5.073   2.121 -0.0945 -0.1050  0.3055
17553W        W33362  17.985  10.672   1.110 -0.0732  0.0349 -0.2130
17554W        W33363  13.961  14.235   3.333 -0.1511  0.0991 -0.1049
17555W        W33364   8.527  18.412   0.859  0.0039  0.2501 -0.1786
17556W        W33365  16.269   6.986   5.019  0.0853 -0.2119  0.0201
17557W        W33366  12.077   1.188   4.288 -0.2106 -0.1462 -0.3055
17558W        W33367   2.373  15.924  15.079 -0.0337 -0.1840 -0.4407
17559W        W33368   0.628  12.052   2.222 -0.1505  0.0800  0.1097
17560W        W33369  12.485  15.266   4.249  0.3024 -0.2082 -0.2280
17561W        W33370  16.394  17.772  13.882 -0.2729 -0.0575 -0.0546
17562W        W33371   2.058   1.571  12.628  0.0356 -0.0032  0.1581
17563W        W33372  12.664   9.195  13.313 -0.2602  0.3006  0.0814
17564W        W33373  10.123  15.535   4.303 -0.2467 -0.4055  0.2235
17565W        W33374  12.061   1.743   4.229  0.3950 -0.1793  0.0330
17566W        W33375   5.465  15.143  14.018  0.2231 -0.2359  0.2996
17567W        W33376   5.780  16.605   0.219  0.1382  0.2325 -0.2036
17568W        W33377   3.577   6.408   1.410 -0.1535 -0.0911 -0.2117
17569W        W33378   1.124  14.091   5.297  0.0130 -0.0245 -0.2182
17570W        W33379   7.619   3.622  13.230 -0.4876  0.1162  0.5069
17571W        W33380  18.595   8.657   3.655  0.1991 -0.1351  0.0500
17572W        W33381  18.205   0.855  13.102  0.3611 -0.0732  0.1911
17573W        W33382   9.357  10.288  14.039  0.1552 -0.1572  0.0196
17574W        W33383  13.961  13.757   2.811  0.3126  0.4408 -0.0387
17575W        W33384   7.632   5.911   4.894 -0.1519 -0.0049 -0.2462
17576W        W33385  12.726   9.413  11.178  0.1885  0.0609  0.3985
17577W        W33386   2.679  12.795  11.561  0.5153 -0.1418 -0.4428
17578W        W33387  13.023   4.762  12.690  0.2229 -0.0644 -0.1247
17579W        W33388   7.199  17.113   0.385  0.0659  0.0413  0.3120
17580W        W33389   0.556   5.333  14.210 -0.0565  0.0032  0.0333
17581W        W33390  13.155   6.852  15.237  0.1761  0.2127 -0.0118
17582W        W33391  17.372  16.294   4.065  0.0003  0.1791 -0.0040
17583W        W33392  18.362  16.202   2.992  0.1694 -0.3629 -0.0167
17584W        W33393  18.752   6.673  12.612  0.2589 -0.2447  0.3388
17585W        W33394   7.131  15.571   1.581 -0.0777 -0.1778  0.3312
17586W        W33395   2.100  14.183  13.147  0.1722 -0.0917  0.0220
17587W        W33396  12.917  13.981   0.496  0.2733  0.1360  0.1517
17588W        W33397  12.947   9.775   0.247  0.0534 -0.0402  0.0429
17589W        W33398  14.577   2.566  10.746 -0.1242  0.1496 -0.2918
17590W        W33399   1.467   2.553   3.282 -0.0337  0.3021 -0.0891
17591W        W33400   5.888   0.678   2.796  0.2827 -0.1631 -0.2276
17592W        W33401   4.914  11.124  10.996  0.1198  0.0861 -0.2216
17593W        W33402   7.487   5.250   4.876 -0.0257 -0.1904 -0.2357
17594W        W33403   9.462  17.512  14.552  0.4419 -0.0237  0.2496
17595W        W33404  16.809  15.650   6.027 -0.1763 -0.0179 -0.0881
17596W        W33405  15.633  14.433   0.223  0.0603 -0.3093 -0.1187
17597W        W33406   0.035   0.611   4.009  0.0004 -0.2876 -0.2642
17598W        W33407  17.982  16.094  13.956 -0.0729 -0.0368  0.0865
17599W        W33408  15.154   4.183   4.747 -0.0750 -0.2790 -0.0433
17600W        W33409  12.803   8.946  11.755 -0.2440  0.1137  0.0491
17601W        W33410  11.356   1.971   4.750 -0.2817 -0.1921  0.2617
17602W        W33411   0.792   4.117   0.620 -0.2937  0.1199 -0.2983
17603W        W33412   7.200  10.277   0.311  0.2019  0.0539 -0.4154
17604W        W33413   0.713  13.352   1.844 -0.0191  0.2049  0.5294
17605W        W33414   1.316  18.357  12.144  0.0527 -0.0501 -0.1937
17606W        W33415   0.387  13.177   3.274  0.2001 -0.0890 -0.1146
17607W        W33416   0.097  15.397  12.252 -0.1493 -0.0815 -0.0783
17608W        W33417   5.123  18.328   2.787  0.5824 -0.0036  0.2700
17609W        W33418   5.731   0.515  14.821 -0.2681 -0.2269 -0.0375
17610W        W33419  13.869  14.593  14.391 -0.3555 -0.0034 -0.3025
17611W        W33420   0.220  10.604  13.427 -0.1677  0.0994 -0.1106
17612W        W33421  13.874   3.057  12.719 -0.0150 -0.2302  0.0086
17613W        W33422  14.957   1.602  13.458 -0.0052 -0.0051 -0.1786
17614W        W33423  11.868  13.186  12.933  0.1376 -0.1999 -0.0173
17615W        W33424   5.320  14.471   0.767 -0.0236  0.1929 -0.0887
17616W        W33425   1.193   6.686   4.565 -0.0301  0.3033 -0.0853
17617W        W33426   2.023  15.199   5.150  0.1319 -0.2823 -0.1532
17618W        W33427  12.124  11.889   4.276 -0.0238  0.0496 -0.4608
17619W        W33428   7.067   5.609   4.262 -0.1214  0.1885  0.3407
17620W        W33429  17.393   4.405   4.072  0.2546  0.0974 -0.1289
17621W        W33430   8.476  17.210  12.119 -0.4220  0.1315  0.4065
17622W        W33431  17.372   0.815   3.815  0.3068  0.0002  0.0287
17623W        W33432   8.921  14.778  13.269  0.1225 -0.1104 -0.1238
17624W        W33433  11.664   0.652   0.478 -0.0374  0.1255 -0.2834
17625W        W33434   5.181  10.557  13.032 -0.2142 -0.1883  0.4259
17626W        W33435   6.261  11.539  11.417 -0.2909 -0.3439 -0.2773
17627W        W33436   9.691   4.196  13.592  0.2031 -0.0574 -0.0393
17628W        W33437  13.246  10.660  12.241 -0.2248  0.2652 -0.0584
17629W        W33438   3.705   3.995   2.838 -0.0590 -0.0586 -0.1480
17630W        W33439  14.812  17.540  12.590 -0.0134 -0.0710 -0.1297
17631W        W33440  15.334  17.250  12.462 -0.1350 -0.2506 -0.3262
17632W        W33441   4.584  14.148   4.452 -0.1003 -0.0723 -0.2110
17633W        W33442   9.474  10.421   1.006 -0.1438 -0.1416  0.2035
17634W        W33443   2.522   8.111   2.265  0.1435 -0.2753  0.1257
17635W        W33444   6.686   7.000   0.886 -0.2029  0.2488  0.0960
17636W        W33445  16.192  15.388   1.129 -0.1359 -0.0790  0.3703
17637W        W33446  12.107  13.341   1.199 -0.0587  0.0647  0.0810
17638W        W33447   8.806   9.603   4.822  0.0018  0.0832  0.1053
17639W        W33448   3.907  12.058  15.376  0.0022  0.1333  0.2184
17640W        W33449   8.610  12.253  11.070  0.0821  0.0018  0.0105
17641W        W33450   3.664   7.911   1.092 -0.0747 -0.0494  0.2404
17642W        W33451  10.166  10.925  14.134  0.1805 -0.3377  0.2036
17643W        W33452  17.209  11.953   6.074  0.0071  0.3202 -0.1821
17644W        W33453  13.584   3.929  13.320  0.0868  0.2863 -0.1662
17645W        W33454  11.344   9.098  15.257 -0.3737 -0.3133  0.2073
17646W        W33455  10.370   8.487  11.039 -0.1406  0.0448 -0.0366
17647W        W33456   6.184   8.030  11.062 -0.0294 -0.3419  0.0466
17648W        W33457   5.648   6.380  14.130  0.0211  0.0943 -0.1863
17649W        W33458  12.941  18.744   2.078 -0.1893  0.0217  0.1127
17650W        W33459  17.302  11.967  15.202 -0.0792 -0.1555  0.3549
17651W        W33460   5.313  10.734   4.379  0.3248 -0.0534  0.1234
17652W        W33461  11.321  17.098   0.203 -0.2445 -0.0423 -0.1730
17653W        W33462  17.094  12.751   1.031  0.1645 -0.0016 -0.2043
17654W        W33463  18.112   8.971   3.705  0.0275  0.0368  0.0040
17655W        W33464  11.950  10.936   4.565  0.0089  0.0631 -0.1424
17656W        W33465  11.943   0.976  11.476 -0.0803 -0.1971 -0.0629
17657W        W33466  11.133  10.291   4.422 -0.0027  0.0024  0.1402
17658W        W33467  11.612  10.734  11.828 -0.0064  0.0858 -0.1866
17659W        W33468   5.152   1.514   2.691  0.0662  0.0379  0.1131
17660W        W33469   0.040  15.238  10.484  0.4096  0.1706  0.1599
17661W        W33470  17.443  17.346  12.622 -0.1031  0.2687 -0.0904
17662W        W33471   8.916  18.661   4.717  0.2982  0.2227  0.1196
17663W        W33472   2.328  13.873   9.952  0.0446 -0.0706 -0.3018
17664W        W33473   5.401   7.576  12.092 -0.0443  0.1049 -0.0594
17665W        W33474   7.106   7.334  13.669  0.0936 -0.0513  0.1217
17666W        W33475  11.080   5.810   3.438  0.3027 -0.2595  0.2460
17667W        W33476   3.376   1.463  14.114  0.0861 -0.1002  0.1304
17668W        W33477   5.846   1.640   0.593  0.0686 -0.2026  0.0228
17669W        W33478  16.276  11.335   9.691  0.1287 -0.1285 -0.0218
17670W        W33479  14.581  11.560  15.423  0.0960 -0.0891 -0.1176
17671W        W33480   4.661   9.238   1.341  0.3750 -0.4297  0.0030
17672W        W33481  15.026  14.676  14.391 -0.0207 -0.0846  0.1756
17673W        W33482  18.779   1.723   4.125  0.0426 -0.2019  0.0255
17674W        W33483  17.782   5.449  12.879  0.0702  0.1721  0.0093
17675W        W33484   9.502  17.191   3.516 -0.1927  0.1178 -0.0994
17676W        W33485  16.936  15.752  11.125 -0.0252  0.1020 -0.2839
17677W        W33486   6.540   3.699   2.026  0.0806  0.0219  0.3767
17678W        W33487   1.031  15.158  13.330 -0.0551 -0.1093 -0.0561
17679W        W33488  11.931   7.216   1.095 -0.2439  0.1173 -0.1661
17680W        W33489  12.692   8.426   4.946  0.0930 -0.0332 -0.1800
17681W        W33490  15.110   0.893   4.579 -0.0099 -0.0339 -0.3776
17682W        W33491  12.372  16.419  11.575 -0.0192  0.2703 -0.0450
17683W        W33492   7.510  16.225  14.893 -0.0609  0.4243 -0.1504
17684W        W33493   1.474   9.900   1.516 -0.2088  0.1731  0.0666
17685W        W33494   2.516  18.036   4.443 -0.2912  0.3002 -0.2654
17686W        W33495  16.817   0.568   4.241  0.2018 -0.2894 -0.1403
17687W        W33496   1.654   5.287  14.314 -0.2765 -0.0067 -0.1941
17688W        W33497   7.881   0.472  14.124 -0.1801 -0.0271  0.3345
17689W        W33498   4.371   4.499   2.959  0.0916 -0.1607  0.0917
17690W        W33499  12.255  11.800  13.666  0.0006  0.0681  0.0526
17691W        W33500   7.351   2.506  14.009  0.2436 -0.0035 -0.0609
17692W        W33501  13.463   2.550  13.877  0.3257 -0.1991 -0.2192
17693W        W33502   5.095   3.908  13.550  0.2478  0.1136  0.2103
17694W        W33503  10.673  12.066  12.298 -0.2037 -0.0622  0.4065
17695W        W33504   8.672   7.687  11.395 -0.2606 -0.1182 -0.0335
17696W        W33505   3.049  11.946   3.133 -0.3391  0.2666 -0.4797
17697W        W33506  16.157  12.805   2.067  0.3855  0.1619  0.1740
17698W        W33507   7.375   7.985   4.539  0.0128  0.2338  0.0724
17699W        W33508  11.490   2.131   1.394  0.0258  0.2827  0.0073
17700W        W33509   3.199   9.066   1.594  0.0445 -0.3424 -0.1701
17701W        W33510  13.396  16.018  11.479 -0.2250  0.6337  0.2689
17702W        W33511   0.460  16.802   3.256 -0.1988 -0.1211 -0.0849
17703W        W33512  13.282   3.621  15.386 -0.0037  0.1800  0.3624
17704W        W33513   1.277   8.817  10.564  0.0954  0.0729 -0.1217
17705W        W33514   2.259  15.147  10.618  0.3917  0.1424 -0.0711
17706W        W33515   1.633   3.108   4.191 -0.2490  0.2919 -0.1389
17707W        W33516  14.018   8.944  10.815 -0.0531 -0.3283 -0.0746
17708W        W33517   7.912   3.756  11.108 -0.0708 -0.0986 -0.1500
17709W        W33518  14.418  14.928  11.803 -0.0476  0.6154  0.0773
17710W        W33519   0.609   5.013   0.885 -0.0642 -0.1293 -0.1875
17711W        W33520  15.367   3.803   3.157  0.0421 -0.0214 -0.0526
17712W        W33521   9.260   5.487  13.150  0.0029  0.0131 -0.1869
17713W        W33522  10.777   4.701  11.355 -0.2450  0.1282  0.0960
17714W        W33523   5.471   2.702   1.074  0.0759  0.0784  0.1697
17715W        W33524  13.814  13.317   4.758  0.0633  0.2085 -0.0046
17716W        W33525   1.912   9.564   1.505  0.0094 -0.3497 -0.0837
17717W        W33526  15.226  15.858   4.419 -0.1559 -0.0320 -0.0723
17718W        W33527   4.738   5.584   2.440  0.2411  0.2771 -0.2326
17719W        W33528   9.102  12.960  11.271  0.2958  0.1045  0.2299
17720W        W33529   4.790  14.749   3.706  0.0252  0.0365 -0.2285
17721W        W33530   2.902  14.675  10.376  0.1136 -0.0912 -0.0115
17722W        W33531   5.587   7.830   1.908  0.0936  0.1291  0.1870
17723W        W33532  18.001  16.539  12.141 -0.0024 -0.2027  0.0592
17724W        W33533  15.542   8.391   3.456 -0.2608 -0.1057 -0.0918
17725W        W33534   6.872  17.198  12.079  0.4957 -0.0608  0.0657
17726W        W33535   5.109   0.916  13.936  0.0059 -0.1166 -0.0502
17727W        W33536   7.290   9.499  13.535 -0.0955  0.3282  0.1936
17728W        W33537   1.082  15.175  14.604  0.0243 -0.0984  0.0358
17729W        W33538   1.526  13.454  13.441 -0.3320 -0.1686 -0.1184
17730W        W33539   7.919   1.687   2.350  0.0628  0.1437  0.2678
17731W        W33540  17.954   8.651  10.955 -0.1070  0.0181  0.2270
17732W        W33541  16.849   1.228  13.603 -0.1445  0.1248 -0.0873
17733W        W33542  12.250   6.872   1.666 -0.0333  0.0316  0.2586
17734W        W33543  14.706   6.254   0.649  0.2741  0.3953  0.1976
17735W        W33544   2.726   7.314   2.604 -0.2806 -0.0772 -0.0089
17736W        W33545  10.706  15.096   1.286  0.1028  0.0889 -0.1189
17737W        W33546  13.290   1.496  15.347  0.1024 -0.1546 -0.1013
17738W        W33547  12.333  17.165   4.173 -0.3694  0.1785  0.0695
17739W        W33548   1.899  10.012  11.603 -0.2758 -0.1287 -0.0826
17740W        W33549  17.092  15.717   5.126 -0.0181 -0.0855 -0.0581
17741W        W33550   6.829   2.646   0.910 -0.3503 -0.1701 -0.1345
17742W        W33551   2.644  18.855  13.568  0.0099  0.1893  0.2287
17743W        W33552  14.524   9.703   1.040  0.0746 -0.0294 -0.1222
17744W        W33553  11.613   2.841   0.780 -0.0483  0.1739 -0.2096
17745W        W33554   3.437   4.329   2.482 -0.2624 -0.5593 -0.2320
17746W        W33555  18.653   9.195   0.241  0.1268  0.1081  0.1944
17747W        W33556  16.118  16.485   0.997 -0.0190  0.1968  0.0835
17748W        W33557   5.251   0.774   0.894  0.1918  0.1045 -0.1053
17749W        W33558   3.131   6.497   9.361  0.3054  0.0222 -0.0324
17750W        W33559   6.857  13.372  12.196  0.4233  0.1763 -0.0099
17751W        W33560  12.787   7.715  13.353  0.1512  0.0000 -0.0980
17752W        W33561  15.746   3.364   0.336  0.1346  0.0760 -0.2298
17753W        W33562  14.033   8.247   2.183  0.2085 -0.0880 -0.0336
17754W        W33563   7.031   3.665   4.365  0.0038  0.1243  0.0530
17755W        W33564  17.173  12.914   0.190  0.0641  0.0340 -0.1843
17756W        W33565   5.862  11.251  15.172  0.0889 -0.0858 -0.0586
17757W        W33566  11.608  18.558   1.806 -0.2072 -0.0620  0.0782
17758W        W33567   3.772   6.975  11.623  0.3493 -0.1460  0.0494
17759W        W33568   9.146   5.175  10.922 -0.1878 -0.1916 -0.1751
17760W        W33569   2.936  15.480  14.460 -0.1120 -0.2427  0.2391
17761W        W33570   3.495  15.273  11.531  0.1309  0.1164  0.1604
17762W        W33571  15.350   1.295   4.399 -0.0457 -0.1121 -0.0606
17763W        W33572   7.748   4.501  14.603 -0.1949  0.1666 -0.3345
17764W        W33573  18.020  18.562  13.130  0.0695  0.0193 -0.1640
17765W        W33574   4.546   2.644  10.837  0.1426 -0.1900  0.1082
17766W        W33575   1.843   8.734   1.280  0.0912  0.1873 -0.3500
17767W        W33576  18.761  10.834   0.469 -0.0679 -0.2104  0.0128
17768W        W33577  12.830  17.043  13.814  0.0186  0.0982  0.1375
17769W        W33578   5.446  15.759   3.764 -0.1760  0.1117 -0.0773
17770W        W33579   2.106   0.726  15.156  0.2229  0.3192  0.0256
17771W        W33580   1.058   9.638   3.061 -0.2767 -0.2323  0.1441
17772W        W33581   1.169   7.249   1.692 -0.2946 -0.2050 -0.0993
17773W        W33582   8.486  18.730   3.498  0.0952 -0.1131 -0.0640
17774W        W33583  18.094   5.630   4.991  0.0248  0.0742  0.0366
17775W        W33584   4.963  17.929   3.627  0.1271  0.3906 -0.0385
17776W        W33585   6.066   2.724  10.595  0.0318  0.1920  0.3156
17777W        W33586   2.651   5.388  12.181  0.3377  0.3055  0.0551
17778W        W33587  16.252   5.045   4.358 -0.1018 -0.3021 -0.2362
17779W        W33588   7.822   7.710  14.837 -0.2082  0.0175  0.0141
17780W        W33589   2.021   7.333  13.276  0.0296 -0.1771 -0.3659
17781W        W33590   0.201  11.265   2.608 -0.1119  0.0931  0.1105
17782W        W33591  13.201   0.868  11.496 -0.2712 -0.1728  0.0327
17783W        W33592   4.708  14.743   1.541  0.4640  0.2146  0.0482
17784W        W33593  14.798  16.171   0.172 -0.0806  0.1551  0.0698
17785W        W33594  15.288   3.338   0.099  0.0416 -0.3485 -0.0614
17786W        W33595  18.742  16.852  12.894 -0.2714  0.3927 -0.3225
17787W        W33596   8.686  11.974  12.862  0.1264 -0.1248  0.0313
17788W        W33597   6.279  18.148   2.347 -0.0440  0.3077 -0.3367
17789W        W33598  18.201  13.466  11.814 -0.1399 -0.1409  0.0129
17790W        W33599  16.159  11.655   5.221  0.1908 -0.0716  0.0609
17791W        W33600   9.344  16.091  10.566  0.4378 -0.1162 -0.0730
17792W        W33601  11.462  17.789  15.053  0.1097 -0.1246  0.1863
17793W        W33602  12.661  10.072  13.876 -0.1085 -0.1803  0.0678
17794W        W33603   5.682   1.060   2.436  0.1434 -0.3309  0.6011
17795W        W33604   6.229   2.037   2.584  0.0386  0.0438  0.0325
17796W        W33605   1.394   8.906   1.592  0.0447 -0.2245 -0.2741
17797W        W33606   6.122  17.122   2.418 -0.1540  0.1316 -0.2369
17798W        W33607  14.270  17.931  14.533  0.2922 -0.2026  0.1088
17799W        W33608   5.784   2.873   1.596  0.2570  0.5888 -0.4646
17800W        W33609  10.990  16.370   1.500  0.0553 -0.1890 -0.2070
17801W        W33610  11.274   6.798  11.668 -0.0013  0.0904 -0.2603
17802W        W33611  10.442   4.653   3.963 -0.4690 -0.0047  0.0933
17803W        W33612  11.566   3.646   3.296 -0.0595  0.0303 -0.0619
17804W        W33613   3.315   4.043   5.427  0.2017 -0.1824  0.0182
17805W        W33614  16.448   9.080   2.409  0.2656  0.0175 -0.0416
17806W        W33615  10.591   7.256   2.784 -0.0025 -0.2001 -0.0290
17807W        W33616   8.108  18.430  11.988 -0.2029 -0.0258 -0.2263
17808W        W33617  17.821  15.878   0.257 -0.1942  0.0216 -0.1096
17809W        W33618   7.845  15.190  10.685  0.2440  0.1769  0.1208
17810W        W33619   2.317  10.547  14.591 -0.3520 -0.3943 -0.0518
17811W        W33620  17.130  11.235   2.273  0.0741 -0.1694  0.1118
17812W        W33621  15.836   1.225   4.461  0.1511 -0.1525 -0.0683
17813W        W33622  12.216   2.484  10.717 -0.3068  0.2360 -0.0451
17814W        W33623   8.221  16.215   4.360  0.0858  0.0634 -0.0268
17815W        W33624   3.390  18.734  14.382  0.1634  0.1043 -0.2127
17816W        W33625  11.484  11.758  14.836 -0.0703  0.0962 -0.3787
17817W        W33626   6.597  13.719  11.211  0.2297  0.0387  0.0968
17818W        W33627   8.861  15.970  13.305  0.6050 -0.0949 -0.2040
17819W        W33628   9.990  11.597  12.685 -0.0697 -0.0425  0.0573
17820W        W33629   0.065  16.584   5.284 -0.0160 -0.2499 -0.2561
17821W        W33630   7.600   3.011   2.823 -0.1382  0.2342  0.0229
17822W        W33631   5.200   6.830   2.500  0.2588  0.0406 -0.1370
17823W        W33632   5.282  15.534  13.693  0.1295  0.0231  0.1596
17824W        W33633  11.020   0.612   4.801  0.0854  0.2248  0.1642
17825W        W33634  14.003   0.472   2.932 -0.1683  0.0991  0.3297
17826W        W33635   7.544  13.645   3.349  0.1912 -0.1508 -0.2416
17827W        W33636   7.781  14.882   3.425 -0.1519 -0.3959  0.0642
17828W        W33637   6.500   9.518  14.796  0.2951  0.0313 -0.0129
17829W        W33638  13.463   1.260  12.779  0.1290 -0.0431 -0.1380
17830W        W33639   1.843  12.477   4.196  0.2154  0.1033 -0.5423
17831W        W33640  15.224  16.839   1.156 -0.1391  0.4567 -0.3326
17832W        W33641   5.620  11.104   1.402  0.1363 -0.0020  0.0243
17833W        W33642   5.035   8.545   4.343 -0.1617  0.1028 -0.1073
17834W        W33643  11.363  13.032  11.119  0.2121  0.2038 -0.1838
17835W        W33644  14.226   2.080  10.966 -0.0135  0.0334 -0.1246
17836W        W33645  11.037  15.847   1.462 -0.1624 -0.0274 -0.0074
17837W        W33646   8.761   0.169   1.781 -0.2278  0.1878 -0.1603
17838W        W33647   6.478  17.977  10.431 -0.2094 -0.0412 -0.2122
17839W        W33648   6.392   0.597   3.639  0.2861  0.0922  0.2989
17840W        W33649  15.704  14.546   4.808 -0.3528  0.0289 -0.3781
17841W        W33650  16.011  17.007   2.367  0.0914 -0.0317 -0.0920
17842W        W33651   7.609  11.155  13.760 -0.0496 -0.0504 -0.0124
17843W        W33652   0.028   8.323  15.372  0.0434  0.1251 -0.0199
17844W        W33653  12.632  15.219  11.182  0.0042 -0.2628 -0.0555
17845W        W33654  11.309   3.420  15.319  0.0776 -0.1586  0.0062
17846W        W33655  12.742   1.461  15.239 -0.0210 -0.0322 -0.2841
17847W        W33656  13.912   6.574   2.173 -0.0109  0.1853  0.0043
17848W        W33657   5.617   2.062   0.508 -0.1027  0.2601 -0.0873
17849W        W33658   7.586  15.642   4.370  0.2320 -0.2210 -0.0220
17850W        W33659   5.701  14.506   3.125 -0.1775 -0.3527  0.3289
17851W        W33660   1.612   5.710  11.924  0.3573  0.0936 -0.0863
17852W        W33661   7.608  18.060   4.320 -0.2702  0.2445 -0.0449
17853W        W33662   8.191   4.277  11.362 -0.1063  0.1460 -0.0712
17854W        W33663  11.188   6.921   4.908 -0.2055 -0.1518 -0.1183
17855W        W33664   3.488  17.509   0.709  0.1836  0.4008  0.2592
17856W        W33665  14.228  14.164   0.645  0.1933  0.1509 -0.0672
17857W        W33666  13.671   7.429  14.722 -0.1519 -0.0558  0.1395
17858W        W33667   1.798   8.918   4.882  0.2140 -0.1201  0.1374
17859W        W33668  15.646   7.613  12.006  0.0887  0.2635 -0.3052
17860W        W33669   9.173   4.309   0.888  0.1104 -0.2633  0.2037
17861W        W33670   5.219  10.573  10.997  0.1565 -0.0623  0.1390
17862W        W33671   9.714  12.962  14.271  0.0063  0.0386 -0.1229
17863W        W33672   5.976   8.602  12.922 -0.0959  0.0235  0.0356
17864W        W33673   5.319   1.734  10.793  0.1097  0.1294 -0.1430
17865W        W33674  14.761   7.202  11.981 -0.1133 -0.3319 -0.1306
17866W        W33675  10.093   7.236   0.321 -0.0136  0.0520 -0.3709
17867W        W33676   1.438   8.338   4.955 -0.1689  0.0413 -0.0636
17868W        W33677  10.675  14.598   1.275 -0.0439  0.0203  0.0958
17869W        W33678   4.498  10.845  14.147 -0.0327 -0.1484  0.0676
17870W        W33679   6.943  10.039   3.655  0.2089  0.2227  0.1482
17871W        W33680  16.291  14.629   3.025 -0.1337  0.6535  0.1319
17872W        W33681  13.435  18.878  14.298  0.0035 -0.1052  0.0910
17873W        W33682  14.223   6.475  12.782 -0.1316  0.1505  0.0198
17874W        W33683  15.793   1.968  13.530 -0.1674 -0.0123 -0.0520
17875W        W33684  14.904  16.245  14.459  0.2056 -0.0764 -0.0970
17876W        W33685  11.761   0.623   1.546 -0.1743 -0.1848 -0.1598
17877W        W33686  18.787  17.650   1.957 -0.2845  0.1899 -0.1512
17878W        W33687   9.440   4.497  12.643  0.1221  0.0384 -0.1620
17879W        W33688   6.225   7.902   4.893 -0.3042 -0.1010  0.0535
17880W        W33689  12.401   4.867   2.488  0.0765 -0.1241 -0.0520
17881W        W33690  12.683   9.155   5.192  0.1140  0.1705  0.1284
17882W        W33691  17.534  13.064  12.668 -0.0073 -0.0426 -0.2169
17883W        W33692  16.910   1.499   3.348  0.3107  0.2885  0.4720
17884W        W33693   0.313  17.966  12.401 -0.1012  0.0577 -0.2238
17885W        W33694  18.682  17.106  13.297  0.0246 -0.2128  0.0213
17886W        W33695   0.043  14.300  11.875 -0.0842 -0.2264 -0.3612
17887W        W33696   3.333   2.536  11.648  0.1702  0.0543  0.2163
17888W        W33697  10.972   5.961   5.090  0.0635 -0.2486 -0.2636
17889W        W33698   0.214   0.761   2.692  0.4211 -0.1589  0.1437
17890W        W33699  17.934  12.748   2.829  0.1167 -0.1635 -0.0240
17891W        W33700  12.242  17.724  12.755  0.2724 -0.0275 -0.1827
17892W        W33701   5.569   3.834   2.696  0.1357 -0.1048 -0.0005
17893W        W33702   1.934  11.502  13.046  0.0002 -0.3132 -0.1587
17894W        W33703   3.781   5.990  12.925 -0.0300 -0.3840  0.0531
17895W        W33704  18.203  16.859  11.231 -0.2027  0.0534 -0.0483
17896W        W33705   9.559   6.442   3.632 -0.3744 -0.1780 -0.0784
17897W        W33706   8.440   0.381  13.049  0.0313 -0.0347  0.0986
17898W        W33707   4.973   0.360   0.940  0.2278 -0.1194 -0.1756
17899W        W33708  12.422   0.288   1.018 -0.4887 -0.2456 -0.0810
17900W        W33709  16.122  15.913  15.312 -0.1011  0.0038  0.2426
17901W        W33710  12.146  18.480  12.641 -0.4169 -0.1313  0.3725
17902W        W33711   0.215  13.136   1.182 -0.0789 -0.0120  0.1240
17903W        W33712  12.993  11.949   1.397 -0.0050  0.0303  0.0868
17904W        W33713   1.378  12.684   2.403  0.1267 -0.0622  0.1404
17905W        W33714  14.926   5.117   0.909  0.2840 -0.0050 -0.0355
17906W        W33715   5.449  18.742  12.518  0.1558  0.3064  0.2344
17907W        W33716  17.329  18.887   4.115 -0.2689 -0.0832 -0.1588
17908W        W33717   1.433   6.375  13.871  0.3776  0.2484  0.0765
17909W        W33718   8.001   2.655  13.122  0.2722  0.3009 -0.1604
17910W        W33719   9.080  13.386  10.995 -0.0619 -0.1007  0.0096
17911W        W33720  13.119  11.903   2.908  0.0015  0.1978 -0.2168
17912W        W33721   8.246   1.944  11.962 -0.2824 -0.2647 -0.2654
17913W        W33722  11.343  13.528   4.399 -0.1679 -0.1077  0.0296
17914W        W33723  18.675  10.910  14.631  0.0953  0.3120 -0.0163
17915W        W33724  11.517  15.143  15.359  0.1743 -0.0416  0.0971
17916W        W33725  10.460  16.639   4.215  0.0635 -0.0049 -0.0166
17917W        W33726  13.565  18.349  11.576  0.4251  0.0072  0.0236
17918W        W33727  12.571  14.913  10.805  0.1304 -0.1821  0.1255
17919W        W33728   1.741   5.538  11.075  0.0625 -0.0278 -0.1804
17920W        W33729  10.615  11.405   0.179  0.0264 -0.0789 -0.0186
17921W        W33730  10.893   1.434  14.284  0.2389  0.1810 -0.1505
17922W        W33731  10.025  10.013  12.800 -0.2384  0.3512  0.1166
17923W        W33732   6.573  13.235  10.986  0.1806 -0.1071  0.2065
17924W        W33733  10.337   9.164   2.585  0.1540 -0.1143  0.1723
17925W        W33734   9.741   9.793   0.080 -0.2801  0.0515  0.3587
17926W        W33735   1.904   0.559   3.988 -0.0111  0.1526  0.0856
17927W        W33736  14.792  11.339   2.239  0.3146  0.0473  0.0865
17928W        W33737   4.860  11.372   0.816 -0.0832  0.3060 -0.1100
17929W        W33738   8.722   7.817  15.316 -0.3716  0.0830  0.1387
17930W        W33739   2.343   7.469   1.741 -0.3676  0.0690 -0.1167
17931W        W33740  13.256  14.269  10.672  0.0350  0.0722  0.1550
17932W        W33741   3.839   5.679   1.224 -0.1802 -0.2082 -0.3445
17933W        W33742  11.759   3.241   0.474  0.1998 -0.1799  0.1416
17934W        W33743  18.113  17.381   1.407  0.1313 -0.3099  0.0027
17935W        W33744  15.110  10.233   0.849 -0.1923  0.1244  0.0235
17936W        W33745   2.592   1.772  11.509  0.0885 -0.0333  0.5553
17937W        W33746   1.816   2.566   0.120  0.1403  0.0898  0.1611
17938W        W33747   2.918   3.117  13.222  0.0924  0.3073 -0.0614
17939W        W33748   5.016  16.982  12.394 -0.0460 -0.0008  0.3864
17940W        W33749  16.549  10.621   3.707 -0.0677 -0.4080  0.1017
17941W        W33750   1.801   4.716   3.547 -0.0954 -0.3712  0.0794
17942W        W33751   4.470  18.176   4.099  0.1366 -0.0128  0.1822
17943W        W33752   6.038   3.078   3.888  0.0624  0.1777  0.2107
17944W        W33753   4.795   3.875   1.083 -0.0088 -0.2114  0.0190
17945W        W33754   8.064   8.696  15.340 -0.1657 -0.0578 -0.0514
17946W        W33755   9.826  16.256  11.400  0.0632 -0.0601 -0.2375
17947W        W33756  18.803   8.964   5.698 -0.0538  0.3190  0.4130
17948W        W33757   0.302  12.747   4.646 -0.4761 -0.0745 -0.1836
17949W        W33758   3.774  11.495  11.960 -0.1744 -0.1491 -0.1613
17950W        W33759   2.209   2.253   0.361  0.1748  0.0176 -0.1752
17951W        W33760   9.333  12.637   1.685 -0.0897  0.3642 -0.2885
17952W        W33761  12.613   2.786  12.594  0.5168 -0.0279 -0.2964
17953W        W33762   5.361  11.293  14.360 -0.2995  0.1897  0.1818
17954W        W33763  10.798  10.338   2.437 -0.1248  0.0822  0.0709
17955W        W33764  10.891  18.641  13.659  0.1545 -0.1376 -0.2084
17956W        W33765   4.420   8.768  14.630 -0.1851  0.1987  0.1069
17957W        W33766  16.101   7.804   4.510  0.2365 -0.0851  0.4902
17958W        W33767  15.497  12.041  10.472 -0.0142  0.1476  0.0774
17959W        W33768   6.159  16.069  10.643  0.2447 -0.1817 -0.2151
17960W        W33769  13.182   7.420   3.467 -0.1213  0.1412  0.0276
17961W        W33770  16.334   6.739  10.228 -0.2464  0.2800  0.1267
17962W        W33771   6.942   8.509   1.241  0.0847 -0.1953 -0.0903
17963W        W33772   7.155   8.413  14.646  0.4149  0.0616  0.0165
17964W        W33773   3.363   3.385   3.526  0.0113 -0.1938  0.2763
17965W        W33774  17.375   2.373   1.245 -0.1735 -0.0361 -0.2347
17966W        W33775   1.350   0.569  14.666  0.0595  0.1946 -0.1272
17967W        W33776   6.793  11.653   0.468 -0.2972  0.3243  0.0359
17968W        W33777   6.195  12.536   0.092 -0.2131 -0.0974 -0.0848
17969W        W33778   0.125   9.416   2.111  0.0966 -0.2777 -0.1033
17970W        W33779   0.210   5.925  14.460 -0.0232  0.2036 -0.0491
17971W        W33780   0.408  17.191   4.306 -0.0420  0.0907  0.0514
17972W        W33781   4.009   3.284   4.857  0.0332 -0.1278 -0.4044
17973W        W33782   0.276   9.527  14.053  0.0815  0.2149 -0.2474
17974W        W33783  17.372  11.158   1.605 -0.0433 -0.2539 -0.2006
17975W        W33784  18.581  14.375   3.771 -0.0617 -0.0529  0.3626
17976W        W33785  17.937  18.786  10.266  0.0201 -0.0410  0.2411
17977W        W33786  15.656   2.587  12.718 -0.1914  0.1571  0.4222
17978W        W33787  16.493   5.519   4.361 -0.2724  0.1784  0.0451
17979W        W33788   7.814  14.354   2.390  0.1530  0.1057  0.2416
17980W        W33789   1.801   9.403   3.980 -0.1956  0.1232  0.1899
17981W        W33790  17.781   9.663   0.325 -0.1645 -0.0419 -0.1814
17982W        W33791   1.381   5.786  13.921  0.1448  0.1104  0.1912
17983W        W33792   5.840   5.366   3.456 -0.2885 -0.0825 -0.3717
17984W        W33793  12.970  17.684  12.263 -0.0610 -0.1852  0.0730
17985W        W33794  15.223  10.775   3.811 -0.2872  0.0700 -0.2081
17986W        W33795   1.613  15.854  13.903  0.0491  0.5230 -0.0785
17987W        W33796  12.629   9.688   1.238  0.2115 -0.4441  0.2299
17988W        W33797  15.630  17.548   3.387  0.0332  0.0594 -0.2681
17989W        W33798  11.496   4.425   0.928  0.5332 -0.2852 -0.0242
17990W        W33799   8.844  12.265  14.157  0.4694  0.2808  0.0266
17991W        W33800   7.388  16.303   9.667 -0.0132 -0.1625  0.0662
17992W        W33801   0.785   6.449   3.224  0.3377  0.3141  0.1675
17993W        W33802  10.365   3.172   2.051  0.1843  0.0324  0.3517
17994W        W33803   9.777  11.499   5.623  0.0882 -0.1426 -0.0497
17995W        W33804  18.504   6.694  12.119  0.0447 -0.2940  0.1746
17996W        W33805   9.916   6.042   2.537 -0.0552 -0.0603 -0.0389
17997W        W33806   1.081   5.412  12.873  0.0759  0.3051  0.2037
17998W        W33807   8.591   4.987  12.118  0.2907  0.1401  0.1426
17999W        W33808  13.918  12.723  13.937  0.0640  0.1813 -0.0263
18000W        W33809  12.949  18.611   0.192  0.1385  0.1476  0.0582
18001W        W33810  15.504   6.565   5.221  0.2080  0.1120 -0.0321
18002W        W33811   0.796  14.243  14.908 -0.0866  0.1542  0.3136
18003W        W33812  14.554   3.368  13.129 -0.2314  0.1452 -0.0396
18004W        W33813  15.539  17.562  13.409  0.3371  0.2154 -0.1149
18005W        W33814  14.130  18.057   4.525 -0.1018 -0.0970 -0.0010
18006W        W33815  10.110   6.258   5.622  0.2317 -0.0561 -0.0458
18007W        W33816   4.992   4.945   1.384 -0.1659 -0.2550 -0.0444
18008W        W33817  17.090  14.579   0.692 -0.0618 -0.0031  0.3280
18009W        W33818   9.966  14.963   0.528  0.4286  0.1137  0.2967
18010W        W33819   0.103  18.719  13.641  0.1148  0.3166  0.0137
18011W        W33820   7.805   7.361   2.404 -0.1090  0.1295  0.1134
18012W        W33821  17.762   7.462  11.935  0.1418  0.1591 -0.3112
18013W        W33822   5.033   9.132  14.791  0.0787  0.1438  0.0779
18014W        W33823  10.591  18.054   5.437  0.1273 -0.0402 -0.0603
18015W        W33824   3.983  10.970  10.980 -0.0235  0.0073 -0.0709
18016W        W33825   5.860   7.171  11.010 -0.1662 -0.2730 -0.0017
18017W        W33826  18.830  16.223  11.689  0.2223 -0.1357 -0.1411
18018W        W33827  17.479   2.327   3.470  0.2867 -0.2744 -0.2443
18019W        W33828   0.549   1.369   1.259 -0.2545 -0.1412  0.4530
18020W        W33829  15.786  15.858  14.897 -0.0197 -0.0005 -0.0402
18021W        W33830   0.983   9.733   1.393  0.0971 -0.0918 -0.1997
18022W        W33831   6.778   6.022   4.404  0.1238 -0.0652 -0.1981
18023W        W33832  16.044  15.497  14.112  0.1593  0.3849 -0.4146
18024W        W33833  14.399   6.747   0.696 -0.2717 -0.0553  0.0667
18025W        W33834   2.045   1.330  12.131 -0.1745 -0.1293 -0.0852
18026W        W33835  17.833  15.867   3.683  0.2272  0.4380  0.0406
18027W        W33836   3.922  13.772   3.631  0.2515  0.0061  0.1871
18028W        W33837  18.894   9.775   1.759  0.3957  0.0752 -0.3011
18029W        W33838   5.726  17.339  13.805 -0.2906 -0.3756  0.2480
18030W        W33839   9.910   1.070  13.852 -0.3002 -0.1397 -0.2542
18031W        W33840  16.612  12.752  12.028 -0.1264  0.1936  0.3257
18032W        W33841  14.407   4.442  15.072 -0.1996 -0.2518 -0.1382
18033W        W33842   8.695   6.994  12.029  0.3715 -0.3598 -0.0732
18034W        W33843   4.087  18.524   4.177  0.2228  0.1599  0.1468
18035W        W33844   1.808   6.847   1.454  0.2620 -0.1776 -0.0215
18036W        W33845   2.874   1.427   4.622  0.2100  0.1021 -0.1323
18037W        W33846  14.012  12.243   0.307  0.0234  0.0816 -0.2076
18038W        W33847   6.921  13.020   4.739 -0.4193  0.0828  0.1892
18039W        W33848  17.450   5.820   2.768 -0.3649  0.3711  0.2055
18040W        W33849   8.614  13.598  15.098 -0.1634 -0.0276  0.2393
18041W        W33850   4.064   7.712   2.766  0.1734 -0.0515  0.1847
18042W        W33851  10.445   9.716   1.337 -0.0999  0.0761  0.1487
18043W        W33852  16.333  11.861  15.305  0.2045  0.1974  0.0223
18044W        W33853   5.912  15.867  15.379 -0.3210 -0.0393  0.1682
18045W        W33854  18.750   5.186  11.700  0.1426  0.0171 -0.0565
18046W        W33855   3.192  12.928   3.307  0.1379  0.1042 -0.0656
18047W        W33856   7.158   6.020  12.498  0.2998  0.1496  0.1836
18048W        W33857   4.056   1.040  11.879 -0.0921 -0.4117 -0.1618
18049W        W33858  15.668  17.531   4.422 -0.0095 -0.2874  0.4436
18050W        W33859  18.018   5.923  10.645 -0.2723  0.3778 -0.2502
18051W        W33860   2.848  16.444   5.065  0.3212 -0.1482 -0.0183
18052W        W33861  11.830  12.569   1.171 -0.0236 -0.2199 -0.2118
18053W        W33862   8.272   3.383  10.918 -0.0323 -0.2656 -0.0264
18054W        W33863   1.638  14.521   4.186 -0.1514  0.4652 -0.1748
18055W        W33864  12.180   2.905   9.491 -0.2345 -0.0827 -0.3740
18056W        W33865  15.355  13.261   1.084  0.4800 -0.0673  0.0319
18057W        W33866  10.789  10.134   0.011  0.0152  0.0230 -0.2133
18058W        W33867  14.477  14.629  11.219 -0.1042 -0.4009 -0.0928
18059W        W33868   7.884  18.874  13.122  0.0104 -0.3966  0.0343
18060W        W33869   3.968   1.882   0.296 -0.2604 -0.0472  0.0774
18061W        W33870  16.825  15.894   3.835  0.0534 -0.4496 -0.0868
18062W        W33871  15.249  12.858   2.320  0.2245  0.0120  0.2519
18063W        W33872  17.980  11.103   0.834  0.1375 -0.3777 -0.2807
18064W        W33873  10.802   6.105  15.137 -0.2863  0.1428 -0.0606
18065W        W33874  14.009  12.526   3.387 -0.0688 -0.0594  0.0587
18066W        W33875  15.948   8.626  11.175 -0.2381  0.1905 -0.3723
18067W        W33876   1.073  17.803   3.719  0.2828 -0.2508 -0.1266
18068W        W33877   7.260   4.666  14.768  0.0186  0.1553 -0.1316
18069W        W33878   7.752   7.517   4.265 -0.0144 -0.1274 -0.3285
18070W        W33879  10.998  10.583  11.198 -0.1866  0.4683 -0.4779
18071W        W33880   6.538  16.317  10.903  0.0174  0.1773 -0.0457
18072W        W33881   2.964   5.832   1.031  0.0774  0.2823 -0.0913
18073W        W33882   1.579  14.794   3.218 -0.0322  0.3158 -0.0649
18074W        W33883   4.563  16.763  14.533  0.3290  0.0872  0.1190
18075W        W33884   5.126   6.437  13.944 -0.1201  0.2258  0.2916
18076W        W33885   7.236  12.736  11.178 -0.1326 -0.2093 -0.2866
18077W        W33886  13.479  12.871   1.445 -0.0512  0.2114 -0.1874
18078W        W33887   3.905   7.412  12.560 -0.1120 -0.0836 -0.0356
18079W        W33888   1.971   6.711   0.017 -0.0136 -0.1688  0.1892
18080W        W33889   8.909   8.565   9.391  0.2598 -0.1359  0.2479
18081W        W33890   2.680  13.423  13.375  0.0398 -0.0668  0.1389
18082W        W33891  16.982   2.041  12.147 -0.1267  0.0467 -0.1149
18083W        W33892   3.777  16.385  14.626  0.1408 -0.1581 -0.0872
18084W        W33893   2.032  18.600   5.011 -0.1497 -0.1150 -0.0134
18085W        W33894  16.750   9.999  11.357  0.0735  0.1675  0.0675
18086W        W33895   8.424   6.156  14.904 -0.2784 -0.3672  0.2022
18087W        W33896   8.542  16.337  14.517  0.0519 -0.1584  0.0843
18088W        W33897   9.922  16.507  12.657  0.0601  0.0483 -0.0428
18089W        W33898  13.755   2.157  15.188  0.0234 -0.0998 -0.0547
18090W        W33899  15.493  17.874  14.455  0.1359  0.0566 -0.0301
18091W        W33900   8.237  13.098   9.906 -0.1040 -0.2694 -0.1236
18092W        W33901   1.325  17.771  13.246 -0.0258 -0.1029  0.1616
18093W        W33902   0.845   6.456   2.167  0.2485  0.4304  0.1607
18094W        W33903   3.191   4.533   1.323  0.3261  0.1749  0.1556
18095W        W33904   4.664   4.720  15.224  0.1813 -0.1052 -0.0831
18096W        W33905   3.411   6.813   5.427  0.1086 -0.2634 -0.0962
18097W        W33906  16.346   6.278   4.686 -0.3497 -0.0017 -0.1277
18098W        W33907   4.822  10.807  14.897  0.1199 -0.2600 -0.1931
18099W        W33908   3.316   8.098   1.750  0.0410 -0.1954  0.0842
18100W        W33909  12.919  14.095   1.058 -0.1073 -0.1175 -0.1607
18101W        W33910  17.933  15.545   4.472  0.0044  0.0741  0.0977
18102W        W33911  18.529  12.551   4.155 -0.1211 -0.0793  0.2865
18103W        W33912  14.334  12.325   0.680  0.2018  0.4348 -0.0936
18104W        W33913   3.324  10.408   2.154 -0.3526  0.1206 -0.0725
18105W        W33914   9.984  13.951   2.352  0.1947 -0.0779  0.3179
18106W        W33915  16.168   0.477  13.109  0.0285 -0.3389 -0.0304
18107W        W33916  12.052  16.677   4.075  0.0938 -0.0738  0.2342
18108W        W33917  16.980   3.252  10.330  0.2831 -0.1487  0.2571
18109W        W33918   5.782   0.907  12.268  0.3339  0.1507 -0.3332
18110W        W33919  18.154   7.444   1.368 -0.3497 -0.3729  0.0973
18111W        W33920  15.269  11.416  15.434  0.0322  0.2504 -0.2341
18112W        W33921   6.328   5.892  11.861  0.3359 -0.6733  0.1118
18113W        W33922   0.159  14.649   0.938 -0.0511 -0.0244  0.0451
18114W        W33923  17.769  15.337   9.440 -0.2808 -0.1688 -0.0064
18115W        W33924   7.037  16.931  13.823  0.0306  0.0835 -0.1862
18116W        W33925   6.565   4.547  11.503  0.4800 -0.0691  0.1424
18117W        W33926  15.628   1.476   1.715  0.1678  0.3007 -0.0746
18118W        W33927  11.154   7.903  10.920 -0.1363  0.1447  0.1724
18119W        W33928   7.620   1.415   4.140  0.1352 -0.1474 -0.0762
18120W        W33929  11.578   9.553   3.296  0.3419 -0.2315  0.1893
18121W        W33930  14.718   6.911   1.678  0.5403  0.0031 -0.1644
18122W        W33931   7.665  13.441   2.397  0.2413 -0.0583 -0.3651
18123W        W33932   7.998  12.387   1.218  0.0486 -0.2200  0.0662
18124W        W33933   7.028  14.119  15.328  0.0931  0.1403  0.4785
18125W        W33934   6.564   6.893  13.979 -0.3496 -0.0447 -0.0087
18126W        W33935   4.736   8.294  14.827  0.1801  0.1642  0.3000
18127W        W33936  18.905  11.916   3.440  0.2940  0.0284 -0.1363
18128W        W33937  11.728  15.854   2.172  0.0404  0.1337 -0.2597
18129W        W33938   3.230   0.058  11.248 -0.3126  0.2115  0.0583
18130W        W33939  10.575   9.258  11.123  0.0154 -0.1145  0.0237
18131W        W33940   9.636   7.169   5.442 -0.2794  0.0211  0.4245
18132W        W33941   4.734   4.306   4.457  0.3253  0.2183  0.2477
18133W        W33942  11.600  18.549   0.413 -0.2812  0.0165  0.3442
18134W        W33943   1.425   8.532  15.107  0.1934 -0.1012  0.2319
18135W        W33944  15.493   9.437  13.893 -0.0668  0.1025 -0.0486
18136W        W33945   6.340   6.743  11.741 -0.2735  0.1641 -0.2450
18137W        W33946   7.001  10.815   9.425 -0.0297 -0.3613 -0.3197
18138W        W33947  10.836  13.329   3.089  0.1469 -0.0401 -0.3927
18139W        W33948   6.064   5.939  14.270  0.0189 -0.2492 -0.0911
18140W        W33949  13.393   2.883   4.312  0.0674  0.0155 -0.2138
18141W        W33950  12.153   2.703   5.330  0.4036  0.2494  0.1628
18142W        W33951  16.421  13.222  13.008  0.0336 -0.1218  0.1102
18143W        W33952   4.276   7.390  14.392 -0.3200 -0.0944  0.0079
18144W        W33953  17.378   5.150   2.922 -0.0719  0.4351  0.1130
18145W        W33954   8.220  18.502   3.985 -0.1848  0.3072 -0.0218
18146W        W33955  12.539   0.852   0.175 -0.1519 -0.0775 -0.0648
18147W        W33956  16.663  11.429   5.128  0.0207 -0.2080  0.1514
18148W        W33957  17.495  11.304  14.472  0.1247  0.0191 -0.0764
18149W        W33958  17.035  11.806  13.912 -0.0326 -0.0040 -0.1609
18150W        W33959  15.887  15.058   1.308  0.0051  0.3140  0.1444
18151W        W33960  11.210   9.931   0.401 -0.2047 -0.3753  0.0940
18152W        W33961   8.057  11.008   2.296  0.3468 -0.0247  0.2848
18153W        W33962  14.114  13.987   4.335 -0.2973 -0.2247  0.2570
18154W        W33963  11.774  13.740  12.752 -0.1617  0.0739  0.2751
18155W        W33964   6.038   8.034   4.352 -0.0336 -0.1699 -0.0760
18156W        W33965  13.953  13.232   0.517 -0.3279 -0.1573  0.2015
18157W        W33966  12.676   2.438   2.012  0.3129 -0.1185  0.2425
18158W        W33967   1.745   9.943  10.331 -0.4979  0.1877 -0.4000
18159W        W33968  14.540   7.001   6.040 -0.4253 -0.1152 -0.4144
18160W        W33969  16.234   0.876   0.005 -0.4454  0.1229  0.0664
18161W        W33970  17.296   8.111   0.863  0.3212  0.2050  0.1377
18162W        W33971  15.129   8.904  10.833 -0.2698 -0.0043  0.3170
18163W        W33972   3.645   2.349  10.816  0.2918 -0.0145  0.1030
18164W        W33973   2.303  17.333   1.386  0.1903 -0.1050  0.0649
18165W        W33974  17.127   0.582   0.013  0.3608  0.1102  0.4312
18166W        W33975   9.898   0.202   3.269  0.1614  0.0255 -0.0572
18167W        W33976  15.228   7.392  12.223  0.0364  0.1780 -0.2401
18168W        W33977  16.248  16.414  12.909  0.3284  0.0467  0.0813
18169W        W33978  12.895   9.457   1.619  0.1167  0.0386 -0.2857
18170W        W33979  16.677  10.370   5.451 -0.1179  0.2656 -0.1006
18171W        W33980  12.158  14.491  14.780 -0.3944 -0.3552  0.0564
18172W        W33981   0.409  16.480   1.580 -0.3346  0.0873 -0.4163
18173W        W33982  13.580   9.742   2.719  0.3176  0.1412 -0.1973
18174W        W33983  10.971   9.501  14.472  0.0058  0.1281  0.0838
18175W        W33984  15.292   4.233  12.328  0.1528 -0.1412  0.0422
18176W        W33985  11.078  12.062  12.016  0.1651 -0.2908 -0.1123
18177W        W33986  15.089   1.599   1.762 -0.4248 -0.0805 -0.1082
18178W        W33987   6.153  16.814  12.687  0.1514 -0.2151  0.0838
18179W        W33988   3.310  18.157  14.950 -0.0086 -0.3418  0.0859
18180W        W33989  16.639  13.617   1.093 -0.1478  0.1712 -0.1798
18181W        W33990   3.624   5.354  14.334  0.1721  0.1080  0.0710
18182W        W33991   0.657   6.651  15.339  0.0247 -0.0858 -0.1242
18183W        W33992  18.644   5.586  13.619  0.3200 -0.0239  0.2408
18184W        W33993  16.127   9.374  14.544 -0.1229 -0.0766  0.1121
18185W        W33994   5.755   5.982   0.405 -0.2243  0.1432 -0.2808
18186W        W33995   2.596  15.269   2.577  0.2639 -0.0723 -0.3695
18187W        W33996   2.633  10.548   5.175 -0.2332  0.0947  0.0956
18188W        W33997   2.833   6.111  12.220  0.0834  0.2288  0.0228
18189W        W33998  17.668  15.266   2.644 -0.0570  0.0464  0.1057
18190W        W33999   3.340   8.315   1.054  0.0825 -0.0906  0.0378
18191W        W34000  15.905  11.800  11.342 -0.1775 -0.1995  0.2883
18192W        W34001  14.144   5.944  11.690 -0.0912 -0.2104  0.0950
18193W        W34002  17.662   1.977  13.765 -0.0788 -0.2247 -0.2932
18194W        W34003  18.430   1.484  12.616  0.2556  0.1121  0.0326
18195W        W34004  17.902  16.026   1.535  0.0641 -0.0733 -0.0794
18196W        W34005   2.276   0.165  11.432 -0.2747 -0.0765 -0.1788
18197W        W34006   6.582   5.655   0.042  0.0323 -0.0057  0.1098
18198W        W34007   6.082  10.893  10.595 -0.0906  0.1541 -0.2903
18199W        W34008   8.753   9.640   0.196  0.2207  0.1010  0.2970
18200W        W34009  14.095   3.620  13.210 -0.3619 -0.0566 -0.1063
18201W        W34010  16.787  17.894  10.616  0.2241 -0.0061 -0.1088
18202W        W34011  12.972   9.042  15.092  0.0701  0.1654  0.0239
18203W        W34012   9.167  10.185  13.465  0.4550  0.0311  0.1243
18204W        W34013   1.435   7.002  12.437  0.2414 -0.0077  0.0720
18205W        W34014   2.859   7.708   5.616 -0.1901 -0.0783 -0.1698
18206W        W34015  13.332   5.469  10.523 -0.4320  0.0698 -0.1744
18207W        W34016   5.691  16.286   4.819  0.0235 -0.0160  0.1814
18208W        W34017  18.902  10.749   3.159  0.1641 -0.0453  0.0191
18209W        W34018   8.914   9.720   9.468 -0.0667 -0.0850  0.0046
18210W        W34019   7.057   7.327   0.618 -0.0280  0.1413 -0.1739
18211W        W34020   7.818  14.639  12.231 -0.1741 -0.2382 -0.1782
18212W        W34021   9.542   2.091  14.022  0.1142  0.3403  0.1065
18213W        W34022   3.317   0.988  13.589 -0.3388  0.0459  0.2923
18214W        W34023  13.197   1.282  11.197 -0.0855 -0.0497  0.2620
18215W        W34024   5.389   9.291   4.666 -0.0255  0.0269  0.0670
18216W        W34025   3.228   0.506  12.235 -0.0339 -0.0115 -0.1001
18217W        W34026  11.008   0.609   4.281 -0.2630 -0.0615  0.1852
18218W        W34027  14.414   0.896  12.843 -0.2024 -0.0667 -0.1613
18219W        W34028  14.796   7.661  12.209  0.1339 -0.2725 -0.1064
18220W        W34029   2.082  10.897   4.337 -0.0498 -0.2105  0.1160
18221W        W34030  14.922  10.448   4.828  0.1322 -0.0910 -0.1335
18222W        W34031  14.803   7.645   4.274  0.1297  0.0030  0.0597
18223W        W34032   5.796  18.683   0.055 -0.0827  0.0903  0.0660
18224W        W34033  11.475   4.250  11.395  0.0036 -0.4398  0.2373
18225W        W34034   3.254   5.654  11.024  0.1091 -0.1240  0.0900
18226W        W34035   7.756  14.685  10.657 -0.2183  0.1106 -0.2096
18227W        W34036   3.287  14.169   2.775  0.0680 -0.1898 -0.2149
18228W        W34037   7.529  12.485   3.885 -0.0615  0.1749  0.3629
18229W        W34038   5.777   9.810  11.028  0.3451  0.2431 -0.1940
18230W        W34039  12.859   5.028   3.536  0.1872  0.1604 -0.1128
18231W        W34040  13.899   2.804  13.719 -0.0156  0.1415  0.2963
18232W        W34041   3.329  18.421   4.469 -0.1951 -0.2092  0.3025
18233W        W34042   2.657   6.624  10.758  0.1155  0.1175  0.0814
18234W        W34043   0.801  10.007   3.840  0.0102  0.2917  0.0865
18235W        W34044   6.595  12.384   5.300  0.1322  0.1516 -0.2198
18236W        W34045  16.445  17.088   0.395  0.1022 -0.0034  0.0434
18237W        W34046   4.570   1.325  14.901  0.1411 -0.1942 -0.0824
18238W        W34047   5.687   3.855   3.211  0.0775 -0.1138  0.1954
18239W        W34048   0.699   2.972  12.724  0.6059  0.2586 -0.2379
18240W        W34049  11.258   2.844  14.157  0.0804 -0.0700 -0.1001
18241W        W34050   4.297   8.576   4.036  0.3280 -0.1315 -0.0359
18242W        W34051  11.581  12.872  13.671  0.1598 -0.1458  0.0400
18243W        W34052  15.321   8.387   1.837  0.2046 -0.2096  0.0041
18244W        W34053   2.375   7.046  15.338 -0.0082 -0.4458 -0.2930
18245W        W34054  12.752  15.791   2.388 -0.0445 -0.2385  0.0679
18246W        W34055   1.675   7.532  13.752 -0.0492 -0.2137  0.3005
18247W        W34056   4.470   6.986   4.057  0.1237  0.1196 -0.1329
18248W        W34057   0.072   0.709   4.917 -0.2010  0.3789 -0.1184
18249W        W34058  17.272  14.787  14.760 -0.1563  0.0338  0.3587
18250W        W34059   2.961  15.716   4.153  0.3522  0.1948  0.1556
18251W        W34060  12.456  11.884  12.199 -0.1507  0.0910 -0.1385
18252W        W34061   8.893   4.522   4.877 -0.1970  0.0795 -0.1280
18253W        W34062  17.233  15.663  14.962  0.0141 -0.2532  0.3918
18254W        W34063  17.242   7.235   1.706 -0.4955  0.1608 -0.0554
18255W        W34064   9.024  18.840  11.723  0.2490 -0.0432  0.4291
18256W        W34065  10.485  14.641  11.279 -0.2098 -0.1445  0.0804
18257W        W34066   0.763   9.344   2.679  0.0657 -0.2425 -0.0833
18258W        W34067  17.606  18.555  12.804 -0.1666 -0.2454 -0.1603
18259W        W34068  11.846  18.618   2.968  0.1727  0.0032  0.0993
18260W        W34069   8.340   9.689   3.485  0.2562 -0.1386 -0.1376
18261W        W34070  16.243   3.458   0.219  0.1679 -0.0112  0.0779
18262W        W34071   4.260  12.205   5.360 -0.1642  0.0403  0.0748
18263W        W34072  16.574   5.639   3.803 -0.4242 -0.1116  0.3087
18264W        W34073   3.062   9.015  13.906  0.0130 -0.0344 -0.0030
18265W        W34074  14.197   7.679   2.268 -0.1035 -0.2260  0.2620
18266W        W34075  18.007   1.336   1.584  0.3290  0.2094 -0.1685
18267W        W34076  10.958  10.095  13.277  0.0811 -0.2276 -0.2747
18268W        W34077  14.832  13.520  13.514 -0.3478 -0.1532  0.0490
18269W        W34078  12.886   7.321  11.354  0.0764 -0.0055  0.0957
18270W        W34079  13.766  10.041   4.809  0.0670  0.3932 -0.1380
18271W        W34080  16.065  17.413  13.251 -0.1841 -0.1488 -0.0224
18272W        W34081   1.377  11.700  13.114  0.0769  0.0836 -0.2075
18273W        W34082  10.124   1.281   0.430 -0.1789 -0.2396  0.1972
18274W        W34083  15.021   2.438   1.429  0.2875 -0.0877  0.0914
18275W        W34084  17.011   6.419  14.345  0.1670  0.0113 -0.0805
18276W        W34085  17.592   7.059   0.709 -0.2205 -0.0717  0.0692
18277W        W34086   1.446  18.131  14.829  0.2914  0.1938  0.5426
18278W        W34087  15.166  12.525  11.956  0.5229 -0.1586  0.1687
18279W        W34088  14.364   0.527  12.401 -0.1321  0.0376 -0.0055
18280W        W34089   0.271   0.133   2.072  0.2468  0.1922  0.2670
18281W        W34090  14.023  11.433  10.517  0.1495  0.1529  0.0311
18282W        W34091   5.960   7.877  14.541 -0.0039  0.0614 -0.0150
18283W        W34092  16.392   8.483   0.717 -0.1390  0.3242 -0.2382
18284W        W34093   7.607   0.686  10.820 -0.1338 -0.1309 -0.0498
18285W        W34094  13.537   9.772   0.901 -0.0351  0.0242 -0.1146
18286W        W34095   9.520  16.045  13.446 -0.2243  0.1735  0.3235
18287W        W34096   3.490   6.868   1.217 -0.1884 -0.2977 -0.1267
18288W        W34097   3.801  18.583   4.548 -0.1192  0.2213  0.1217
18289W        W34098   0.550  14.037  10.438 -0.0932 -0.1449 -0.0632
18290W        W34099  13.682  17.319  10.331  0.0830 -0.1708  0.1126
18291W        W34100   1.626   0.244  12.434 -0.2111  0.0492 -0.1705
18292W        W34101   7.534   4.407   4.642 -0.2012 -0.2144  0.0195
18293W        W34102  17.786  17.787   2.582  0.1165  0.1064 -0.1294
18294W        W34103   8.695  11.124  15.207 -0.1454  0.2221 -0.3678
18295W        W34104   9.543   0.183  15.264 -0.2423  0.1239 -0.0367
18296W        W34105   2.012   3.311  13.088  0.0534 -0.2390 -0.0876
18297W        W34106  10.532   5.592  14.666  0.0434  0.0748 -0.3052
18298W        W34107  10.653  15.716   2.634  0.2773  0.0885 -0.2942
18299W        W34108  15.976  18.392  11.369  0.0026 -0.2347  0.0129
18300W        W34109   0.769   4.884   3.539 -0.1080 -0.2397 -0.1713
18301W        W34110  13.761   8.955   1.414 -0.0062 -0.1609 -0.2847
18302W        W34111   5.169   4.367  11.630  0.2401  0.1685  0.0638
18303W        W34112  16.990  11.290  13.887 -0.4083  0.2060 -0.1121
18304W        W34113  15.266   1.831  14.354  0.1621  0.1862  0.1535
18305W        W34114  13.293   9.584   0.503 -0.2717  0.2738 -0.1701
18306W        W34115   5.208   4.016   1.440  0.1925 -0.0845  0.1218
18307W        W34116   2.334   0.704  14.063  0.2560 -0.0153  0.1557
18308W        W34117  18.373   1.975   4.255  0.0126 -0.5846 -0.0627
18309W        W34118  10.473   0.838   0.622 -0.1100  0.0217  0.1599
18310W        W34119   9.879  13.688   1.118  0.1835  0.0306 -0.1314
18311W        W34120   5.697  14.941  12.534  0.0285  0.2458  0.1350
18312W        W34121   1.311   2.233  12.133 -0.3862 -0.1212 -0.1624
18313W        W34122  11.344  13.232  10.618 -0.2697  0.4019 -0.0213
18314W        W34123  17.137  13.319   5.124 -0.4065 -0.1248 -0.1659
18315W        W34124  15.146   6.169  10.807  0.3825  0.1232 -0.0706
18316W        W34125   4.587  14.392  11.918 -0.2083  0.0583 -0.2140
18317W        W34126  10.047  10.246  13.262  0.0857  0.0865  0.0287
18318W        W34127  15.329  17.302  11.622  0.0453 -0.1011 -0.2312
18319W        W34128   1.083   3.643   1.537  0.4456  0.1425  0.0194
18320W        W34129  10.818   6.646  12.085  0.2271 -0.4101 -0.1618
18321W        W34130   7.241   3.297  13.264  0.1071 -0.1372 -0.0994
18322W        W34131   2.113  13.322   4.889  0.0219 -0.0321  0.1841
18323W        W34132   0.735   9.829  12.036  0.0662 -0.0143 -0.1369
18324W        W34133   8.383   9.378  14.304  0.0381  0.2679  0.0660
18325W        W34134  18.652  17.345   2.907  0.0191 -0.2232 -0.0962
18326W        W34135  17.300   9.281  14.713  0.0391  0.0669  0.2108
18327W        W34136   9.986   6.150  15.194 -0.1111  0.0001 -0.2442
18328W        W34137   6.128  11.488   3.757  0.1833  0.0017 -0.1558
18329W        W34138  13.994  11.698   2.370 -0.1294  0.0241  0.0087
18330W        W34139  11.819   0.137   2.692 -0.0576 -0.0967  0.2175
18331W        W34140   7.537  12.391   5.050  0.0803 -0.0137 -0.5388
18332W        W34141   7.801   8.170   4.343 -0.1705  0.0899 -0.0390
18333W        W34142   1.127   2.957   3.919 -0.1427 -0.1277  0.3464
18334W        W34143   1.411   6.663   1.228  0.1256 -0.3303  0.1854
18335W        W34144   5.416  14.294  13.624 -0.0234  0.0213  0.0840
18336W        W34145   7.316  14.268  14.220 -0.2087 -0.1497  0.0467
18337W        W34146  17.323  15.804   2.316  0.2405 -0.4656 -0.2254
18338W        W34147  17.649  17.702   5.337 -0.3562 -0.2269 -0.0616
18339W        W34148  17.049  18.011   0.947 -0.1236 -0.1124  0.0558
18340W        W34149   0.992  12.843   1.868 -0.0570 -0.1456  0.1276
18341W        W34150   4.652  14.854  12.312  0.1484  0.0400 -0.2191
18342W        W34151  11.764  14.325   2.045 -0.0436 -0.2260 -0.2560
18343W        W34152  15.369   3.996   1.356  0.2316  0.0986  0.2260
18344W        W34153   9.471   8.301  14.939 -0.1023  0.2337 -0.0363
18345W        W34154  11.700   5.142   3.845 -0.2063 -0.1500  0.2112
18346W        W34155   2.029   2.113   2.393  0.0022  0.1230  0.3633
18347W        W34156  16.678   0.805  14.693 -0.0836  0.2723 -0.3078
18348W        W34157  16.528   6.095   1.385 -0.0428 -0.0433 -0.0883
18349W        W34158  16.724  15.217   2.246  0.0121 -0.0498  0.1691
18350W        W34159   7.775  14.986  14.015 -0.2684  0.1138  0.1746
18351W        W34160  14.422   8.448   9.959  0.1826  0.1388 -0.0677
18352W        W34161   0.098   0.647  14.162  0.2514  0.3652  0.1403
18353W        W34162  16.273   8.169  12.082 -0.0904  0.2330  0.0074
18354W        W34163  11.283  12.393   1.813  0.0493  0.1858 -0.1695
18355W        W34164   9.528   5.416   2.983 -0.0117 -0.1847 -0.5915
18356W        W34165  18.829   7.718   0.523  0.1309 -0.0443  0.3571
18357W        W34166  12.831   5.872   3.981 -0.0773  0.0088  0.0712
18358W        W34167   3.231  17.932   3.484 -0.2916  0.1070  0.0663
18359W        W34168   8.576  17.946  10.147  0.2293 -0.1892  0.2283
18360W        W34169   0.286   6.326   2.813 -0.0255 -0.2893 -0.0636
18361W        W34170   6.616   8.237  10.940  0.1266  0.0535  0.0392
18362W        W34171   6.466  16.239   1.362 -0.3094  0.3157 -0.0973
18363W        W34172  18.203   2.082   5.166  0.0243 -0.0279  0.1026
18364W        W34173  14.137   7.846   0.174 -0.1154 -0.4679 -0.0110
18365W        W34174  10.457  12.837  11.523 -0.1489  0.1765  0.0916
18366W        W34175  16.291   8.835   3.206 -0.1981 -0.1878  0.2457
18367W        W34176   5.727   0.272   2.527 -0.0694  0.0884  0.2029
18368W        W34177  18.133   7.576   3.642 -0.3951  0.0113  0.3006
18369W        W34178   1.564  13.653  12.561  0.0005  0.0831  0.0317
18370W        W34179   6.847  13.133  15.195 -0.1746 -0.1076 -0.0633
18371W        W34180  17.694   9.997   4.422  0.2855 -0.0617  0.1707
18372W        W34181   2.183   1.817  13.367 -0.1539 -0.1033  0.0970
18373W        W34182   8.774  10.715  10.351  0.1018  0.0006  0.1519
18374W        W34183   8.775  15.043  11.345 -0.0600  0.0117 -0.1669
18375W        W34184   3.807  10.130  10.055  0.2262  0.1603  0.5794
18376W        W34185   9.452  13.474  10.532 -0.4882 -0.1730 -0.1093
18377W        W34186   1.274   6.752   1.694 -0.2468 -0.0850 -0.2853
18378W        W34187   9.938   3.797  13.356  0.0407 -0.0689 -0.1568
18379W        W34188  14.048  14.655   5.569 -0.1533  0.1600 -0.0003
18380W        W34189   8.604   6.139  15.417  0.1086 -0.0530 -0.0709
18381W        W34190  18.304   3.406   5.241 -0.0476  0.0017  0.0019
18382W        W34191  14.465   4.804   2.998 -0.0989  0.1762 -0.0743
18383W        W34192   4.158  12.614  14.167 -0.1182 -0.0023 -0.0483
18384W        W34193   9.660   6.854  12.086  0.3210  0.0209 -0.0044
18385W        W34194  13.682   3.934   5.007 -0.0961 -0.0767  0.2088
18386W        W34195  12.181   3.377  13.587  0.0665  0.3378 -0.1121
18387W        W34196   1.775  10.195  14.768  0.0526 -0.2021 -0.0785
18388W        W34197   1.524   4.420  14.956 -0.1205  0.0319 -0.0797
18389W        W34198  13.003   3.006  10.635 -0.1039  0.0660  0.1740
18390W        W34199  16.854   0.678   1.847 -0.1715 -0.3965 -0.0051
18391W        W34200   5.434   6.819   1.615 -0.2117  0.2845 -0.0890
18392W        W34201   7.653  13.592  14.927 -0.0017 -0.1452 -0.3282
18393W        W34202   3.283   9.113   3.037 -0.1912  0.3501  0.1407
18394W        W34203   9.420   7.662  14.771  0.0239 -0.0089  0.0416
18395W        W34204   5.850  12.475  12.544  0.1414 -0.4310 -0.2039
18396W        W34205   1.548  13.855  13.887  0.0654  0.2509 -0.0955
18397W        W34206  12.332   0.322  12.262  0.2537 -0.3210  0.3148
18398W        W34207   6.493  17.781   0.898 -0.1117  0.0740 -0.0016
18399W        W34208   1.185   1.852  14.596 -0.3205  0.0097 -0.1395
18400W        W34209  11.241   1.393  13.230 -0.1640 -0.2225 -0.1104
18401W        W34210  17.842   2.501  13.395  0.4824 -0.4512 -0.3499
18402W        W34211  13.710  14.236   0.497  0.2930 -0.1318  0.1099
18403W        W34212   3.429  18.454   1.223 -0.0322  0.1535 -0.1742
18404W        W34213  12.459   1.533   3.314  0.0144  0.1026 -0.1067
18405W        W34214   5.520  16.750  11.634 -0.0550  0.2760 -0.4225
18406W        W34215   9.823  17.996   4.709  0.0102 -0.1653  0.0465
18407W        W34216   3.175   2.516  12.102  0.3773  0.0957 -0.3630
18408W        W34217  18.758   3.202  15.408 -0.4315  0.6103 -0.1497
18409W        W34218  13.669   0.584   3.320  0.0275 -0.0846  0.3405
18410W        W34219   3.923   7.002   9.465  0.0290  0.2328 -0.0719
18411W        W34220   0.336  15.552  11.235  0.0555 -0.3918  0.0223
18412W        W34221  12.030  18.362   2.009 -0.3495  0.3137 -0.2236
18413W        W34222   9.635   0.943   2.745  0.0772 -0.1809 -0.2020
18414W        W34223   6.015  14.379  11.876 -0.0051  0.0497 -0.0556
18415W        W34224  18.280  18.546   0.662 -0.0401  0.1723 -0.0591
18416W        W34225   3.683   1.360  12.286 -0.1441  0.0319 -0.0456
18417W        W34226   3.749  17.750  12.493  0.0493  0.0609 -0.0154
18418W        W34227   9.695   7.485   0.555 -0.2660 -0.3027  0.2663
18419W        W34228  14.021  15.660  12.366  0.0609 -0.2865  0.2023
18420W        W34229  14.323   8.428  12.297 -0.0758 -0.0443 -0.2026
18421W        W34230   1.134   2.978   3.408 -0.1558  0.0099  0.3635
18422W        W34231   9.039   6.514  14.491  0.0823 -0.0509  0.0165
18423W        W34232   9.604  18.659  15.000 -0.2692 -0.0340  0.3725
18424W        W34233   7.620  14.047  13.620  0.1280 -0.0458  0.0390
18425W        W34234  13.893  11.728   1.155 -0.0005 -0.0914  0.3227
18426W        W34235   9.538   9.580  15.158  0.1219 -0.0522  0.1515
18427W        W34236   5.598  15.994  13.775  0.1789  0.2180 -0.0910
18428W        W34237  12.402   1.441  14.719  0.0052 -0.1654 -0.0349
18429W        W34238   1.543   4.403   1.098 -0.2757  0.2130 -0.0484
18430W        W34239  17.702   6.466  15.313  0.0282  0.1865 -0.1353
18431W        W34240   9.505  14.168  10.896  0.1108  0.1325  0.4134
18432W        W34241  15.802  13.847   1.453  0.2767  0.0411 -0.2081
18433W        W34242   3.496  16.090  14.356 -0.2594  0.1523  0.2161
18434W        W34243   7.042  16.174   5.030 -0.2692  0.0826 -0.1042
18435W        W34244   8.914   7.754   3.415 -0.1714 -0.0185 -0.3695
18436W        W34245  14.788  17.538   5.417  0.2152  0.0840  0.1121
18437W        W34246   3.009  11.532  13.650  0.1447 -0.0933 -0.0429
18438W        W34247   9.897   2.078   4.948 -0.0589 -0.1699  0.0011
18439W        W34248   1.251  11.993  14.037 -0.2884 -0.1559 -0.0295
18440W        W34249   0.260   5.108  14.878  0.0755 -0.2296 -0.2180
18441W        W34250   2.391  12.100   3.037 -0.1740  0.2660 -0.0642
18442W        W34251  11.720  16.800   2.204  0.0643 -0.0879  0.0175
18443W        W34252   1.837   4.942  12.638 -0.0705  0.3635 -0.0015
18444W        W34253  15.436  10.193   0.468 -0.1604  0.1438  0.0697
18445W        W34254  16.894  15.099  10.305 -0.0112  0.1170  0.1473
18446W        W34255   6.494  10.803   3.752 -0.1222  0.2366  0.2408
18447W        W34256   0.548  15.132  15.339  0.0342 -0.1607 -0.1832
18448W        W34257   6.061  12.927   1.160 -0.0185 -0.0388  0.0785
18449W        W34258  13.763   2.949   0.963 -0.0119 -0.3799  0.0347
18450W        W34259  10.338  10.826  12.521 -0.0398 -0.2163 -0.0374
18451W        W34260   0.562   0.106   3.790 -0.1282  0.0470  0.0190
18452W        W34261  10.265  14.908   4.185  0.1548 -0.4287  0.2640
18453W        W34262   5.875  16.068   0.497  0.1144 -0.1785  0.2722
18454W        W34263  13.984   8.422   0.181 -0.0537  0.2477 -0.0030
18455W        W34264   3.473   4.663  11.289 -0.2572 -0.0501  0.0142
18456W        W34265  10.723  12.543  12.025 -0.0601  0.1365 -0.1848
18457W        W34266   5.001  10.280   1.298 -0.1818  0.1260 -0.1361
18458W        W34267  14.464   8.706  11.763  0.0804  0.4044  0.2254
18459W        W34268   2.175   7.181   3.537  0.0830 -0.1140  0.1283
18460W        W34269   4.335  14.626  13.300  0.2175 -0.0039 -0.2750
18461W        W34270  12.547   2.216  13.285  0.2506  0.3432  0.4811
18462W        W34271   1.387   7.376   9.953  0.3008  0.1109  0.2476
18463W        W34272   4.363  17.239  12.150  0.2575 -0.2096 -0.0742
18464W        W34273   3.311   7.982   3.702 -0.1181  0.2626  0.1337
18465W        W34274  16.481   9.913   0.677  0.0807 -0.0941  0.1451
18466W        W34275  13.483  13.663  14.781 -0.0987  0.0709  0.0873
18467W        W34276   5.773   4.736  13.644 -0.0353  0.1040 -0.2825
18468W        W34277   3.471  11.594  13.014 -0.0739  0.0198 -0.0089
18469W        W34278  16.543  13.861   0.237 -0.4050  0.0193 -0.4587
18470W        W34279   8.727   8.431   4.504  0.0200  0.0409  0.1394
18471W        W34280   8.962  17.511  14.889  0.3153  0.1888  0.1451
18472W        W34281   1.303  18.742   9.962  0.2877 -0.0824  0.3517
18473W        W34282   5.906   6.149   1.454  0.2406 -0.0430  0.1019
18474W        W34283   0.489   6.551   5.510  0.1250  0.0042 -0.3678
18475W        W34284   2.245  16.359   3.309  0.1731 -0.1716  0.1715
18476W        W34285   0.596   4.995   0.358  0.1772  0.1775 -0.0296
18477W        W34286   7.193   3.748  11.401 -0.2271 -0.0033  0.0342
18478W        W34287  18.070   3.649  14.836 -0.0038 -0.0887  0.2049
18479W        W34288  12.142  13.576  11.590 -0.0374 -0.0286  0.3528
18480W        W34289   9.248   0.255  14.472 -0.2678  0.2500  0.0242
18481W        W34290  12.403   6.734  14.158 -0.1115  0.0596 -0.1512
18482W        W34291   8.992  18.362   3.402  0.0036 -0.0726 -0.0479
18483W        W34292   2.978   7.018  12.602  0.0944  0.2099  0.0745
18484W        W34293  18.466   5.146   0.403 -0.0597  0.5507 -0.0182
18485W        W34294   4.413   0.224   4.139 -0.3573 -0.0258  0.1253
18486W        W34295   7.659   1.977  12.761 -0.0056 -0.1283  0.2670
18487W        W34296  17.602   8.903  13.342 -0.2604 -0.0244  0.0796
18488W        W34297   5.984  11.047  13.980  0.0866 -0.2815 -0.1575
18489W        W34298   2.376   5.002   3.690 -0.1389  0.2823 -0.1465
18490W        W34299  14.762  16.559  11.816 -0.0254 -0.1176 -0.3656
18491W        W34300  11.456  15.906   1.736  0.0310  0.0167  0.1149
18492W        W34301  10.906  18.763   4.866  0.0964 -0.0517 -0.0749
18493W        W34302   5.076  10.888   3.903 -0.2987  0.0146  0.0186
18494W        W34303  10.906  14.429  11.116 -0.1354  0.0080  0.0650
18495W        W34304  13.742   5.190   1.594 -0.1778 -0.1136 -0.2149
18496W        W34305   4.907   4.980   3.627  0.0449  0.1944  0.0095
18497W        W34306   3.936  16.069  13.582 -0.0848 -0.0339  0.2377
18498W        W34307  18.082   5.259   0.674  0.2271 -0.1942  0.1729
18499W        W34308  18.755  14.471   2.020  0.0860 -0.1920  0.0769
18500W        W34309  13.273  17.793   3.917 -0.4755  0.0234 -0.3023
18501W        W34310   2.336   7.977   1.675 -0.2467 -0.1318 -0.0991
18502W        W34311  14.996   3.718  13.015  0.2501  0.2136 -0.0627
18503W        W34312   8.797  14.938   4.344  0.2677  0.1461  0.2056
18504W        W34313  18.658  13.701  13.914 -0.2730 -0.0489 -0.1417
18505W        W34314   6.795  10.731   4.159  0.1005 -0.0925  0.0765
18506W        W34315  12.274   5.833  11.345 -0.0597 -0.1773  0.1082
18507W        W34316  13.608   3.988  12.527  0.1616  0.1735 -0.0197
18508W        W34317   2.697   3.549   1.087 -0.3927  0.1767 -0.1818
18509W        W34318  10.499   0.286  11.169  0.1489  0.1432  0.1582
18510W        W34319  10.713   3.064   4.428  0.0066  0.0149  0.2333
18511W        W34320   6.043   4.032  13.809 -0.2437  0.3929  0.3873
18512W        W34321  14.277   2.004  11.771  0.1233  0.0491 -0.1389
18513W        W34322   5.390   6.206  11.013  0.0607  0.2534  0.0319
18514W        W34323  16.695  16.039   4.756 -0.2798  0.2200 -0.2287
18515W        W34324  15.323   3.846  14.678  0.3114  0.1530 -0.1716
18516W        W34325   5.217   8.264   4.004 -0.0991 -0.1509  0.0458
18517W        W34326   5.393   9.453  11.390 -0.0418 -0.1790  0.0811
18518W        W34327   1.882   7.982  13.820 -0.1974 -0.1015 -0.0569
18519W        W34328   0.722   0.327   3.276  0.2244  0.2736  0.0279
18520W        W34329  15.820  11.257  15.271  0.0410 -0.2487 -0.0533
18521W        W34330  18.352   1.913   0.606 -0.2533 -0.4610 -0.1733
18522W        W34331   0.792   0.201  13.681 -0.2509  0.0616 -0.2429
18523W        W34332  18.746   8.512   4.607  0.0430  0.3373 -0.1643
18524W        W34333   2.838   3.709   3.584 -0.0518 -0.1864  0.2427
18525W        W34334   3.102   5.207  12.855 -0.0605  0.0941 -0.0460
18526W        W34335   0.234   8.364   4.839 -0.1247 -0.0053  0.0234
18527W        W34336   1.590  17.385  10.575  0.0189 -0.2059  0.2158
18528W        W34337   8.683   3.150  11.795 -0.1683 -0.3281 -0.1393
18529W        W34338  12.504  10.208   5.163  0.2617  0.0385 -0.1112
18530W        W34339   8.907  16.624  14.731 -0.4364  0.0906  0.2647
18531W        W34340   8.884   4.719   0.909 -0.0472 -0.2262 -0.0840
18532W        W34341   3.464   8.666  11.928  0.0223  0.1579 -0.2152
18533W        W34342   4.701   6.543   0.041 -0.2968 -0.1184 -0.0611
18534W        W34343   0.813   7.802  11.545  0.1448 -0.1523 -0.0594
18535W        W34344  17.548  15.836  15.254 -0.1789  0.2932 -0.0820
18536W        W34345  14.043  10.048  11.890 -0.2652  0.1493 -0.1830
18537W        W34346   7.330  17.965  12.873 -0.4317  0.2277  0.2015
18538W        W34347   6.760   6.040   0.299  0.0056  0.2257  0.3402
18539W        W34348  13.030   1.098   2.713 -0.1703  0.1208  0.0580
18540W        W34349   5.397  11.055  15.155 -0.0341  0.0647 -0.3207
18541W        W34350  13.941  17.465  11.216  0.1242 -0.0777  0.1648
18542W        W34351   2.700  10.427  12.903  0.0598 -0.2901  0.1193
18543W        W34352   5.433  16.329   0.554 -0.4024 -0.0042 -0.1128
18544W        W34353   5.807  10.336  11.957  0.0506 -0.1350  0.2744
18545W        W34354   9.301   0.213  13.227 -0.1271  0.0644 -0.4491
18546W        W34355   7.716   5.642  14.372  0.0803 -0.1084  0.1351
18547W        W34356  15.090   1.674   3.463  0.1792 -0.1780 -0.2453
18548W        W34357  17.005   4.220  12.411 -0.0174 -0.2961 -0.0632
18549W        W34358   2.537   0.302  15.153 -0.0566 -0.1188  0.2040
18550W        W34359   4.456   6.903   4.594 -0.1594 -0.0256 -0.2581
18551W        W34360  11.560  13.113   9.601  0.0684  0.1080  0.3602
18552W        W34361  17.862   5.190   4.553  0.4172  0.1712  0.0383
18553W        W34362  11.268  13.290   1.012 -0.2529 -0.0236 -0.0927
18554W        W34363   0.405   8.265  14.955 -0.1217 -0.0743  0.3374
18555W        W34364  10.235  13.614   1.446  0.1112  0.1100 -0.0903
18556W        W34365  13.486   8.183  13.394 -0.1549  0.0649 -0.0334
18557W        W34366  12.177  14.877  13.616  0.1063 -0.0998  0.1727
18558W        W34367  18.484   4.580   2.576  0.0497 -0.2380 -0.2078
18559W        W34368  15.084  16.927  14.983 -0.1006  0.0053 -0.3985
18560W        W34369  13.914   0.373   4.254 -0.1723 -0.2220  0.0714
18561W        W34370  11.848  15.616   4.872 -0.0316 -0.1208 -0.4101
18562W        W34371   3.476   8.446   2.337  0.0346 -0.0014  0.2380
18563W        W34372  10.895  10.734  11.824  0.0559  0.0156  0.1120
18564W        W34373  15.983   8.294   1.039 -0.1305 -0.1750 -0.2482
18565W        W34374   3.670   0.178  13.549  0.1261 -0.0122 -0.0205
18566W        W34375  12.112   6.911  12.956 -0.4486 -0.0747  0.2042
18567W        W34376   4.110  10.910  12.722  0.2274  0.0427  0.0791
18568W        W34377   8.904   6.713   5.273  0.0965 -0.2121 -0.3945
18569W        W34378  16.545  10.278  11.810  0.2272  0.5069 -0.7109
18570W        W34379   2.213  18.033  12.896  0.1096  0.2069  0.1295
18571W        W34380   3.391  18.268   0.307  0.0084 -0.2251  0.0107
18572W        W34381   8.175  12.045  14.171  0.1859 -0.2447  0.2985
18573W        W34382  10.125  11.240  12.235  0.0518 -0.1147 -0.1344
18574W        W34383  16.428   6.424  11.523 -0.0516 -0.0199  0.0028
18575W        W34384  13.045  17.012  11.251 -0.2607 -0.1692  0.1790
18576W        W34385  14.541  18.452  15.239 -0.0702  0.0587 -0.0910
18577W        W34386  17.978  16.302  11.701 -0.0914 -0.0449 -0.0229
18578W        W34387   8.216   0.535  11.730 -0.0161  0.0138  0.1240
18579W        W34388  13.918   2.572   1.357  0.2352  0.2502 -0.0984
18580W        W34389   2.983   1.876   1.849  0.2288 -0.1834 -0.4307
18581W        W34390   1.927   0.377  13.857 -0.4128  0.1303  0.1760
18582W        W34391  13.868   6.838   3.245 -0.0575 -0.0695  0.1449
18583W        W34392   5.212  13.433   0.574  0.1340 -0.3390  0.1441
18584W        W34393   4.634   4.611   1.690  0.0467 -0.1057 -0.2541
18585W        W34394  13.225   9.372  14.717  0.1232  0.2327 -0.1159
18586W        W34395   0.728  13.813  12.751 -0.0477 -0.0200 -0.0757
18587W        W34396  18.205  14.976   3.414  0.3862 -0.0026  0.3081
18588W        W34397  16.238  17.546   4.737  0.2097  0.1354  0.0712
18589W        W34398   1.439   2.075  11.028  0.0970  0.0634 -0.0605
18590W        W34399   0.575  13.887  11.373  0.0882  0.0972 -0.1481
18591W        W34400   6.635  15.301  13.302  0.1716 -0.0001  0.0804
18592W        W34401  17.152  17.247   1.608 -0.3497  0.1115  0.2552
18593W        W34402   3.601   3.656  14.767  0.1906  0.1503  0.1481
18594W        W34403   3.637   2.854   4.839 -0.2629  0.1761  0.0114
18595W        W34404  12.451  11.672  15.383 -0.1563  0.0210 -0.2446
18596W        W34405  14.390   0.893   3.276  0.2581  0.1397 -0.2969
18597W        W34406   8.291   7.460  12.907 -0.0641  0.2558  0.0432
18598W        W34407   6.010  13.280  13.078 -0.2279 -0.1890 -0.1145
18599W        W34408  12.728   1.011  11.233  0.2712 -0.0050 -0.3473
18600W        W34409   2.305   6.916  14.389  0.2412  0.2984  0.1244
18601W        W34410   9.898   6.985   3.323  0.3325  0.0176  0.2483
18602W        W34411   9.676  16.819   0.966  0.2925 -0.1493  0.0721
18603W        W34412  18.305   6.901   1.297  0.0463 -0.0690 -0.0482
18604W        W34413   3.292  16.534  12.775 -0.3217 -0.2063  0.3685
18605W        W34414  18.395   5.073   3.907 -0.0495 -0.1651  0.0655
18606W        W34415   3.276  14.430  11.320  0.0200 -0.0346  0.3464
18607W        W34416  12.208   0.928   2.932 -0.2493  0.4034 -0.0867
18608W        W34417  11.314   5.155  12.092 -0.2117  0.0533 -0.1600
18609W        W34418  12.211   0.575   3.322 -0.1220 -0.0013 -0.1475
18610W        W34419  16.605  13.311   3.476 -0.2299  0.0519  0.0143
18611W        W34420  14.870   3.030   0.277 -0.0313 -0.3853  0.1312
18612W        W34421  16.914  11.782   2.320  0.0024  0.1857  0.4039
18613W        W34422   5.261  10.424   0.235  0.2360 -0.2002 -0.5214
18614W        W34423  17.480   0.159   1.893  0.0673  0.0585 -0.0968
18615W        W34424  14.487   5.741   4.780 -0.0275  0.3492 -0.3456
18616W        W34425   9.240  14.310   5.095  0.1917  0.3992  0.1498
18617W        W34426  12.807  17.122   4.482  0.0104  0.1314 -0.3215
18618W        W34427  16.770   6.018   0.280 -0.1500  0.0061 -0.2434
18619W        W34428   0.131   5.231   0.644  0.0760  0.1507  0.3165
18620W        W34429   7.919  12.486   1.687  0.2035 -0.2112  0.2467
18621W        W34430  11.248  17.209  11.644 -0.0181  0.1369 -0.1314
18622W        W34431   6.619  12.115  12.249  0.0128 -0.1762 -0.0360
18623W        W34432  12.460   7.658   4.084  0.1705 -0.0594  0.0542
18624W        W34433  12.793  15.956  11.393 -0.0396 -0.0799 -0.1631
18625W        W34434   9.098   0.409  11.842 -0.1920 -0.2823  0.0384
18626W        W34435   5.574  12.834   2.645  0.2967  0.1136 -0.0661
18627W        W34436  14.435   2.187   1.893 -0.1749  0.1585 -0.0727
18628W        W34437   1.823  15.622   2.921  0.0886  0.3722 -0.1844
18629W        W34438  10.147   6.673  12.005  0.1066  0.1302  0.2735
18630W        W34439  14.109   3.580   3.343 -0.1151  0.1995  0.0367
18631W        W34440   5.173  17.724   0.723 -0.0137 -0.2620  0.1024
18632W        W34441   7.498   7.850  15.204 -0.2626  0.2429 -0.1796
18633W        W34442  16.078   6.200  12.742  0.0038  0.1004  0.1817
18634W        W34443   1.654  11.964  12.761 -0.1707  0.2889  0.1222
18635W        W34444   7.428   5.227  12.838 -0.1891  0.2491 -0.1786
18636W        W34445   7.070  15.671  10.923  0.0065 -0.0963 -0.2360
18637W        W34446   6.617  11.913   0.835 -0.2099 -0.3327  0.2034
18638W        W34447   4.037  12.681   1.919  0.3313 -0.0852  0.1597
18639W        W34448  14.292   6.686   3.463  0.3346  0.2755  0.1771
18640W        W34449   6.467  13.196  12.513  0.0373 -0.1554  0.1067
18641W        W34450  16.423  12.075   1.635 -0.0760 -0.1398 -0.1079
18642W        W34451   9.424  10.492  15.008 -0.0569 -0.1406 -0.0826
18643W        W34452   1.596   7.118   0.514 -0.1515 -0.0509 -0.2121
18644W        W34453  10.118  13.122   1.246 -0.0377  0.1200 -0.0782
18645W        W34454   5.162   5.818  13.729 -0.2731  0.2451  0.3063
18646W        W34455   0.569  15.359  11.781 -0.1908  0.2846  0.0739
18647W        W34456  15.878   4.187   4.304 -0.0762  0.1670 -0.3343
18648W        W34457  14.301   7.209   3.196 -0.4142 -0.0153 -0.1047
18649W        W34458   5.109  18.837   2.467  0.1412 -0.4079  0.2028
18650W        W34459   0.374   2.204  11.122 -0.3783  0.0387 -0.1474
18651W        W34460   9.457   2.368   4.516  0.2943 -0.1622 -0.0021
18652W        W34461  16.860  15.513  11.544  0.3618 -0.1844  0.0163
18653W        W34462   9.309   9.583   3.538  0.0402  0.1473 -0.1485
18654W        W34463   5.149  10.841  13.449  0.4037  0.1339 -0.0488
18655W        W34464  15.209   2.273  14.071 -0.1895  0.1394 -0.1605
18656W        W34465  14.427   7.354  13.698 -0.0957 -0.1590 -0.2268
18657W        W34466   8.145  13.395  12.871 -0.0331 -0.1476  0.1930
18658W        W34467   5.020  16.034  11.387  0.2447 -0.5611  0.3360
18659W        W34468  17.627   1.802  12.449 -0.0167 -0.0548  0.0105
18660W        W34469   0.050   2.724  13.197  0.1102 -0.4181 -0.0931
18661W        W34470   6.329  12.709  10.850 -0.0343  0.0815 -0.2086
18662W        W34471   5.856   5.265  13.771  0.0879  0.2155 -0.1551
18663W        W34472  12.796   4.279  15.178  0.1770  0.2973 -0.0369
18664W        W34473  16.826   2.872  10.694 -0.1542 -0.1210 -0.0424
18665W        W34474  14.840  16.575  14.107  0.0477 -0.0818 -0.4651
18666W        W34475   5.987   7.321  13.411 -0.0824 -0.0810  0.1047
18667W        W34476  13.781  18.098  15.305 -0.1955 -0.0900 -0.0262
18668W        W34477   8.115  12.896   1.974  0.1400  0.0924  0.1162
18669W        W34478   4.907  11.592   2.567  0.2393 -0.4017 -0.1918
18670W        W34479  16.070   6.283  14.130  0.1186 -0.2115 -0.2478
18671W        W34480   4.185  14.781   5.177 -0.0729  0.1498 -0.0048
18672W        W34481  13.756   7.089  14.385  0.1178  0.2108 -0.1844
18673W        W34482   6.921   7.324   3.469  0.3708  0.3812  0.3404
18674W        W34483   4.517  16.427  11.691  0.0277 -0.0477  0.0730
18675W        W34484  16.088   4.636   2.452 -0.0704 -0.0655 -0.0669
18676W        W34485   8.135  10.517   0.144 -0.2308  0.0400  0.0335
18677W        W34486  14.393  15.686  13.524 -0.0524 -0.1184  0.0990
18678W        W34487   4.302   5.737  14.881  0.3129 -0.2405  0.1453
18679W        W34488  14.961   4.707   5.059  0.2399  0.1095 -0.1235
18680W        W34489   3.479  13.447  11.342  0.0632  0.0124  0.0541
18681W        W34490  10.827   1.492  11.875 -0.0536  0.1179  0.0153
18682W        W34491  12.827  11.118   0.897 -0.4139 -0.0048  0.1067
18683W        W34492  15.986  15.293   4.634 -0.6087  0.0942 -0.0672
18684W        W34493  13.599   2.124   2.095  0.0989 -0.0762  0.4745
18685W        W34494  11.991  14.843   0.212  0.0870 -0.2108 -0.0427
18686W        W34495   6.522   0.433  10.233  0.0563 -0.2681 -0.0797
18687W        W34496   3.092  11.772  14.084  0.0946 -0.0048 -0.1091
18688W        W34497  17.266   0.931  14.033  0.2747 -0.1676 -0.1167
18689W        W34498   6.713   5.387  11.807  0.1024 -0.0151  0.0035
18690W        W34499   0.338   8.133   2.642  0.1459 -0.0309  0.1553
18691W        W34500   4.973  13.420  14.768 -0.0901  0.0057  0.0208
18692W        W34501   8.046   2.061   1.963 -0.1183  0.0576  0.2642
18693W        W34502  14.970   2.183   3.618 -0.1708  0.0125 -0.0598
18694W        W34503   4.382   2.039   1.856 -0.0976  0.0209  0.2322
18695W        W34504  12.372   7.341  12.738  0.0627 -0.2485  0.1044
18696W        W34505   0.462   4.859  14.376  0.2749  0.2254  0.2972
18697W        W34506   8.184   8.120  10.339 -0.0168 -0.0686 -0.1579
18698W        W34507   7.314  17.511   4.234 -0.1064  0.2447 -0.2642
18699W        W34508  11.409  18.842  12.295  0.4438  0.3848  0.1366
18700W        W34509  17.837   2.199  14.653 -0.0643  0.2421  0.1963
18701W        W34510   6.254   6.214  12.603  0.0083  0.1476  0.1232
18702W        W34511  14.260   3.584  15.193 -0.3230  0.1055  0.1068
18703W        W34512   9.545  17.834   0.559  0.1964  0.1890  0.2147
18704W        W34513   5.814   0.074  11.109 -0.0606  0.2972 -0.1897
18705W        W34514   1.196   2.921   2.865  0.3851  0.3546  0.1098
18706W        W34515   2.301  14.528  15.203  0.0899  0.2378  0.0061
18707W        W34516   2.501   8.305   5.810 -0.2021 -0.0838 -0.0152
18708W        W34517  17.779   8.417  12.020  0.0515  0.0872 -0.1164
18709W        W34518   1.573   0.165  14.206 -0.0810  0.1107  0.2384
18710W        W34519  15.482   2.312  10.741  0.0296  0.2059 -0.0423
18711W        W34520  16.614   2.859   2.627  0.1582 -0.1010 -0.0951
18712W        W34521   5.785   0.535  10.977  0.4282  0.0436 -0.2175
18713W        W34522  10.166   7.620   2.622 -0.0202  0.0343  0.2535
18714W        W34523  11.658  12.105  14.389  0.0762 -0.2039 -0.0096
18715W        W34524   7.670   6.042   1.125  0.0258 -0.0898  0.0755
18716W        W34525   8.477   7.836   6.107  0.1605 -0.1090  0.1388
18717W        W34526   5.840   1.319   0.155 -0.2650  0.2114 -0.0486
18718W        W34527   4.522   6.371  12.593 -0.2755 -0.0825  0.1379
18719W        W34528  15.502   7.780   0.517 -0.3654  0.1095 -0.1884
18720W        W34529  14.669   4.868  13.223 -0.0351  0.1249  0.0665
18721W        W34530   4.750   4.996  11.070  0.3670 -0.1956  0.0616
18722W        W34531  12.393   2.721  13.131  0.0131  0.1164 -0.0050
18723W        W34532   9.330   4.637  14.321 -0.0294 -0.0362  0.0093
18724W        W34533   4.656   4.807   0.283 -0.1179 -0.2353 -0.0557
18725W        W34534  11.330   5.784  15.226  0.0124  0.1496 -0.2450
18726W        W34535   2.155   0.692   4.997  0.0935  0.0943 -0.0246
18727W        W34536   3.029   1.996   0.468 -0.5402 -0.2687 -0.2395
18728W        W34537  14.920   7.710   5.960 -0.0457  0.0264  0.0106
18729W        W34538  18.711  14.290  11.469  0.1676 -0.1281  0.3301
18730W        W34539  18.203  18.572   5.195  0.0943 -0.0320 -0.2522
18731W        W34540   2.212   5.953   2.047 -0.1883 -0.0058  0.3060
18732W        W34541  11.690  17.241   4.937 -0.1037  0.1262 -0.3344
18733W        W34542   2.920  14.531  14.165 -0.0033 -0.1534 -0.2460
18734W        W34543   6.219  14.530  10.848 -0.1802  0.0524 -0.0906
18735W        W34544  12.781   8.440   2.339  0.0205 -0.1735 -0.0742
18736W        W34545  11.236   5.682  13.077 -0.0299 -0.2935  0.1637
18737W        W34546   4.090   6.021   0.006  0.1675 -0.1412  0.0696
18738W        W34547   5.475   0.771   2.052 -0.0359 -0.1786 -0.1769
18739W        W34548   6.133   3.641   4.907  0.2973 -0.1272 -0.0312
18740W        W34549   1.847   0.174   2.080  0.0319  0.3848 -0.0692
18741W        W34550   6.606   6.077   5.404 -0.1918  0.1163 -0.3961
18742W        W34551  18.877   6.656   3.872  0.1179  0.1505 -0.0420
18743W        W34552  14.014  14.292   6.063  0.0304  0.0278 -0.2098
18744W        W34553   6.460  12.954  10.298  0.1543 -0.2985  0.1512
18745W        W34554  11.198   0.243  15.116 -0.1371  0.1847  0.3507
18746W        W34555  18.649   2.411  12.607 -0.2097  0.3380  0.0246
18747W        W34556  12.335   9.630  14.057 -0.0133  0.1321 -0.2635
18748W        W34557   5.569  16.670   3.140 -0.0533 -0.3287 -0.1398
18749W        W34558   4.027   2.980  10.313  0.2377 -0.0104  0.2859
18750W        W34559   3.516  12.868  13.589 -0.2083  0.0448  0.1520
18751W        W34560   8.102   1.001   3.033  0.1562 -0.0444 -0.3392
18752W        W34561   5.029   4.998   5.413  0.2029 -0.3728 -0.0470
18753W        W34562   7.195  12.268  15.343 -0.0373  0.0080  0.1461
18754W        W34563   0.158  18.514   0.849 -0.1542  0.1192 -0.1240
18755W        W34564   1.488   3.667   0.186  0.2944  0.1722  0.5334
18756W        W34565  10.712   1.309   4.631 -0.2609 -0.4647 -0.1547
18757W        W34566  16.729  17.767   1.369 -0.0200 -0.0362 -0.0559
18758W        W34567   5.776  16.941  15.145  0.0617 -0.1429 -0.0332
18759W        W34568   7.177   4.706   1.119  0.1437 -0.0918 -0.0135
18760W        W34569   0.450  13.519  10.360 -0.1756  0.0365  0.0456
18761W        W34570  14.622   4.602   9.709  0.0870 -0.0533 -0.0547
18762W        W34571  10.041  16.492   2.349 -0.0142  0.0610  0.0225
18763W        W34572  12.133   8.877  10.202 -0.1749  0.2538 -0.2451
18764W        W34573  14.233  12.444   1.563 -0.1223 -0.1999 -0.1783
18765W        W34574  15.312   7.289  14.000 -0.0431 -0.1201  0.0694
18766W        W34575   2.496   6.460  15.237  0.1320 -0.0736 -0.0333
18767W        W34576   4.187   9.344   1.532  0.3034 -0.1528 -0.1812
18768W        W34577  15.325   4.427   5.186  0.0019 -0.0333 -0.0285
18769W        W34578  13.095   2.875   1.015  0.1778 -0.0988  0.1071
18770W        W34579  15.413  12.974   3.894  0.1898  0.3466 -0.1953
18771W        W34580  10.675  15.134   3.450 -0.0138  0.1120 -0.2701
18772W        W34581  16.096  10.118  13.364  0.0480  0.0612 -0.1215
18773W        W34582  16.261   3.015  13.262  0.4812 -0.1514 -0.0033
18774W        W34583  18.682   2.620   2.309  0.1369  0.0616 -0.2191
18775W        W34584  11.735  16.991  14.733  0.0936  0.1852  0.3734
18776W        W34585  17.792   5.818   0.863  0.1605 -0.4088 -0.0171
18777W        W34586  16.114  10.988  13.261 -0.4284  0.3317 -0.1380
18778W        W34587  11.772  15.829  11.809 -0.1994  0.0674 -0.2450
18779W        W34588  12.718  14.400   0.661  0.1227  0.2099 -0.0315
18780W        W34589   0.567  13.380  11.324  0.1059  0.3835 -0.1157
18781W        W34590   8.205  13.397   2.087  0.2479 -0.3336  0.2221
18782W        W34591   6.892  11.138  14.272 -0.0197  0.1197 -0.2814
18783W        W34592   6.744   5.433   2.146 -0.0639 -0.0036 -0.0524
18784W        W34593   1.291   2.121   4.383  0.1824 -0.2108  0.2501
18785W        W34594   0.366  16.063   1.204  0.0313  0.1543 -0.2044
18786W        W34595  14.467   3.315   3.122  0.0178 -0.2319 -0.0843
18787W        W34596   8.991  14.789   1.496 -0.3428  0.2050  0.0448
18788W        W34597  15.536  13.790   2.829  0.0883  0.0536  0.2397
18789W        W34598   8.121  15.974   1.017  0.2834  0.2083  0.1167
18790W        W34599   8.428   1.264  10.738 -0.0231  0.1485 -0.0828
18791W        W34600   5.446  14.304  15.198  0.0195  0.0763 -0.1844
18792W        W34601   8.300  11.090   5.226 -0.0876 -0.2078  0.3480
18793W        W34602  14.804   2.847   2.394  0.3771  0.0594  0.1680
18794W        W34603   5.768  18.552  14.961  0.0293 -0.1995  0.0440
18795W        W34604  10.491   5.372   1.477 -0.2969 -0.3246  0.1436
18796W        W34605  16.205  15.087   4.067  0.2003 -0.1018  0.0542
18797W        W34606  15.866   9.163  15.015 -0.1671  0.0145 -0.0776
18798W        W34607  18.474   5.087   2.329  0.0446 -0.0685  0.2703
18799W        W34608  16.277   8.172  14.971  0.0691 -0.1100  0.1246
18800W        W34609   0.585  13.828   1.946 -0.5239  0.0671 -0.1330
18801W        W34610  16.128   2.775   3.738  0.2540  0.2143  0.1313
18802W        W34611   3.040  18.049  12.039 -0.1978  0.2485  0.1596
18803W        W34612  11.601  14.185  11.875  0.0069  0.0732 -0.0445
18804W        W34613  15.208   0.144   0.018 -0.1713 -0.0464 -0.1467
18805W        W34614   7.458  10.053  14.162 -0.5888 -0.2013 -0.0256
18806W        W34615  10.624  12.653   0.574  0.1848 -0.1449 -0.2327
18807W        W34616   8.108   3.263   3.563  0.1187  0.0176  0.2200
18808W        W34617   6.134   9.995  15.417  0.0839  0.4108  0.0499
18809W        W34618   4.039   0.542   5.672  0.0139 -0.1260 -0.2157
18810W        W34619   5.954  18.099   1.004  0.2816  0.0353 -0.2254
18811W        W34620  11.301  13.806   2.574  0.3720 -0.0416  0.0632
18812W        W34621   4.586  11.674  12.795  0.1421  0.2854 -0.1922
18813W        W34622  17.338  14.745  12.358 -0.0584  0.0211 -0.0054
18814W        W34623  13.221   7.794   0.190 -0.0381  0.1746  0.1549
18815W        W34624  15.027   5.452  13.067  0.2072 -0.0725 -0.1284
18816W        W34625  16.781   7.379   0.225  0.2659  0.1015 -0.2180
18817W        W34626  17.292  17.622   1.240 -0.0129  0.2831  0.2158
18818W        W34627  16.213  14.995  14.289  0.1704 -0.2051 -0.0862
18819W        W34628   5.304  14.742  14.916 -0.0532  0.0587 -0.1914
18820W        W34629   6.933   9.470   1.893  0.2115  0.2732 -0.2751
18821W        W34630   9.532   7.035   3.687  0.2641  0.4043 -0.0008
18822W        W34631  12.556  11.214   4.039  0.1339 -0.0304  0.1535
18823W        W34632  17.905  10.340  11.538 -0.1600  0.0745 -0.0568
18824W        W34633  11.939   2.141  13.134 -0.1849  0.0792 -0.1125
18825W        W34634   3.917   2.341   1.798  0.4115 -0.1499 -0.1567
18826W        W34635  15.498   1.339   3.086  0.0004  0.2282  0.0962
18827W        W34636   2.463  11.338  10.413 -0.0773 -0.3033 -0.1852
18828W        W34637  15.420   9.300  10.554 -0.0200 -0.3866 -0.1156
18829W        W34638  10.944   6.948   3.680  0.1141  0.0129  0.2467
18830W        W34639  13.743  13.638   5.112 -0.2020  0.1397 -0.2263
18831W        W34640  11.444  15.083  12.942 -0.0442 -0.4227 -0.1161
18832W        W34641   9.860   4.044   2.308 -0.2611 -0.1662  0.0599
18833W        W34642   1.845  10.639  14.574 -0.0293 -0.1928 -0.0675
18834W        W34643   4.721   5.776   3.994  0.3081 -0.2088  0.2228
18835W        W34644  15.530   1.872   3.287  0.0969 -0.2339 -0.1204
18836W        W34645  12.173   2.941  14.591 -0.0757  0.1321 -0.2640
18837W        W34646   1.367  10.259  13.024 -0.1383 -0.4465  0.1082
18838W        W34647  11.852  11.764  13.985 -0.1773  0.1964 -0.0944
18839W        W34648   4.971  18.432   3.807 -0.0066 -0.0629 -0.2919
18840W        W34649  17.276   0.275   0.528  0.1324  0.2559  0.4819
18841W        W34650   3.549   3.612   1.494 -0.1047  0.0877  0.0743
18842W        W34651  17.261   4.432  11.199  0.2962 -0.4875 -0.2486
18843W        W34652   5.858  12.929  10.977 -0.1513 -0.0513 -0.3493
18844W        W34653   3.687  11.624   1.626  0.4201  0.0480  0.3127
18845W        W34654  17.470  18.193   5.224 -0.0619 -0.2866  0.1487
18846W        W34655  12.226  18.154   1.057 -0.2335 -0.0129 -0.0393
18847W        W34656  18.220   2.968  11.682  0.1418 -0.0327  0.1110
18848W        W34657  18.215   3.435  11.803  0.5037 -0.0781 -0.1745
18849W        W34658  16.386   2.004   1.511 -0.0766 -0.1146 -0.0895
18850W        W34659  13.405  11.376  13.936 -0.2629 -0.1063 -0.0595
18851W        W34660   8.503   6.853   0.586 -0.0253  0.4177  0.2022
18852W        W34661  17.855   7.990   5.739  0.2964  0.1137  0.0948
18853W        W34662   4.970   4.462  14.890 -0.1616  0.1478  0.1093
18854W        W34663  10.881  12.945  15.084  0.0620  0.1807  0.3798
18855W        W34664   5.515  11.562   1.204  0.1501 -0.1168  0.2279
18856W        W34665  18.097  18.327  13.637  0.0575  0.2210 -0.0901
18857W        W34666  12.718   2.047  14.364  0.1129  0.0850 -0.3048
18858W        W34667   9.564  16.647  13.495  0.3520 -0.0856  0.0502
18859W        W34668   4.325  12.884   2.318 -0.0529  0.1210  0.0472
18860W        W34669  10.776  18.102   4.821  0.2630 -0.1438 -0.3550
18861W        W34670  18.390  13.016   4.010 -0.1951 -0.0639  0.0863
18862W        W34671  10.729   4.925   1.791 -0.0882 -0.0362 -0.0805
18863W        W34672   8.219   2.786  14.044 -0.0886 -0.0209 -0.0514
18864W        W34673   4.511   4.872  14.040  0.2297  0.0282 -0.0372
18865W        W34674   6.749   7.507   1.032  0.0494  0.0798  0.3595
18866W        W34675   9.684  16.179   9.244 -0.2256 -0.1370  0.0056
18867W        W34676   8.977   0.273   9.279 -0.0603  0.0198 -0.1831
18868W        W34677   9.567   3.903  11.068  0.0337 -0.3265 -0.0554
18869W        W34678  12.404  12.391  12.335 -0.3972 -0.0108 -0.1829
18870W        W34679  17.481   3.142  12.876 -0.0908 -0.4823  0.0480
18871W        W34680  10.558   0.481  12.515 -0.5382  0.3883  0.1749
18872W        W34681  16.855  17.277  11.134  0.0786 -0.1710 -0.0548
18873W        W34682   5.172   1.648  11.673  0.3780  0.0078 -0.1331
18874W        W34683   1.448  15.851  14.962  0.1508 -0.1327 -0.1883
18875W        W34684  16.404   1.793  12.869  0.1213  0.1674 -0.0860
18876W        W34685   4.409  17.751   1.772  0.0871 -0.0333  0.2344
18877W        W34686   5.532  16.326  11.978 -0.4151  0.0048  0.0132
18878W        W34687   9.945   0.049  11.135 -0.3369  0.3245 -0.0602
18879W        W34688  18.025   4.747   1.514  0.1156  0.0454 -0.2246
18880W        W34689  15.521   2.230   1.249 -0.0250  0.0003 -0.0930
18881W        W34690  17.404  10.575  11.336 -0.2949 -0.1041  0.0212
18882W        W34691  18.583   1.632  12.120  0.0337  0.0283  0.0588
18883W        W34692   4.744  12.330   5.292 -0.3091  0.0623  0.3504
18884W        W34693  14.044   0.777  11.960  0.4453 -0.3117  0.4439
18885W        W34694  15.033  14.082   1.018 -0.1683 -0.2199  0.2062
18886W        W34695  15.340   1.247  12.316  0.0484  0.0948  0.3120
18887W        W34696   8.392  18.020   5.366  0.1449  0.2413  0.1493
18888W        W34697   5.079   6.268  11.531  0.1419 -0.1760 -0.1474
18889W        W34698   2.723   4.389   1.459 -0.2694  0.1219 -0.1336
18890W        W34699   1.202  10.181  11.028  0.0601 -0.1453  0.1399
18891W        W34700  11.355   4.817   0.583  0.0346  0.0941 -0.0418
18892W        W34701   2.015  11.243   0.669 -0.0956  0.1533 -0.0625
18893W        W34702  11.925  13.880   3.658  0.1435 -0.0282 -0.0042
18894W        W34703   0.398  14.038   3.502  0.2252  0.1267  0.2697
18895W        W34704  18.231   0.178  10.734  0.1525 -0.3434 -0.1112
18896W        W34705   6.082  17.937   1.950  0.0401  0.2103 -0.3846
18897W        W34706  14.303  11.216   2.317 -0.2133 -0.3877 -0.0842
18898W        W34707  11.839  14.303  12.483  0.2019  0.1028  0.2332
18899W        W34708   4.980  14.563   2.410 -0.1249 -0.1332  0.1534
18900W        W34709  11.068   8.014  14.997 -0.3962 -0.0593  0.2055
18901W        W34710   3.015   6.042  14.582  0.3218 -0.1759  0.1761
18902W        W34711  10.771   7.127  15.100  0.0999  0.0418  0.1320
18903W        W34712   3.710  16.916  11.378  0.0623 -0.0479 -0.1386
18904W        W34713   1.833  14.677   1.067  0.3608 -0.0411  0.2400
18905W        W34714  10.238  16.936   1.076 -0.0702 -0.1956  0.1315
18906W        W34715  16.339   4.334   1.854  0.0734 -0.2581 -0.0492
18907W        W34716   9.058   9.083  14.701 -0.2868  0.0369  0.1451
18908W        W34717   6.777   4.124   3.389 -0.1541 -0.2788 -0.2021
18909W        W34718  15.905  17.107   1.818  0.2725  0.1917 -0.4033
18910W        W34719  12.566  15.631   3.324  0.1901  0.0051  0.0539
18911W        W34720  17.758   7.597  13.365  0.0798  0.1320 -0.2500
18912W        W34721  13.363   5.942   1.036 -0.1118  0.0005 -0.0829
18913W        W34722  10.424   2.167   1.590 -0.4454 -0.1747 -0.0037
18914W        W34723   6.049  16.196  12.039  0.1230 -0.1573  0.2762
18915W        W34724   4.326  16.440   4.204  0.1464 -0.2248  0.2064
18916W        W34725   1.491   9.665  15.277  0.2881  0.3758 -0.0817
18917W        W34726  17.231   3.907   3.872  0.1131  0.0062 -0.2819
18918W        W34727   5.419  17.315  12.384 -0.0843 -0.0977  0.1497
18919W        W34728  16.903   8.633  12.933 -0.2112 -0.4092 -0.3924
18920W        W34729  16.582   8.611   2.675 -0.0189 -0.0830  0.1604
18921W        W34730  11.143  11.325  15.079  0.0012  0.1167  0.4328
18922W        W34731   4.774   0.447   1.678  0.0130 -0.0473 -0.3987
18923W        W34732   1.666  10.348   9.747  0.0086  0.2070 -0.0770
18924W        W34733  15.812  10.008   1.741  0.0059  0.1648 -0.1695
18925W        W34734  15.383   8.612  11.312 -0.0620 -0.0761 -0.1170
18926W        W34735  15.807   6.798  10.940 -0.3572 -0.1314 -0.0995
18927W        W34736  13.264  13.218  12.865 -0.4267  0.5062  0.1763
18928W        W34737   1.276  10.112   2.889  0.2606 -0.0362 -0.1446
18929W        W34738   4.547  10.724   5.284 -0.1958  0.1778 -0.2339
18930W        W34739  18.585   3.414  14.022 -0.2024  0.0050 -0.0011
18931W        W34740  10.753  10.376  14.616  0.2283  0.0705 -0.0815
18932W        W34741  14.153   4.694  13.545  0.1985  0.2134  0.0286
18933W        W34742   8.112  11.930   1.897  0.1776  0.5296  0.3748
18934W        W34743   6.678   5.309  13.965  0.1620  0.1169 -0.1063
18935W        W34744   3.180   7.671   0.996  0.3102  0.1707  0.0387
18936W        W34745   7.676  17.981  15.169  0.0608 -0.4959  0.4232
18937W        W34746  15.358  10.117   2.666  0.1446 -0.1080  0.2774
18938W        W34747   2.132   8.072   0.288 -0.1458 -0.2099 -0.3765
18939W        W34748   3.966  10.508  10.647 -0.4576  0.0391 -0.4066
18940W        W34749   1.255  15.023  12.577  0.0805 -0.0804 -0.0386
18941W        W34750  11.974   3.243   5.322  0.1496 -0.1082  0.1785
18942W        W34751   6.700  18.483   0.440  0.2229  0.1102 -0.0595
18943W        W34752   2.562   8.881  14.454  0.1087  0.3396 -0.0051
18944W        W34753   9.227  12.976  12.146  0.0836  0.2067 -0.0607
18945W        W34754   6.482   2.524  12.015  0.1078 -0.2118 -0.1286
18946W        W34755  14.687  12.584   3.955  0.1246 -0.4271 -0.0554
18947W        W34756   6.709   2.974  13.916 -0.0594  0.0329 -0.1474
18948W        W34757   8.413   1.795   2.221 -0.1345  0.0167 -0.0096
18949W        W34758  16.346  18.389   4.298  0.0629 -0.4594 -0.1974
18950W        W34759   0.678   2.252  14.291 -0.2816 -0.1605 -0.0058
18951W        W34760   7.265  10.561  11.443 -0.0953  0.1626  0.1687
18952W        W34761  14.585  11.061  10.924  0.2389  0.1389 -0.2251
18953W        W34762   7.492   4.997   5.507 -0.3185  0.2412  0.0287
18954W        W34763   1.654   7.426   3.334 -0.0431  0.2229  0.0798
18955W        W34764   1.976  18.896   0.347  0.0183  0.0468 -0.1057
18956W        W34765   6.271   1.051  14.843  0.0835 -0.1048 -0.0974
18957W        W34766  15.054   1.172  15.169  0.0224  0.3945 -0.1331
18958W        W34767  10.576   8.425  13.479 -0.0500 -0.0924  0.1365
18959W        W34768  13.353  14.549   4.315  0.0679 -0.3966 -0.1846
18960W        W34769  14.540  12.674  11.388 -0.0311 -0.2093 -0.3856
18961W        W34770  13.893   8.533   1.786  0.1705 -0.0284  0.1540
18962W        W34771   1.519  13.361  11.232  0.2730 -0.2757 -0.1351
18963W        W34772   5.819   7.306  12.936  0.0259  0.2726 -0.0909
18964W        W34773  10.716  14.896  13.439  0.1410 -0.2952 -0.1807
18965W        W34774  12.232  18.815   1.245 -0.0645  0.0970 -0.0006
18966W        W34775  11.983   4.295   0.920  0.0818 -0.2964 -0.0848
18967W        W34776  10.616   9.919   3.544  0.0633 -0.1429  0.1627
18968W        W34777   9.446  15.547   0.369  0.0055 -0.0449  0.2472
18969W        W34778   6.959   3.705   1.039  0.2302  0.3042 -0.2151
18970W        W34779  17.077  11.212   4.911 -0.2575 -0.1228  0.1370
18971W        W34780   6.382   3.973   3.849  0.1771 -0.2329 -0.0817
18972W        W34781  10.937   4.164  13.012 -0.3022 -0.0836 -0.0004
18973W        W34782   6.548   0.237  14.580  0.0934  0.2254  0.1985
18974W        W34783  10.955  10.481   1.938  0.1774 -0.2948  0.4658
18975W        W34784  14.274  15.895  14.571  0.1854  0.1793 -0.1317
18976W        W34785  15.964   1.670  13.908 -0.1302 -0.0651  0.3038
18977W        W34786   0.774  11.896  15.398  0.0803 -0.3478 -0.1555
18978W        W34787  13.712  13.921  12.400 -0.0320 -0.2984  0.3613
18979W        W34788   5.056  15.300   1.164  0.0044 -0.4066  0.3057
18980W        W34789  14.990   3.108   3.640  0.0456 -0.2412 -0.2625
18981W        W34790   5.680  16.808   2.226  0.1866  0.2048  0.0689
18982W        W34791   3.738  14.919   5.453  0.3190  0.2201  0.3490
18983W        W34792  15.331   3.043   3.237 -0.0142 -0.1102 -0.1838
18984W        W34793   8.219  11.105   0.437  0.1434 -0.1415  0.4275
18985W        W34794   1.701   5.805   5.126  0.1833  0.2316 -0.1794
18986W        W34795  12.512   1.107   2.426 -0.1973 -0.1180  0.0874
18987W        W34796   3.190  14.282  10.609  0.2225 -0.0978 -0.0394
18988W        W34797   6.044   3.626   2.958 -0.1230 -0.1526  0.2653
18989W        W34798  10.121   4.197   3.558  0.1640 -0.0547 -0.3181
18990W        W34799   5.055  11.981   3.146  0.0757 -0.1810  0.3548
18991W        W34800   5.720  13.376  13.482  0.0699  0.1503  0.0656
18992W        W34801   4.047  10.453   2.474  0.1575 -0.1949  0.1479
18993W        W34802   4.853  17.897   2.019  0.0316 -0.2658  0.0718
18994W        W34803   3.841   8.852   4.011  0.1088  0.2469  0.1314
18995W        W34804   5.912   9.089  13.313 -0.0026 -0.0475 -0.0636
18996W        W34805  10.106   3.947  11.623  0.4348 -0.2928 -0.3576
18997W        W34806   8.694  11.447   1.944  0.0601  0.3720  0.0902
18998W        W34807   2.798  12.155   9.608 -0.2501 -0.1542 -0.1899
18999W        W34808  10.069  16.096   3.388 -0.2179 -0.0151  0.1129
19000W        W34809   8.655   4.546   3.712 -0.3436 -0.2731  0.2658
19001W        W34810   7.154  16.616   4.508  0.0339  0.0418  0.3008
19002W        W34811  13.393   2.128   5.245 -0.1187  0.2032 -0.1279
19003W        W34812  13.487  13.563   2.696 -0.1837 -0.1065 -0.1325
19004W        W34813  15.378   9.666  13.454 -0.1074  0.2552 -0.1076
19005W        W34814  11.172   9.606   2.979  0.0409 -0.1298 -0.4355
19006W        W34815   8.230  14.083  11.289 -0.0889  0.0368  0.1177
19007W        W34816  15.331   7.574   4.009 -0.3020  0.0184 -0.0370
19008W        W34817   3.148   9.238  15.112  0.0955 -0.1748 -0.3507
19009W        W34818   2.121   8.975   2.385  0.1253 -0.0301  0.3059
19010W        W34819   7.620   3.879  15.169  0.3276 -0.2065  0.2331
19011W        W34820  16.732  13.968  12.779  0.2879 -0.0118 -0.2325
19012W        W34821   5.806   4.577   2.368  0.1079  0.2371  0.3562
19013W        W34822  15.444   4.463  11.297  0.1338  0.0925  0.1428
19014W        W34823  16.065   8.710   5.649  0.2667 -0.2071  0.2224
19015W        W34824  16.107  14.831  11.880 -0.1385 -0.2640 -0.0461
19016W        W34825  16.265  17.633   1.619  0.0634 -0.0876 -0.3299
19017W        W34826   6.510   7.504  10.444 -0.0236  0.2371 -0.3296
19018W        W34827   7.685   0.379  12.903 -0.1058  0.1279 -0.1586
19019W        W34828  17.930   9.781  14.768 -0.4542 -0.0442  0.3444
19020W        W34829  10.303   3.889   4.336  0.3863  0.2610 -0.2329
19021W        W34830  18.788   0.230   4.781 -0.1931  0.0705 -0.1319
19022W        W34831  17.484   9.505  12.475 -0.0864 -0.4360  0.0560
19023W        W34832   4.504   8.145   3.715 -0.4583  0.2013  0.1226
19024W        W34833   0.964   9.824  14.376  0.0883  0.0447  0.1803
19025W        W34834  15.999  12.483  11.519  0.2686  0.2826  0.1742
19026W        W34835   0.671  15.433   4.029  0.0461 -0.2462  0.0901
19027W        W34836  15.266   9.591   4.457  0.1154 -0.1076 -0.4632
19028W        W34837  13.062  11.406   1.264 -0.4983 -0.0054 -0.2012
19029W        W34838   0.994  16.793  13.186  0.2069  0.0460  0.1013
19030W        W34839   4.526  17.463  12.808 -0.0044 -0.0351  0.2116
19031W        W34840  11.553  15.119   2.895 -0.2824  0.2082  0.1081
19032W        W34841  14.827  15.537   0.709 -0.0828  0.1244 -0.0627
19033W        W34842  17.703  13.553  13.088 -0.2038  0.0589  0.2512
19034W        W34843  15.187  13.901  11.015 -0.0503  0.3615 -0.0167
19035W        W34844   4.459   5.349  12.741  0.0032  0.0601 -0.1013
19036W        W34845   7.635  18.179   0.476 -0.0844  0.5305  0.0246
19037W        W34846  15.649  12.447   3.652  0.1570  0.1237 -0.0059
19038W        W34847   3.263  13.507  14.984  0.0585  0.3101  0.1547
19039W        W34848   5.214   5.220   1.002 -0.2228 -0.1538 -0.2507
19040W        W34849  13.550   9.502  11.291 -0.0274 -0.0684 -0.2061
19041W        W34850   8.730  14.874  14.821 -0.0916 -0.0071 -0.0079
19042W        W34851  12.477  13.859   0.668 -0.1718  0.0082 -0.0136
19043W        W34852   7.236   9.979   1.694  0.0172 -0.1816 -0.0556
19044W        W34853   2.174  13.481  13.462  0.3809 -0.1939  0.0580
19045W        W34854  11.442   9.706  12.298  0.1022  0.0443  0.2251
19046W        W34855   4.554  15.552   3.194 -0.0225 -0.2170 -0.1645
19047W        W34856   8.424   3.813  11.375 -0.1119 -0.0265 -0.0963
19048W        W34857   8.890   3.132  10.578 -0.1365  0.1749  0.1791
19049W        W34858  15.144  14.727   5.628  0.0573  0.2979 -0.2913
19050W        W34859  17.905  13.065  13.085  0.1312 -0.0751 -0.3235
19051W        W34860   8.801  10.567   3.161 -0.1907 -0.0073 -0.1911
19052W        W34861   4.748   4.517  11.013 -0.0083  0.1049  0.1284
19053W        W34862  14.866   9.849  12.119  0.0502  0.1755  0.1147
19054W        W34863  14.705  10.244  14.730 -0.1845  0.1715  0.2002
19055W        W34864   1.297  13.951   9.400  0.1376 -0.0501 -0.0125
19056W        W34865  18.072   9.349  10.609 -0.1327  0.0740  0.0113
19057W        W34866  15.338   1.730  13.200  0.3484 -0.1429 -0.0543
19058W        W34867  17.596  18.391  10.642 -0.2312 -0.2651 -0.2928
19059W        W34868   3.555  15.515   4.272  0.1765 -0.1567  0.3168
19060W        W34869   8.727  16.602   2.276 -0.0082  0.0936  0.0291
19061W        W34870   2.859   1.428  13.052 -0.5101 -0.2132 -0.1414
19062W        W34871  14.064   9.602  14.272 -0.1978  0.1883 -0.0147
19063W        W34872  16.328  14.487  10.989 -0.0462 -0.0167  0.1146
19064W        W34873  13.683   5.299  14.334 -0.2412 -0.0517  0.1624
19065W        W34874  13.441   4.595  13.872  0.2738  0.0644  0.0082
19066W        W34875  10.840  10.546  13.163  0.2896 -0.1119 -0.0845
19067W        W34876   9.242   5.387   4.071 -0.0677  0.0686  0.3387
19068W        W34877  10.516   2.866   3.394  0.2995  0.0548 -0.2212
19069W        W34878   6.752   0.554   1.615  0.1257 -0.1091  0.2943
19070W        W34879   0.664  10.827  13.048 -0.2050 -0.0664  0.3723
19071W        W34880  16.651   2.906   4.619  0.0573  0.1067  0.1488
19072W        W34881   6.123   5.677   2.748 -0.3232 -0.0830 -0.1190
19073W        W34882   5.472   7.821  10.535 -0.0465  0.0182  0.3487
19074W        W34883   8.288   5.352  12.618  0.1345  0.1568  0.2620
19075W        W34884  12.486   7.290  14.098  0.1363  0.0901 -0.0276
19076W        W34885  16.461   3.507  12.042  0.1792  0.0168  0.2242
19077W        W34886  17.048   4.788   4.110 -0.3379 -0.0104  0.2559
19078W        W34887  13.753  12.091   1.477  0.1452 -0.2012 -0.2773
19079W        W34888  18.404   8.791   0.091 -0.1482 -0.0780 -0.0680
19080W        W34889   4.610   0.298   0.310 -0.1112  0.0762  0.2225
19081W        W34890   3.118   1.405   5.364  0.0523 -0.3910 -0.0353
19082W        W34891   2.743   4.925  11.986 -0.0295  0.0604 -0.2057
19083W        W34892   5.453  16.228   2.222  0.0848 -0.2083 -0.0187
19084W        W34893   4.965   5.081  14.989  0.4193 -0.1430  0.2805
19085W        W34894   9.368  13.893   4.264 -0.1884 -0.0692  0.0858
19086W        W34895  13.130  13.639  12.492 -0.1417  0.1127 -0.0299
19087W        W34896   5.556  12.813  13.584 -0.1475 -0.0481  0.0624
19088W        W34897  12.250  11.663   3.266  0.2803  0.0131 -0.3331
19089W        W34898  10.706   8.954  13.281  0.0370 -0.1602 -0.0033
19090W        W34899   9.254   0.682   3.041  0.1673 -0.0804  0.1868
19091W        W34900  15.420  18.883   0.400 -0.0595  0.2704 -0.0091
19092W        W34901   2.609   0.958  12.959  0.0707 -0.0874 -0.2262
19093W        W34902  12.304   6.568  12.643  0.2013  0.0396  0.0535
19094W        W34903  15.875  13.035  13.163 -0.1246  0.1671  0.2043
19095W        W34904  17.757   9.897  12.517 -0.0269 -0.3497  0.0565
19096W        W34905   8.285  17.124  14.138  0.0457  0.1775 -0.1946
19097W        W34906  16.097   8.489  13.297 -0.0759 -0.0180 -0.3353
19098W        W34907  12.299  18.584  14.290  0.0686  0.1396  0.2212
19099W        W34908   2.640  15.249  11.276  0.4752 -0.2119  0.0869
19100W        W34909   2.692  15.138  12.141  0.0507 -0.1050  0.0557
19101W        W34910   9.035   4.841  11.948  0.0245 -0.1904 -0.1492
19102W        W34911   4.868  12.485   3.011  0.1421  0.2705  0.0031
19103W        W34912  18.370   7.312  11.567 -0.0579 -0.1111 -0.1739
19104W        W34913  11.640   9.352  14.442  0.4144 -0.0991 -0.1500
19105W        W34914  15.366  10.250  15.342 -0.0890  0.0977 -0.0009
19106W        W34915   0.823   2.731   2.619 -0.1251 -0.0011  0.2926
19107W        W34916  13.133  12.817  11.078 -0.0776 -0.0928 -0.2475
19108W        W34917  11.364  12.083   2.209  0.0810 -0.2177 -0.3723
19109W        W34918   0.413   8.465  11.014  0.0350  0.0965 -0.1349
19110W        W34919   7.193  17.664   2.604 -0.1386  0.2079 -0.0201
19111W        W34920  15.957   7.088   1.235  0.1644 -0.2603  0.1191
19112W        W34921  16.737  10.074   1.198  0.0958  0.0289  0.0062
19113W        W34922   4.018  13.398  14.479  0.2444 -0.0554 -0.0818
19114W        W34923  13.913  15.843  13.336  0.0768  0.1224  0.0016
19115W        W34924   1.074   9.530   5.217  0.1126 -0.0129 -0.0006
19116W        W34925  16.646  16.516   3.225  0.1615  0.0292 -0.0434
19117W        W34926   6.174  14.433  10.237  0.0288  0.2835 -0.3657
19118W        W34927  14.723   4.388   4.664 -0.2155 -0.2231  0.0088
19119W        W34928   8.182   7.161   4.284 -0.1565 -0.2165  0.1240
19120W        W34929   7.022  14.696   1.697 -0.1973  0.2514  0.1844
19121W        W34930  10.808  15.259  11.897 -0.2091 -0.1257 -0.1379
19122W        W34931  14.713  15.901  15.209  0.0246 -0.2230  0.1497
19123W        W34932   8.708   2.836  11.379 -0.2052 -0.1404  0.0418
19124W        W34933   3.713  13.293  13.236  0.4312 -0.3945  0.4245
19125W        W34934   4.019  12.178  10.569  0.0146 -0.0909  0.0217
19126W        W34935   2.699   3.286   5.322 -0.1013  0.0730 -0.0483
19127W        W34936   1.236  17.263   0.934  0.3393  0.1208 -0.1353
19128W        W34937  17.445   5.832  13.079 -0.3427  0.1894 -0.3208
19129W        W34938   0.364  14.413  10.693 -0.4474 -0.3741 -0.0340
19130W        W34939  13.554   3.458  11.234 -0.2979  0.0703  0.0010
19131W        W34940   1.864   5.668  12.417  0.1798  0.3020 -0.2174
19132W        W34941   3.276  16.989   1.451 -0.3152 -0.5511 -0.0374
19133W        W34942  13.322   4.188  15.197  0.3576  0.0557  0.2338
19134W        W34943  10.698   7.974  13.701 -0.0145 -0.1442  0.1589
19135W        W34944  13.086  16.234   2.035  0.2344  0.2413 -0.1585
19136W        W34945  15.533   5.598  12.178 -0.0746  0.3611  0.2937
19137W        W34946   9.348   3.268   1.523  0.3725  0.1703  0.2929
19138W        W34947   5.801   3.641   1.310  0.1353  0.0997  0.0172
19139W        W34948   1.584   4.253   2.535 -0.0700  0.0470 -0.1840
19140W        W34949  18.319  12.100   1.910 -0.0434  0.1962  0.1470
19141W        W34950  14.083   4.089  15.421  0.2325  0.0883  0.1086
19142W        W34951   0.905   3.134   0.786 -0.2429  0.0003  0.0447
19143W        W34952  17.929   7.016  14.439 -0.1518 -0.4877  0.1373
19144W        W34953  13.408  10.856   4.230 -0.0464 -0.1131  0.4520
19145W        W34954  17.836  10.406   1.589 -0.2683  0.1302  0.1373
19146W        W34955   1.414  14.774  12.128 -0.0920 -0.1829  0.2293
19147W        W34956   7.195  10.334  12.570 -0.0591  0.0965  0.1200
19148W        W34957  16.907   6.757  10.899  0.0162  0.1359 -0.1559
19149W        W34958   4.743  17.260  14.248  0.0662 -0.4483 -0.3422
19150W        W34959   4.407  14.332   2.631 -0.0205  0.2692 -0.1457
19151W        W34960  16.241  18.770  13.901 -0.0739 -0.2515  0.2530
19152W        W34961  13.254  13.315  11.966 -0.2165 -0.0973 -0.1615
19153W        W34962   7.016   7.296  12.623 -0.2551  0.2265 -0.3439
19154W        W34963   2.576   5.187  14.696  0.6812  0.0088  0.0076
19155W        W34964  14.006   3.675   0.349  0.2343  0.0060  0.1321
19156W        W34965  10.129   3.360   0.872  0.0427 -0.2731 -0.0429
19157W        W34966   9.465  14.377   4.624 -0.1506  0.3046  0.1778
19158W        W34967  13.932   2.985  12.201  0.1893 -0.2080  0.0761
19159W        W34968   3.614   6.077  11.232  0.3685 -0.1330  0.0419
19160W        W34969   7.786   1.437   3.597 -0.1673 -0.0470  0.3903
19161W        W34970   5.974  14.343  13.747 -0.2919 -0.0229 -0.0408
19162W        W34971   8.202  11.089   3.168  0.0323  0.1721  0.2600
19163W        W34972   7.732  11.966   4.472 -0.2037  0.0079  0.0001
19164W        W34973   2.928   7.413  11.229  0.1935  0.0100 -0.1410
19165W        W34974  14.381  10.178   3.039 -0.0814 -0.0345 -0.2011
19166W        W34975   3.630   9.636   2.514  0.2518  0.4391  0.1945
19167W        W34976  11.043   0.474  13.478  0.2306  0.0244 -0.0927
19168W        W34977   3.978   2.572  15.066  0.0527 -0.2199  0.1330
19169W        W34978   6.801  18.475  12.212 -0.0827  0.0747  0.0026
19170W        W34979  14.217   7.192  11.290  0.1460 -0.3768 -0.0752
19171W        W34980   9.690   1.435  11.068 -0.3217 -0.0355 -0.2048
19172W        W34981   1.679   8.822  13.719  0.3010  0.1149  0.0056
19173W        W34982   7.076  14.518   1.239 -0.3834  0.1418  0.1006
19174W        W34983  11.357  17.600   1.315 -0.1473  0.2335  0.2818
19175W        W34984  10.967  12.689   0.153 -0.5159  0.1759  0.3336
19176W        W34985   5.294  18.211  10.814  0.2194  0.1442  0.2457
19177W        W34986   7.706   6.084   0.643 -0.0409  0.0094 -0.0797
19178W        W34987  12.454   2.845   1.802 -0.0760  0.1783 -0.0504
19179W        W34988   5.188   9.646  15.067 -0.1149  0.4239 -0.1870
19180W        W34989  12.859   5.357   2.715 -0.2558 -0.1026 -0.0285
19181W        W34990   7.632   5.281   4.028 -0.0914  0.1032  0.1206
19182W        W34991  13.846   1.395   2.688 -0.3948  0.1264  0.1622
19183W        W34992  13.836   3.101   4.018  0.0211 -0.3010  0.1535
19184W        W34993   1.194  14.029  12.523 -0.1747  0.0627 -0.0611
19185W        W34994  10.319   6.914  15.435  0.0572 -0.0981  0.0997
19186W        W34995  10.710  15.939  10.678  0.2988 -0.1456 -0.0660
19187W        W34996   3.405   9.712  15.185  0.0917  0.0668 -0.0699
19188W        W34997   5.543  15.408  14.466 -0.2882  0.2331 -0.0035
19189W        W34998  13.061   3.701  14.124 -0.5533  0.3117 -0.2068
19190W        W34999  12.785   3.650   2.376  0.2070 -0.3372 -0.0240
19191W        W35000   0.328  18.467  12.213  0.0653 -0.1426 -0.1660
19192W        W35001  16.362  17.117  14.724  0.1869 -0.1878  0.1457
19193W        W35002   2.464  12.211   1.297  0.0959 -0.0100 -0.0079
19194W        W35003   8.178   8.483   4.139 -0.2649  0.0857 -0.2676
19195W        W35004   9.930   2.937  13.914  0.0575 -0.1162  0.3086
19196W        W35005   7.909   6.658  15.405  0.0503 -0.0165  0.1632
19197W        W35006  14.133   8.866   5.090 -0.0073  0.4243 -0.0576
19198W        W35007   2.360  12.460   4.361 -0.4630  0.0653  0.1486
19199W        W35008   1.497   0.329  10.090 -0.2390  0.0662 -0.0331
19200W        W35009   8.600   1.980  11.635  0.2079 -0.2641 -0.1775
19201W        W35010   9.709  11.831  15.399  0.1878 -0.0934 -0.2184
19202W        W35011  15.940  10.815   2.885  0.0843  0.0312  0.0333
19203W        W35012   2.772   0.907   1.070 -0.4567 -0.1252 -0.2534
19204W        W35013  10.789   6.299   0.358  0.0380  0.2184  0.1747
19205W        W35014   7.582   5.222  12.091 -0.2494  0.3584  0.1501
19206W        W35015   9.802   6.029   4.227  0.1494 -0.0575  0.2053
19207W        W35016  13.349   2.644  10.676  0.0647  0.1195  0.2669
19208W        W35017   4.360   9.082  12.140  0.2128 -0.1509  0.0588
19209W        W35018  10.941   3.042  11.977  0.1063  0.1935 -0.0868
19210W        W35019  15.845   2.258  11.061  0.4457 -0.0871  0.1559
19211W        W35020  16.997  16.363   2.762  0.0210 -0.3263 -0.0645
19212W        W35021   5.122   0.912   1.741  0.0740 -0.1048 -0.1732
19213W        W35022   9.000   4.072  10.412  0.0880  0.1028  0.0752
19214W        W35023   4.751  14.718  13.589 -0.0340  0.0021  0.0019
19215W        W35024   7.710   2.130   0.160  0.1569  0.1878 -0.1073
19216W        W35025   2.244   2.683  14.409 -0.1908 -0.2942 -0.1763
19217W        W35026   0.387   3.898   0.350 -0.0395  0.0206 -0.2399
19218W        W35027  14.275  10.190   3.942  0.0613  0.0734 -0.2371
19219W        W35028   2.336  12.298   4.905  0.0136 -0.0044 -0.0471
19220W        W35029  11.976   0.746  10.903 -0.1354  0.3184 -0.2965
19221W        W35030  16.782   8.701  12.402  0.1299  0.1908 -0.0521
19222W        W35031   5.379   8.888   2.510  0.2332 -0.3557  0.0149
19223W        W35032   3.120  17.638  13.346  0.0640 -0.2443 -0.0333
19224W        W35033  14.451  17.625  10.937 -0.1100  0.2670 -0.0772
19225W        W35034   5.848  12.525   2.361  0.1640 -0.1919  0.4567
19226W        W35035   9.443   2.701   1.439  0.0844 -0.0833  0.0515
19227W        W35036   5.973   4.479  14.051 -0.1400  0.0273 -0.2138
19228W        W35037   4.484   9.595  15.094  0.3045  0.0554 -0.0531
19229W        W35038   2.285   9.951   1.172  0.0082 -0.1260 -0.2043
19230W        W35039   3.430   1.857   2.719  0.0752  0.1384 -0.2063
19231W        W35040  11.753   3.412   4.281 -0.0867  0.0223 -0.1922
19232W        W35041   5.561   4.673   2.822  0.3290  0.2230  0.3853
19233W        W35042   9.225   1.193   4.090  0.2116 -0.2425 -0.1051
19234W        W35043  11.698   6.934  11.953  0.0015 -0.2421 -0.0904
19235W        W35044  13.893  12.191  11.267  0.1779 -0.1535  0.1226
19236W        W35045  15.854   7.805  10.900 -0.0024 -0.1978  0.0657
19237W        W35046  14.971  10.606  13.413  0.1357  0.2250 -0.0155
19238W        W35047   4.990  17.421   9.268  0.0528 -0.1218 -0.1959
19239W        W35048  16.436   5.482   3.011  0.3333 -0.2514  0.0836
19240W        W35049  13.245   2.531   2.913 -0.0081  0.1418  0.2036
19241W        W35050  12.399   3.349  10.851 -0.1639  0.1284  0.0706
19242W        W35051  13.112   5.338   3.280  0.0799 -0.1921  0.3559
19243W        W35052  12.620  11.568   1.484 -0.0931  0.1303 -0.2957
19244W        W35053   6.990  13.402   2.509 -0.1865 -0.0033 -0.1780
19245W        W35054  14.780   4.809  12.340  0.0155  0.0844  0.0617
19246W        W35055  10.822  14.120   1.890 -0.1538 -0.1568 -0.3549
19247W        W35056  17.965   9.765  15.263 -0.5294  0.1451  0.0543
19248W        W35057  14.495   0.017  12.317 -0.4339  0.1556 -0.1790
19249W        W35058   8.620  11.081  11.349  0.0981 -0.0196  0.0028
19250W        W35059  17.724   3.999   3.119  0.2671 -0.1436 -0.1292
19251W        W35060  15.994  12.062   1.106 -0.2299  0.1773  0.0485
19252W        W35061  17.904   4.450   3.845 -0.2853 -0.0020 -0.0177
19253W        W35062   6.705  14.957   4.503  0.1569 -0.1225 -0.3010
19254W        W35063   3.151   2.116   3.049 -0.0789  0.2533  0.5489
19255W        W35064   2.012  10.762   0.102 -0.0833 -0.2782  0.1968
19256W        W35065  16.261   8.757  11.850  0.2055 -0.0423  0.1512
19257W        W35066  11.251  10.564   4.850 -0.0574  0.2183 -0.3576
19258W        W35067  17.132   4.669  14.076  0.0215 -0.2726 -0.1669
19259W        W35068   1.289  16.883  11.542 -0.1816 -0.1182  0.1192
19260W        W35069  10.303   8.004  12.404  0.0780 -0.3206 -0.1288
19261W        W35070   4.263   2.188  12.145  0.1217  0.0965 -0.0497
19262W        W35071   3.699  18.903  11.487  0.0042 -0.2961  0.1356
19263W        W35072   2.774   6.765  13.374  0.0346  0.0396  0.0896
19264W        W35073  14.601  18.183  11.682  0.0205  0.1054 -0.1050
19265W        W35074  13.405   4.801   2.477  0.2581  0.1139  0.4097
19266W        W35075   0.367   0.164  13.389 -0.1720 -0.0418 -0.2140
19267W        W35076  10.971   2.823   3.225 -0.0789 -0.0939 -0.2298
19268W        W35077  10.683  11.173   1.412  0.1546  0.2387 -0.1495
19269W        W35078  16.318   9.930   1.507  0.3768  0.0259  0.1971
19270W        W35079  10.807  12.786   1.897 -0.3046  0.3061 -0.0460
19271W        W35080  12.001  11.831   4.810  0.3607 -0.0490  0.0576
19272W        W35081  12.059  17.331   3.436  0.1562  0.1287  0.2890
19273W        W35082  17.484   9.046  12.231 -0.0493 -0.0348 -0.1547
19274W        W35083   7.786   7.330   1.562 -0.1563 -0.0467 -0.1903
19275W        W35084  14.542   7.530  12.669 -0.1829 -0.3067  0.1569
19276W        W35085   7.010   9.417   0.370  0.0531  0.2891  0.4188
19277W        W35086  13.287  13.255  14.575 -0.0863  0.1045 -0.0063
19278W        W35087  18.364   8.495   2.219  0.1415  0.1265 -0.0715
19279W        W35088   9.393  12.997   1.370 -0.0427  0.0975 -0.0715
19280W        W35089  10.848  16.675   2.646  0.0343  0.3943 -0.2207
19281W        W35090  12.307   3.698  11.716 -0.0698 -0.0420 -0.5076
19282W        W35091  15.739  18.423   0.361  0.1294  0.0141  0.0932
19283W        W35092  15.374  15.504   0.864 -0.1588  0.1355  0.0757
19284W        W35093  11.968   8.183  14.468  0.2085  0.1453 -0.3160
19285W        W35094   4.800  11.353   4.340  0.2477  0.0970 -0.2220
19286W        W35095   2.704  16.709  14.145  0.0290  0.1582 -0.0098
19287W        W35096   8.812  14.253   4.841 -0.0812  0.1683 -0.1276
19288W        W35097   0.476  13.321  12.749  0.0192 -0.4444  0.1460
19289W        W35098  10.793  10.279   4.765 -0.1447 -0.0917 -0.1285
19290W        W35099  15.284   2.704  12.264 -0.2060  0.1777  0.4364
19291W        W35100   9.565   0.091  13.682  0.2959  0.2955 -0.2444
19292W        W35101  18.201  10.090   2.907  0.0727 -0.2635 -0.1190
19293W        W35102  17.101   0.036   4.516  0.2114  0.2805 -0.1735
19294W        W35103  11.269   6.178   0.569  0.1472 -0.2554 -0.0355
19295W        W35104   6.667   4.329   4.794  0.1256 -0.2398  0.0940
19296W        W35105  15.110  11.922  15.407  0.0208  0.1727 -0.2385
19297W        W35106   3.473   6.726  14.216  0.0697 -0.1881 -0.3190
19298W        W35107   1.775  14.055  10.635  0.0614 -0.1276  0.1644
19299W        W35108   0.042  12.105   2.958 -0.1701  0.1230 -0.0235
19300W        W35109   2.383   8.859   1.897  0.1065  0.2064  0.1287
19301W        W35110  16.518   1.721  14.388 -0.0297 -0.0608  0.2240
19302W        W35111   8.291  11.373   4.221 -0.3125  0.0452  0.0150
19303W        W35112   6.477  16.710  10.161  0.1298  0.0123 -0.2156
19304W        W35113   6.322   9.929  12.618  0.0691  0.0120  0.0418
19305W        W35114   4.950  13.494  12.317 -0.0024 -0.3459  0.1410
19306W        W35115   7.182  10.455   1.869  0.0807  0.0845 -0.0583
19307W        W35116  13.861  16.903  11.941 -0.2922  0.5273  0.0716
19308W        W35117  13.639   8.785   2.678 -0.2343 -0.5677 -0.0808
19309W        W35118   0.659   6.088   2.550 -0.4209 -0.1145  0.1616
19310W        W35119   5.151  15.923   0.450  0.0498 -0.2673  0.2609
19311W        W35120   5.325  18.283  12.340 -0.3720  0.0514  0.0142
19312W        W35121  14.776  17.767   3.822 -0.0466  0.1150 -0.2504
19313W        W35122   8.363   1.353   4.739  0.0010 -0.0099 -0.0363
19314W        W35123   6.489   5.652  10.412  0.1008 -0.0023 -0.2066
19315W        W35124   1.089   6.120   4.457 -0.1670 -0.2909  0.0914
19316W        W35125   1.316  17.176   4.922  0.0067  0.2007  0.0006
19317W        W35126   7.308  15.226   4.472 -0.1430 -0.3612  0.0052
19318W        W35127   7.701  14.638  15.138 -0.0430  0.1225  0.3062
19319W        W35128  13.745   1.219  15.333 -0.2453  0.0370 -0.0292
19320W        W35129  11.596   5.321  13.020 -0.0522 -0.3989  0.1330
19321W        W35130   6.204   1.051   2.519  0.1740 -0.1313 -0.4669
19322W        W35131   8.784  14.917   2.026  0.0719  0.3504 -0.3817
19323W        W35132  15.852  17.863   1.666  0.3031 -0.0412  0.2382
19324W        W35133  17.642  13.057   0.226 -0.0422  0.4738  0.1306
19325W        W35134  18.684  16.352  11.148  0.0610  0.1740 -0.2871
19326W        W35135  17.920  11.204   9.909  0.1847 -0.1066  0.1302
19327W        W35136  15.583   7.069   4.602  0.2730 -0.0314 -0.0106
19328W        W35137   7.073  13.765  12.050 -0.0314 -0.2593 -0.2227
19329W        W35138  13.296   5.876  11.843 -0.0356  0.1339  0.1389
19330W        W35139  14.097  10.635  15.397 -0.0554  0.2503  0.1075
19331W        W35140   7.034  17.269  14.813 -0.1534  0.0388  0.3214
19332W        W35141   8.232   9.071   0.562 -0.0873 -0.0330  0.3738
19333W        W35142  16.560   6.231   0.685  0.1992 -0.1049 -0.2988
19334W        W35143  14.456   6.004   1.637 -0.2162 -0.1518  0.2106
19335W        W35144   7.394  12.152   3.513 -0.0615  0.0168 -0.2896
19336W        W35145   4.838   5.765  11.394  0.1350  0.0016  0.0856
19337W        W35146   3.964   9.176  10.564  0.0153 -0.0903 -0.0783
19338W        W35147   8.404  12.553  12.516  0.1885  0.2896 -0.0037
19339W        W35148  16.848  14.763   0.243  0.4061  0.1743 -0.0867
19340W        W35149  11.314  14.692  12.695 -0.0736  0.3387  0.3128
19341W        W35150  12.064  13.494   0.113  0.1235  0.2177  0.0205
19342W        W35151   3.614  10.203   5.098 -0.2467 -0.0710 -0.4076
19343W        W35152   3.745  12.488   9.642 -0.1722  0.0593  0.0411
19344W        W35153  13.208   8.048  14.731  0.3727  0.0822 -0.1120
19345W        W35154  18.272  15.480   0.088 -0.0725  0.0865 -0.0721
19346W        W35155   1.070   1.589  13.139 -0.2112 -0.0258 -0.1123
19347W        W35156  18.517  10.243  14.572 -0.1774 -0.0866  0.1808
19348W        W35157   0.491   6.699   0.623 -0.1182 -0.3131  0.1540
19349W        W35158  11.688  10.674  13.212 -0.0486 -0.0293  0.0416
19350W        W35159   8.863   5.819  13.000  0.1538  0.1037 -0.1296
19351W        W35160   2.897   4.242   4.152  0.1296 -0.2957 -0.0929
19352W        W35161  15.491   8.781   1.594  0.0313  0.0799 -0.0542
19353W        W35162   3.605   5.772   0.180  0.0776 -0.2662  0.2667
19354W        W35163   3.465  10.042  11.372 -0.0111 -0.0118  0.0921
19355W        W35164   4.953   1.553  13.300  0.0638 -0.0045  0.1053
19356W        W35165   8.408   4.769  10.483  0.2124 -0.0347  0.3284
19357W        W35166  10.877   5.883   2.542  0.0682  0.2496  0.1753
19358W        W35167  14.007  15.446  13.734  0.0863 -0.0501 -0.3307
19359W        W35168  15.075  12.823   1.014  0.1332  0.1347  0.5256
19360W        W35169   1.288   9.139  14.351 -0.2964  0.0991 -0.0053
19361W        W35170   7.056   0.767   1.267  0.4093  0.0082 -0.2864
19362W        W35171   4.303  17.415   4.565 -0.1726  0.1550 -0.0027
19363W        W35172  17.688   9.368  15.244  0.1109  0.0111  0.2118
19364W        W35173  17.236  13.768   9.683  0.2027  0.0380 -0.4767
19365W        W35174   5.469  17.734   3.742  0.2107  0.1562  0.3785
19366W        W35175  11.404   1.677   3.902 -0.2823  0.0889 -0.2443
19367W        W35176   9.046  10.277   2.363 -0.1003  0.1288  0.1073
19368W        W35177  17.293   3.282  11.706 -0.0557  0.1135 -0.2758
19369W        W35178   5.048   1.108   4.813 -0.1917 -0.3983  0.1895
19370W        W35179   0.513   9.115   2.301 -0.0590 -0.1767 -0.1025
19371W        W35180  17.525   2.693  10.639 -0.3192 -0.0989 -0.2209
19372W        W35181  15.975   8.488   0.371  0.2938 -0.0091  0.2673
19373W        W35182   4.509   2.057   0.874  0.1503 -0.2017 -0.1280
19374W        W35183  10.909  16.972  14.194 -0.0835 -0.3363  0.1601
19375W        W35184   1.886   5.859   2.386  0.1127 -0.1338  0.0042
19376W        W35185  18.376  11.776   5.142 -0.5053 -0.1379  0.4306
19377W        W35186  13.201  11.178  11.968 -0.0620 -0.0992  0.2850
19378W        W35187   2.282   5.053  10.726  0.0541  0.0295  0.2152
19379W        W35188   4.541   7.637   0.393 -0.3480  0.0841  0.1588
19380W        W35189   8.591  14.517   4.075 -0.2752 -0.1128 -0.2182
19381W        W35190   6.086   8.149   3.843 -0.0346  0.0817 -0.0749
19382W        W35191  17.479   5.598   4.255 -0.0544  0.1330  0.0042
19383W        W35192   0.409  17.551  14.897 -0.0454  0.0817  0.2186
19384W        W35193   3.743  17.183   4.230  0.1992  0.2605 -0.1566
19385W        W35194   4.057  14.168   4.565  0.1274 -0.1069  0.0359
19386W        W35195   4.227   5.622   3.934 -0.0748 -0.3388  0.1517
19387W        W35196   4.662   1.027  12.369  0.0178 -0.1867 -0.0171
19388W        W35197  15.541   2.397  15.183  0.1163  0.1034  0.0166
19389W        W35198   0.395   1.935  12.056  0.0195  0.2509 -0.2464
19390W        W35199  14.566  12.878  15.318  0.2704  0.0734 -0.1665
19391W        W35200  15.841  15.584   3.020  0.1825  0.0007  0.0749
19392W        W35201  11.374   9.709   1.617  0.2015 -0.1428  0.2424
19393W        W35202  15.959   8.952  12.747  0.2913  0.6653  0.0583
19394W        W35203  11.904   4.000   2.822 -0.3734  0.2191 -0.1726
19395W        W35204  17.153   7.043   0.388 -0.0482 -0.0263  0.0004
19396W        W35205   8.480  18.101   4.777  0.1660 -0.1745  0.1223
19397W        W35206   2.275   4.046  12.565  0.0062 -0.0534  0.2579
19398W        W35207   7.819   1.018  12.748  0.2837 -0.0290 -0.2454
19399W        W35208  16.362   1.930   4.003 -0.1852  0.0362  0.0850
19400W        W35209   5.178  12.076   5.331 -0.1458  0.0293 -0.1042
19401W        W35210  10.183   6.139  13.290  0.1573  0.0808 -0.1701
19402W        W35211   9.283   1.939   1.436 -0.0243  0.1842 -0.0454
19403W        W35212  10.702   9.905   2.788 -0.1288 -0.0151 -0.0664
19404W        W35213   3.558   1.127   0.113  0.2047  0.1705 -0.3009
19405W        W35214   7.007   2.278   1.274  0.0553 -0.2279  0.2511
19406W        W35215   8.467   9.567   4.447 -0.0091 -0.0178  0.2867
19407W        W35216   4.939  15.159  13.877  0.1097  0.2494  0.2083
19408W        W35217  12.572   7.213  10.999 -0.3565  0.1236 -0.2704
19409W        W35218  17.289  17.989  14.612  0.1710 -0.2150  0.3018
19410W        W35219   9.706   7.894   0.907 -0.3112  0.1022  0.0411
19411W        W35220  13.697   3.922   2.285 -0.1619 -0.1127  0.1182
19412W        W35221  16.843   2.469  15.291 -0.0292 -0.0460 -0.2613
19413W        W35222   1.300   7.923  11.528 -0.0211 -0.4184  0.1331
19414W        W35223   5.947  14.702   3.973  0.0757  0.1477  0.1968
19415W        W35224  14.280   6.961   1.946 -0.0266  0.1545 -0.1938
19416W        W35225  12.700  12.342  14.761 -0.2731 -0.0650 -0.0222
19417W        W35226   4.369   2.295   5.355 -0.1528 -0.0250 -0.1770
19418W        W35227  12.369   6.341   2.647  0.2601 -0.1624 -0.0204
19419W        W35228  10.583  16.409   4.703  0.1856 -0.0307  0.1543
19420W        W35229   2.530   4.689   1.818 -0.0413  0.0327 -0.1828
19421W        W35230  18.766   6.156  12.692  0.3344 -0.0185 -0.0802
19422W        W35231   5.026   9.555  13.062 -0.3729  0.0683  0.1783
19423W        W35232   0.227  17.566   9.808 -0.1243  0.0106  0.0470
19424W        W35233   1.170  10.771  13.157  0.2006 -0.1112 -0.3747
19425W        W35234   4.594   2.350   0.372  0.0042 -0.1918 -0.0095
19426W        W35235  14.821  13.334  10.804  0.0604 -0.1839  0.0088
19427W        W35236   9.922   0.595  14.947  0.0500 -0.5589 -0.2045
19428W        W35237   5.638  12.931   1.401  0.0445  0.2970  0.1023
19429W        W35238  12.101   9.321   5.041 -0.2211  0.0148 -0.0778
19430W        W35239   5.967   2.644   1.165  0.2121  0.0764 -0.1617
19431W        W35240   1.174   5.502  11.993  0.0851 -0.0403  0.4381
19432W        W35241   2.015  15.624  14.918  0.1779  0.0822 -0.1909
19433W        W35242   2.415   0.614   1.621  0.1174  0.0038  0.1384
19434W        W35243  15.137  13.886   2.219 -0.1272  0.1842  0.3270
19435W        W35244  13.225  10.266   2.372  0.0820  0.0702 -0.2193
19436W        W35245   9.874  11.338  11.419 -0.1479 -0.0681  0.1701
19437W        W35246  11.428   5.658  10.466  0.1484 -0.2171 -0.2110
19438W        W35247   2.619   8.889   1.325 -0.1191  0.2134 -0.1162
19439W        W35248  11.029  16.111   1.889  0.3393  0.0170  0.0069
19440W        W35249   4.717   9.620  10.226 -0.0585  0.1543 -0.1638
19441W        W35250   7.376   4.819   5.013  0.0872  0.0697  0.0006
19442W        W35251  10.326  13.622  11.072 -0.0240  0.1443 -0.1335
19443W        W35252  11.755  13.886   2.316 -0.1703  0.2439  0.0180
19444W        W35253  15.236   7.368  14.473 -0.1732  0.5171  0.0870
19445W        W35254   3.071  18.052  10.182  0.2712  0.1495  0.0786
19446W        W35255   1.454  17.496  13.677 -0.0920  0.0261 -0.2021
19447W        W35256  14.629   5.164   1.978  0.1008 -0.1367 -0.3063
19448W        W35257   1.863  15.355   3.320  0.1704 -0.0344 -0.2696
19449W        W35258   1.644   2.338   2.001  0.1060  0.2028  0.1960
19450W        W35259   3.979   7.523  13.970 -0.2197 -0.1679 -0.2687
19451W        W35260  10.783   2.265   5.284  0.1786 -0.1408  0.0674
19452W        W35261   6.310  17.918  12.813 -0.0493  0.1122  0.0038
19453W        W35262   9.654   5.244  12.897  0.0224 -0.1557  0.0144
19454W        W35263   3.129  12.103   3.757 -0.0547 -0.1104 -0.2105
19455W        W35264   0.055   9.960  14.123  0.0966 -0.2434 -0.1231
19456W        W35265  15.452  17.713  15.055 -0.2468  0.1920  0.0400
19457W        W35266   5.637   9.619  12.269 -0.1969 -0.4268  0.0457
19458W        W35267  17.124   1.366   1.382 -0.4706  0.3654  0.1482
19459W        W35268  11.506   2.599  12.314  0.0023 -0.1175  0.3082
19460W        W35269  12.951   8.444   0.601  0.1651 -0.0115  0.0104
19461W        W35270   3.454  16.672   2.927 -0.1420  0.1582  0.0099
19462W        W35271   0.938   9.853   4.280 -0.1141 -0.0660 -0.2492
19463W        W35272   6.188  14.818  13.994 -0.0785  0.0026 -0.0777
19464W        W35273   8.596   9.432  10.682 -0.0245  0.2308  0.1447
19465W        W35274   0.604   4.771   4.622  0.0827 -0.0772  0.1761
19466W        W35275   7.388   7.080   2.473  0.1224  0.2387 -0.0677
19467W        W35276  15.399   9.260   5.244  0.2684  0.0280 -0.2402
19468W        W35277   1.725   3.366  14.718  0.2115  0.0592  0.0253
19469W        W35278  16.095   2.264  12.779 -0.3334 -0.0368 -0.2698
19470W        W35279   2.159  14.679   3.731 -0.1227 -0.1769  0.1642
19471W        W35280  12.263  11.849   0.747 -0.4202 -0.1762 -0.1327
19472W        W35281  10.558   3.685  14.699 -0.0359  0.0455 -0.1723
19473W        W35282   2.601  17.681  13.314  0.1242  0.3955  0.2473
19474W        W35283  13.457   4.791  11.966 -0.1312 -0.0911  0.1421
19475W        W35284  14.972   8.852  11.660 -0.2486 -0.4656 -0.2185
19476W        W35285  17.107   5.449   3.155 -0.0055 -0.0795  0.0551
19477W        W35286  17.233   3.928   2.273  0.0382  0.1460 -0.1738
19478W        W35287   0.693   4.240  11.171 -0.0395 -0.1893  0.0175
19479W        W35288  18.502   6.420  11.211  0.0222  0.0905  0.1682
19480W        W35289  11.793   5.638   4.868 -0.0732 -0.2344  0.3759
19481W        W35290   6.565   8.216   1.573  0.3859  0.1412  0.0591
19482W        W35291   3.786   7.496  13.043  0.0930  0.2275 -0.0689
19483W        W35292  14.936  15.101  14.047  0.0651 -0.0905  0.0931
19484W        W35293  15.400   5.223  11.804  0.4179 -0.3326 -0.1540
19485W        W35294   3.814   8.226  12.544  0.0253 -0.0308  0.0245
19486W        W35295  15.686  10.629  11.150  0.1071 -0.1026 -0.2044
19487W        W35296   0.512   4.338   4.817 -0.2994 -0.4704  0.0100
19488W        W35297  10.665   2.870  12.487 -0.0176  0.0449  0.1126
19489W        W35298  13.925  10.404  14.988 -0.1292 -0.4119  0.1145
19490W        W35299  16.218  15.249   1.664 -0.0108 -0.0623  0.1637
19491W        W35300  12.352   8.796   0.967  0.0445 -0.1149 -0.0669
19492W        W35301  12.569  11.643  10.730  0.2295 -0.0331 -0.0323
19493W        W35302  18.588   6.929   0.224  0.0452  0.3649 -0.2837
19494W        W35303   9.965  12.600  15.155 -0.0553  0.1929 -0.2920
19495W        W35304   4.323   4.960  10.839 -0.2544  0.0150  0.0938
19496W        W35305   3.185   0.994  14.425 -0.1177 -0.1164 -0.0836
19497W        W35306   8.416  17.679  12.768  0.2715 -0.1639 -0.1896
19498W        W35307  17.084  10.549  10.511  0.2801 -0.5011  0.2079
19499W        W35308   2.123   8.468   4.171 -0.1152  0.3501  0.0183
19500W        W35309   4.116  18.159  11.189  0.1811 -0.3791 -0.3979
19501W        W35310   6.925  12.588   0.407  0.2354  0.2096 -0.2569
19502W        W35311  17.137  10.954  13.539 -0.2029  0.0093  0.1501
19503W        W35312   8.476   7.838   9.884 -0.0681 -0.3889 -0.0617
19504W        W35313   5.440  10.369   2.667  0.1365 -0.2056  0.1333
19505W        W35314   0.426  12.181   3.411 -0.1079 -0.0821  0.0840
19506W        W35315  14.141   5.454   5.435  0.0133  0.0041 -0.2010
19507W        W35316  12.612  16.269   2.185 -0.2428  0.1680  0.2641
19508W        W35317   4.977  12.426   1.451 -0.4010  0.3444 -0.0692
19509W        W35318   0.270   6.932   4.911 -0.0005 -0.2046 -0.0822
19510W        W35319  17.917  17.857   3.567 -0.2789 -0.0360  0.0289
19511W        W35320   7.959   3.013   1.417  0.0757 -0.3107 -0.0318
19512W        W35321   6.083  15.644  14.394 -0.1438  0.0477  0.0830
19513W        W35322   2.936   8.805  13.450 -0.1931 -0.3136 -0.0979
19514W        W35323   9.554   1.074  10.687  0.0376  0.1962  0.0171
19515W        W35324  15.258  11.650   0.845 -0.2415  0.0512 -0.0291
19516W        W35325   8.570   9.517  13.842  0.0457  0.2188  0.0413
19517W        W35326  11.592  17.750   3.931  0.0415  0.2384  0.1205
19518W        W35327   7.820   9.509  14.971 -0.1861  0.0513  0.1371
19519W        W35328   4.079  11.221  15.045 -0.2978 -0.3021 -0.1038
19520W        W35329  10.152   1.427  11.814  0.2546 -0.4436  0.0492
19521W        W35330  12.490  16.589  15.298  0.2081  0.1719  0.2522
19522W        W35331   0.343  17.761   0.486 -0.1217  0.1216 -0.1201
19523W        W35332  15.159  16.420  12.694  0.2930  0.2727 -0.2910
19524W        W35333   6.865  17.311   2.188 -0.0527  0.1686  0.2997
19525W        W35334   2.411  16.479   4.571  0.1914 -0.1235 -0.1667
19526W        W35335  13.612  18.618  14.901 -0.1069  0.1298  0.1969
19527W        W35336   4.911  12.259  12.948  0.1895 -0.3181  0.3524
19528W        W35337   0.775   1.160  12.732  0.3437 -0.0295  0.1564
19529W        W35338   5.376   1.904   1.400  0.2002 -0.3426  0.3049
19530W        W35339  10.769  18.712  10.660 -0.1744  0.2645 -0.1664
19531W        W35340   7.396   0.231  10.689 -0.2794  0.1996 -0.0058
19532W        W35341   1.831  11.820  13.418 -0.0716  0.1544 -0.1193
19533W        W35342   9.642  11.487  13.757 -0.0027  0.0626  0.0067
19534W        W35343   1.572  13.357  14.029 -0.0148  0.0225  0.1131
19535W        W35344   9.960   4.954  10.745  0.3819  0.0848  0.1101
19536W        W35345   8.178  11.721   4.606  0.4898  0.0063  0.2020
19537W        W35346   0.005   1.181   3.880 -0.1956 -0.0066  0.3170
19538W        W35347   6.357  10.883   4.367 -0.6097  0.2105  0.2214
19539W        W35348  14.782  17.092  11.694 -0.1251 -0.1024 -0.2820
19540W        W35349   9.899   2.435  12.088  0.1011  0.4627 -0.0272
19541W        W35350   5.510  12.762  12.149  0.0232 -0.1065 -0.0067
19542W        W35351   4.298   3.291   1.937 -0.0203 -0.1176  0.0455
19543W        W35352   6.543  11.521  12.131  0.1358 -0.2370  0.1097
19544W        W35353  13.444  17.823  13.637  0.1219  0.0528  0.1158
19545W        W35354   3.328   2.926  14.413 -0.0960 -0.0564  0.0487
19546W        W35355  15.668  11.386   0.617 -0.1780 -0.0089  0.2248
19547W        W35356  16.228  15.199   3.051 -0.0278  0.1166  0.0041
19548W        W35357   2.646   4.711  13.683  0.1273 -0.2867  0.0754
19549W        W35358   9.206   1.267  15.199 -0.1231 -0.1557 -0.1772
19550W        W35359  16.201   9.788   3.309 -0.1923  0.1532  0.3561
19551W        W35360  10.452   5.230  15.080  0.0784  0.0116 -0.0872
19552W        W35361  17.359   6.498   1.562  0.1403 -0.1455  0.1840
19553W        W35362  16.683   4.078   3.158  0.1936 -0.3137  0.2514
19554W        W35363  10.164  18.586   5.424  0.0237 -0.1570 -0.2924
19555W        W35364   5.311  14.696  11.203 -0.0015  0.3820  0.0396
19556W        W35365  11.060  16.185   0.140 -0.1514  0.1582 -0.1920
19557W        W35366  11.080  13.096   4.214  0.0370  0.4394 -0.2470
19558W        W35367  11.557  11.597  14.397  0.0321 -0.2040 -0.0114
19559W        W35368   0.435   9.667   2.478  0.1455 -0.2050  0.2694
19560W        W35369   7.768  12.916  13.680 -0.2776 -0.1844  0.0463
19561W        W35370   0.809   4.354   4.391 -0.0171 -0.0985 -0.1787
19562W        W35371   2.512  16.024  10.984  0.1065  0.1092  0.0994
19563W        W35372  12.856  10.688  12.565 -0.0269  0.1394 -0.1873
19564W        W35373   1.296   2.311   0.503 -0.1301 -0.0447  0.1022
19565W        W35374  17.846   3.503   5.092  0.1295 -0.1011 -0.0466
19566W        W35375   2.683   5.466   1.311 -0.0147  0.0666  0.1156
19567W        W35376  16.686  17.232   4.037 -0.1382 -0.5408 -0.0724
19568W        W35377   9.620   7.790   2.869  0.3989  0.1339 -0.1734
19569W        W35378   1.647  15.586  11.523 -0.2683 -0.2075  0.0286
19570W        W35379  17.031   4.257  15.198  0.0463  0.1096 -0.0077
19571W        W35380  12.239  14.508   4.272  0.2132 -0.0270 -0.0955
19572W        W35381   6.220   6.748  12.787 -0.1925 -0.2820 -0.0232
19573W        W35382   9.492  13.147   1.942  0.1143 -0.2964  0.0056
19574W        W35383   2.901  18.443  13.554  0.0162 -0.3132 -0.1582
19575W        W35384   9.957   9.851  11.295  0.1613 -0.2306 -0.1905
19576W        W35385   2.882  11.709   3.911 -0.0919  0.2619 -0.0721
19577W        W35386   9.343  15.646   4.815  0.0230 -0.3053  0.0253
19578W        W35387   5.799   5.780  13.891  0.2828 -0.1272 -0.0184
19579W        W35388  13.402  11.644   4.215  0.0498 -0.2230 -0.0600
19580W        W35389   1.664  16.368   0.946  0.0758 -0.0949 -0.4878
19581W        W35390  18.038   6.337  13.706  0.1235  0.0689 -0.0060
19582W        W35391  17.340   5.163   4.526 -0.2214  0.2623 -0.0551
19583W        W35392   7.514   0.180  12.494  0.4519 -0.1485 -0.2570
19584W        W35393  11.326   5.503   4.199 -0.1643 -0.3389 -0.3715
19585W        W35394   9.034   8.258  13.743 -0.2687  0.2926  0.1452
19586W        W35395   7.849   7.760  14.351 -0.0145 -0.0223 -0.0446
19587W        W35396   3.503  17.124  14.085  0.2673 -0.2267 -0.1712
19588W        W35397   5.252  17.159   4.304 -0.3210 -0.1299 -0.0302
19589W        W35398  10.708  14.225   3.868 -0.1505 -0.2003 -0.2167
19590W        W35399  14.930   7.746  14.568  0.4350 -0.0597  0.1138
19591W        W35400   1.379  14.050  15.374 -0.0421  0.1047 -0.1483
19592W        W35401   8.530   5.043  13.502 -0.1295  0.2118  0.0674
19593W        W35402   3.140   9.113   4.082  0.2412  0.0587 -0.5075
19594W        W35403   5.577   2.409   1.570 -0.1066  0.4349 -0.1097
19595W        W35404  18.604   8.255   3.920  0.1537  0.0072 -0.5225
19596W        W35405   4.065   5.369   0.909 -0.0513  0.2436 -0.0166
19597W        W35406   8.290   9.330   3.949 -0.4229 -0.0563 -0.0612
19598W        W35407  12.214   3.423   4.946 -0.0601  0.0738  0.1516
19599W        W35408   9.167  18.814  14.907 -0.2380 -0.1021 -0.0095
19600W        W35409   7.358  11.663   2.535  0.2425  0.2667 -0.1513
19601W        W35410  11.860   8.613   4.587 -0.1462  0.1762  0.1153
19602W        W35411  16.353  11.716  13.493  0.1689 -0.1271 -0.2071
19603W        W35412   8.056  10.357   5.374 -0.1979 -0.1064 -0.1192
19604W        W35413   5.784   3.144  13.807  0.1301  0.2962 -0.0363
19605W        W35414   6.439  17.394   4.121 -0.0595  0.3844 -0.1685
19606W        W35415  14.678   8.702   5.070  0.1809 -0.0398  0.2639
19607W        W35416  11.552  17.759  11.377 -0.3377  0.2084  0.1196
19608W        W35417   4.350  17.002  15.011 -0.4673  0.0265 -0.1882
19609W        W35418   2.229  17.328  11.677  0.3284 -0.0572 -0.0327
19610W        W35419   2.783   3.394  14.981  0.0193  0.1906 -0.1434
19611W        W35420  16.360   9.131   1.797  0.0460 -0.2826 -0.3463
19612W        W35421   6.994   7.486  11.758 -0.0019 -0.1531 -0.4099
19613W        W35422  10.761   2.475   1.894  0.0279  0.0444 -0.0482
19614W        W35423  17.559   0.612   9.914 -0.0128  0.0040  0.2633
19615W        W35424  11.408  16.368   5.276  0.1182 -0.1361  0.0458
19616W        W35425   5.493   9.494  10.141  0.1616 -0.1075 -0.1562
19617W        W35426  18.432   9.417   1.198  0.1396 -0.0451  0.2408
19618W        W35427  17.039  12.208   2.581 -0.5489  0.0400  0.0582
19619W        W35428   6.956   3.264  10.603  0.2637  0.1258 -0.0268
19620W        W35429   1.707   1.032   1.027  0.2498 -0.1156 -0.1968
19621W        W35430   3.227  16.769   4.345  0.0289 -0.1520 -0.1858
19622W        W35431   7.990   7.553   9.583 -0.0954  0.2023  0.0778
19623W        W35432  11.936  10.382   1.167 -0.3939 -0.3466  0.1602
19624W        W35433   1.507   6.865   9.910  0.1588  0.0787 -0.0454
19625W        W35434  18.468   0.530  12.851 -0.2069 -0.0480  0.0899
19626W        W35435  17.253   4.504  14.707 -0.0124  0.0375 -0.3531
19627W        W35436   6.997   4.725   4.587  0.0999 -0.2170 -0.2343
19628W        W35437  11.579   5.581   1.701  0.2913 -0.0823  0.1349
19629W        W35438   5.528   7.078  13.391  0.0730  0.1960  0.0794
19630W        W35439  11.450   0.429  10.544  0.0128  0.0756 -0.0027
19631W        W35440   3.276  18.473   1.686  0.2087 -0.0803 -0.0000
19632W        W35441  13.750   8.303   2.575  0.3807  0.0091  0.3444
19633W        W35442  11.403   7.337  13.587 -0.1751  0.3678  0.1939
19634W        W35443  17.787  18.301   4.845 -0.2454  0.2022  0.2048
19635W        W35444   2.168   9.737   4.549 -0.2715  0.1124 -0.0738
19636W        W35445   8.687   6.555  14.172  0.0661 -0.2335  0.1065
19637W        W35446  17.400  13.795   0.505  0.1279  0.3343  0.0901
19638W        W35447   1.070  17.884  11.732 -0.2074 -0.1502  0.2413
19639W        W35448  17.912   0.175  12.357  0.0766 -0.2397 -0.0922
19640W        W35449   2.636   9.328  14.913 -0.1281 -0.3072 -0.0397
19641W        W35450  14.816  11.383   4.528  0.0238  0.0611  0.1281
19642W        W35451  17.270   4.181   3.171 -0.0368  0.0168  0.1125
19643W        W35452   6.603   4.884   3.825 -0.0786  0.2690  0.1920
19644W        W35453  13.831  18.012   0.854  0.0537  0.6257  0.0948
19645W        W35454  11.279  14.487  13.148 -0.1143 -0.1166  0.0760
19646W        W35455  16.252  18.749  11.645  0.3246  0.1604 -0.4303
19647W        W35456   1.981   8.531   0.702  0.3371  0.0657  0.0287
19648W        W35457   0.660   4.190  13.851 -0.0016  0.1914 -0.1849
19649W        W35458   4.674  12.385  15.067 -0.0814 -0.2120  0.2372
19650W        W35459  15.149   5.950  13.022  0.2881 -0.4312 -0.0275
19651W        W35460   6.971  14.986   5.494 -0.2271 -0.3400 -0.1606
19652W        W35461   1.488  13.772  10.974 -0.0296  0.0405 -0.2016
19653W        W35462   8.833  17.855  13.176 -0.1057  0.1906 -0.2206
19654W        W35463  16.545   4.370  15.345 -0.2808  0.0162 -0.1418
19655W        W35464  15.526   5.413   0.491 -0.2808 -0.0285 -0.2390
19656W        W35465   4.836  11.174   2.865  0.1755 -0.4610 -0.1190
19657W        W35466  10.578   9.153   2.009 -0.3365 -0.2727 -0.2181
19658W        W35467   7.960  18.025   2.982  0.0091 -0.0856 -0.3475
19659W        W35468  10.884   0.118   3.428 -0.1388 -0.0803 -0.3503
19660W        W35469   6.098  16.937   0.455 -0.0287 -0.2173 -0.0422
19661W        W35470  14.855   4.259  14.924  0.2105 -0.1856 -0.1541
19662W        W35471   1.620   3.168  11.977 -0.1590  0.0846 -0.0147
19663W        W35472  10.872  15.632  13.361  0.0255  0.3212  0.3442
19664W        W35473   9.335  15.240  14.796  0.3085 -0.1753 -0.2141
19665W        W35474   8.284  16.216   5.160 -0.1114  0.0961  0.0570
19666W        W35475   6.579  14.479   1.418  0.2155  0.0939  0.0823
19667W        W35476  16.725   4.758  12.342 -0.1614 -0.0058 -0.1852
19668W        W35477   9.391   8.649  10.838 -0.4057 -0.0956  0.2888
19669W        W35478  10.483  12.469  13.040 -0.1627  0.0075  0.1648
19670W        W35479  17.407   2.606  11.520 -0.0003 -0.2599  0.1439
19671W        W35480   9.405  16.662   3.738 -0.0213  0.1700  0.2983
19672W        W35481  14.490   7.795  15.216 -0.0937  0.2010 -0.1454
19673W        W35482  13.949   9.504  12.040 -0.1902 -0.0777 -0.2217
19674W        W35483  12.349  15.116  11.942  0.0450  0.1454 -0.2825
19675W        W35484   2.606   2.290  14.514  0.0543  0.0211 -0.0193
19676W        W35485   3.194  10.311  12.951 -0.1191 -0.0836 -0.2139
19677W        W35486  14.555   5.412   5.159 -0.0639  0.1346 -0.1801
19678W        W35487   3.857   1.294   4.104 -0.2325 -0.0547 -0.0187
19679W        W35488  10.888  15.094   3.925  0.0946  0.0215  0.2174
19680W        W35489  17.443   1.098  10.096  0.0925 -0.0340  0.2912
19681W        W35490  10.958   8.384   4.052  0.0854 -0.0022  0.2889
19682W        W35491  11.505  17.967  13.705  0.0505  0.0341 -0.0587
19683W        W35492  12.336   7.521  13.698  0.0180 -0.3270 -0.1619
19684W        W35493   1.806  18.397  12.902 -0.1500  0.1339 -0.0650
19685W        W35494   6.731   1.229   4.081  0.1958  0.1165 -0.1082
19686W        W35495  17.149   1.362   9.775  0.1430  0.1092  0.0253
19687W        W35496  14.397  12.672  13.535  0.1932  0.0288  0.0643
19688W        W35497  15.660  11.349   2.867 -0.0409  0.1687  0.0203
19689W        W35498   4.825   5.001  11.660 -0.0273 -0.2525 -0.1594
19690W        W35499   0.416  11.407   1.770 -0.0872  0.2459  0.0966
19691W        W35500  10.686   8.464   5.981  0.0377  0.1689 -0.0018
19692W        W35501  16.995   6.249   1.281 -0.0060  0.2345  0.0365
19693W        W35502  16.599   5.647  11.367  0.1294  0.2112  0.0771
19694W        W35503   4.772   4.568  13.164  0.0541 -0.0529  0.1080
19695W        W35504   5.899  17.743   5.018 -0.2205  0.0161 -0.1465
19696W        W35505  12.140   3.387   3.972 -0.1017 -0.0504 -0.1182
19697W        W35506   0.913   6.191   4.908  0.2079  0.0514  0.0586
19698W        W35507  10.318  10.891   2.074  0.0891  0.3953  0.2890
19699W        W35508   7.556   1.605   2.881 -0.3914  0.0401  0.0455
19700W        W35509  16.890  12.042   4.158  0.0808  0.1164  0.0585
19701W        W35510   3.951  16.934  11.832  0.6323  0.1881  0.1087
19702W        W35511  18.670   4.275  15.204 -0.0925  0.1744  0.1752
19703W        W35512  17.276   3.656  10.501  0.1855 -0.2674 -0.3261
19704W        W35513  10.533  14.276  14.406  0.3281 -0.0689 -0.0178
19705W        W35514   9.778  17.476  13.015  0.1128  0.1562  0.2592
19706W        W35515   1.115  13.354   2.688 -0.1754  0.0671  0.0016
19707W        W35516  13.446   3.013   2.665 -0.0216 -0.2495 -0.2421
19708W        W35517   7.880  13.117  14.691 -0.3294  0.0846 -0.1908
19709W        W35518  16.338  12.156  12.621  0.0827 -0.1422  0.1253
19710W        W35519   0.746   7.167   3.520  0.0466  0.4146  0.0216
19711W        W35520   8.946  13.958  14.854  0.0496  0.0868  0.2245
19712W        W35521   9.684   0.856   4.799  0.1872  0.0539 -0.0327
19713W        W35522  12.975  16.279   0.757  0.1680  0.0070  0.1000
19714W        W35523  15.750   5.037   0.859  0.2051 -0.0709 -0.4239
19715W        W35524   7.497   9.013   3.670 -0.2163 -0.0651 -0.0748
19716W        W35525   5.967  15.244   3.048 -0.0387 -0.1456  0.1185
19717W        W35526   5.657  13.383   5.083 -0.1252  0.0208  0.0626
19718W        W35527   6.266   3.882   0.453 -0.3591 -0.2119  0.0964
19719W        W35528   2.359   9.996   2.186 -0.0563 -0.0011 -0.0553
19720W        W35529   1.904   7.414  10.829  0.1049  0.3378  0.2706
19721W        W35530   3.159  11.565  14.896  0.1776 -0.1787 -0.0915
19722W        W35531   0.795  13.048  13.529  0.2224 -0.1091  0.2693
19723W        W35532   0.772   2.229   0.151  0.0547 -0.3308  0.2242
19724W        W35533   3.309   5.868  15.170  0.1008 -0.5120 -0.2212
19725W        W35534   4.403   3.926  14.610 -0.2108 -0.1196 -0.3254
19726W        W35535  13.396  10.055  11.062 -0.1669 -0.4483 -0.4540
19727W        W35536   6.278  12.491  12.203 -0.2155 -0.2731 -0.1793
19728W        W35537  14.447  16.500   1.482 -0.1026 -0.4735  0.1866
19729W        W35538   0.922  13.583   0.517 -0.0754 -0.2600 -0.1303
19730W        W35539   4.002   9.858  14.764  0.0590  0.0610 -0.3997
19731W        W35540   3.913   4.008  14.583  0.0559  0.0663 -0.1195
19732W        W35541  14.776  16.791   0.982 -0.3134  0.0019 -0.0157
19733W        W35542  18.144  11.521  11.391  0.0928  0.0437 -0.2404
19734W        W35543   7.301   2.968   4.034  0.1633 -0.0203 -0.1375
19735W        W35544   5.541  17.014  14.150 -0.0120  0.2958 -0.1639
19736W        W35545   6.325  17.640  12.220 -0.2657  0.0429  0.0357
19737W        W35546  17.171   5.958   3.190 -0.0215  0.1283  0.0582
19738W        W35547   1.560   4.959   1.857  0.1042 -0.1227  0.1158
19739W        W35548  14.674   2.702  11.679  0.0410 -0.2636  0.3260
19740W        W35549   9.867   0.537   1.141  0.1497  0.0004 -0.3771
19741W        W35550   8.750   1.131  15.373 -0.0224 -0.3671  0.1590
19742W        W35551  10.699  11.287   3.115 -0.0048 -0.2203 -0.2527
19743W        W35552   9.395   8.443  12.291  0.1590 -0.0795  0.0436
19744W        W35553  14.482  16.328  11.455 -0.1209 -0.3491  0.3025
19745W        W35554  17.900  10.956   2.613 -0.0687 -0.3718 -0.0288
19746W        W35555  12.056  13.146  13.935 -0.2133 -0.0707 -0.0993
19747W        W35556   4.980  16.816  13.432  0.2294 -0.3868  0.3886
19748W        W35557  18.579  16.105   2.126  0.0828 -0.0693  0.1148
19749W        W35558  17.787   2.428   0.716 -0.1733  0.1294  0.3462
19750W        W35559  10.384  18.855   3.215  0.0939 -0.3044 -0.0851
19751W        W35560   0.887   4.707  11.188 -0.3659  0.0542 -0.2283
19752W        W35561  10.677   2.439  13.875 -0.0435 -0.0677 -0.0539
19753W        W35562   2.521   8.219  13.135  0.2964  0.1732  0.0251
19754W        W35563   9.100  17.231   3.147  0.2019 -0.1090  0.0635
19755W        W35564  15.679  14.542  12.669  0.1497  0.0936  0.0950
19756W        W35565  11.728   2.857  11.874  0.2578  0.2394  0.0519
19757W        W35566   3.632   4.874  13.479  0.2371  0.1808 -0.0978
19758W        W35567   6.049   5.510   0.608 -0.2339 -0.0032 -0.0797
19759W        W35568   7.537   9.258   5.563  0.1578  0.0784 -0.4651
19760W        W35569  16.909   7.926  10.735 -0.0459  0.0465 -0.0765
19761W        W35570   2.938   9.912   4.581 -0.0175  0.2907 -0.3356
19762W        W35571  10.399  16.966   5.340 -0.0629  0.2162  0.0692
19763W        W35572  14.954  18.517  11.541 -0.2112 -0.3094 -0.3901
19764W        W35573  11.639  10.765  12.338  0.3606  0.0364  0.0606
19765W        W35574   3.650   5.735  10.304 -0.3831 -0.1013 -0.1594
19766W        W35575   2.296  14.283  10.360  0.0919  0.2094 -0.0903
19767W        W35576  18.588   3.406   1.734 -0.0022  0.0762  0.0034
19768W        W35577  12.402  17.377   0.855 -0.0683  0.1118 -0.0500
19769W        W35578   2.334   4.615  12.469 -0.2389 -0.2992 -0.0119
19770W        W35579  12.087   2.914  13.764  0.2248 -0.0178 -0.0160
19771W        W35580   9.514  11.670   3.959 -0.0149  0.3443 -0.0570
19772W        W35581   2.055   2.475  14.920 -0.0967 -0.1671  0.2305
19773W        W35582  15.131  10.649   4.299 -0.1734  0.3745  0.1155
19774W        W35583   0.660  11.454  12.462 -0.4067 -0.0429  0.0184
19775W        W35584   6.987   8.814   2.146 -0.1982  0.1023  0.1251
19776W        W35585   9.466   5.876   3.419  0.6216 -0.0616  0.1149
19777W        W35586  16.681   8.145   5.257  0.0833  0.0250 -0.2098
19778W        W35587  10.664  11.092   0.900 -0.0336  0.3106  0.0101
19779W        W35588   5.092   1.279   0.713  0.2577  0.1218 -0.5069
19780W        W35589   1.576  17.606   0.675  0.0406 -0.0737 -0.0473
19781W        W35590  13.336   1.579   1.779 -0.2384  0.0946  0.2572
19782W        W35591   5.106   7.720   4.033 -0.0111  0.3336  0.5365
19783W        W35592  15.725   5.211  10.976  0.0876  0.1172  0.5763
19784W        W35593   7.112   4.658   2.659  0.0357 -0.2885  0.0118
19785W        W35594  14.445  18.790   6.142  0.4582  0.1385  0.0031
19786W        W35595  14.646   8.878  13.136 -0.0363 -0.4808 -0.0731
19787W        W35596   3.797  11.364  14.715  0.1655  0.0126 -0.3358
19788W        W35597   8.617   3.499   2.664 -0.3612  0.2504  0.0366
19789W        W35598   3.032  14.654  10.876 -0.0909 -0.0675  0.3846
19790W        W35599  17.963   7.803  14.170  0.0122 -0.0647 -0.0065
19791W        W35600   3.556   7.975   4.360  0.0808  0.1035 -0.2006
19792W        W35601  16.457  15.552  13.555  0.0424 -0.0019 -0.0240
19793W        W35602  12.967   2.503  13.433 -0.3218  0.5041  0.0016
19794W        W35603   8.432   5.841  12.572  0.1030 -0.0030 -0.1253
19795W        W35604   8.978  16.179   1.045 -0.1512 -0.3376  0.0176
19796W        W35605   9.463  15.378   4.371  0.0164 -0.0779  0.0052
19797W        W35606  17.986   0.868   5.087 -0.2646  0.1418 -0.2422
19798W        W35607   1.497   7.335  11.640  0.4649 -0.0170 -0.1589
19799W        W35608  10.021   7.640  12.192 -0.1337  0.0884 -0.1706
19800W        W35609   1.972  16.124  14.760 -0.0693 -0.0959  0.0219
19801W        W35610   1.820   0.955   3.257  0.4713 -0.1941  0.3172
19802W        W35611   4.530  13.652   5.101  0.4167  0.0045 -0.0012
19803W        W35612   5.227  15.960   4.457 -0.1203 -0.1091  0.0032
19804W        W35613   3.788   0.524   4.761 -0.1482 -0.4248 -0.0544
19805W        W35614  16.365   7.462   3.283  0.0753  0.4119 -0.0383
19806W        W35615   0.665   3.222   2.567  0.0642 -0.0304  0.0775
19807W        W35616   3.443  10.243  12.386 -0.1255  0.0150  0.1130
19808W        W35617   5.382  13.680  12.480  0.1145  0.2231 -0.0129
19809W        W35618   8.614   4.559   2.204 -0.0433  0.1972 -0.0538
19810W        W35619  14.417  14.206  14.981  0.1808 -0.0029 -0.1709
19811W        W35620   3.622   4.332   0.284 -0.1389  0.1004 -0.2464
19812W        W35621   1.774   2.136   4.527 -0.0659  0.2640 -0.3646
19813W        W35622   9.183   1.161   2.889 -0.2937 -0.0900 -0.3905
19814W        W35623   2.979   7.334  13.988 -0.0480  0.1203  0.0680
19815W        W35624   3.375   3.265   2.256 -0.0673  0.0791  0.0205
19816W        W35625   4.754   6.778  11.815  0.0229 -0.1053  0.0972
19817W        W35626  13.824   2.855  10.616 -0.1342 -0.3174  0.1766
19818W        W35627  10.391   8.044  11.298 -0.2611 -0.0322  0.1367
19819W        W35628   2.351  14.045   0.816  0.0585 -0.1089 -0.1173
19820W        W35629   4.774  16.756   2.028  0.1193  0.4213 -0.1624
19821W        W35630  18.153   8.153  11.108  0.0842 -0.1468 -0.0262
19822W        W35631  14.001   8.703  11.925  0.1328 -0.0135 -0.2777
19823W        W35632   8.762   2.943  12.748 -0.2340 -0.0843 -0.1166
19824W        W35633  11.368   0.886  14.923 -0.2553  0.1226  0.4752
19825W        W35634  17.730  11.606  10.689 -0.0851 -0.1811  0.0882
19826W        W35635  18.634   6.401   3.542  0.0193 -0.0241  0.4100
19827W        W35636  18.043   2.785  15.224 -0.4233 -0.0874  0.0031
19828W        W35637  11.524  16.204   3.687  0.2330  0.1017  0.1811
19829W        W35638  15.253   9.910   1.848 -0.0586  0.0878 -0.3695
19830W        W35639  17.538  13.699  10.517  0.2368 -0.1451  0.1820
19831W        W35640   7.221   9.903   1.171 -0.1238  0.3265  0.1048
19832W        W35641  10.414  14.800   3.716  0.0087  0.1747 -0.0632
19833W        W35642  16.788   5.571   2.078 -0.2176 -0.0253  0.0834
19834W        W35643  14.226  16.913  12.655 -0.1543 -0.2034 -0.0711
19835W        W35644   9.482   5.733  12.748 -0.2213  0.1480  0.0802
19836W        W35645   7.537   5.573   2.322 -0.2243 -0.1863  0.3807
19837W        W35646  14.346   0.484   1.544 -0.1093  0.0212  0.0179
19838W        W35647  18.176   1.970  11.931 -0.1560  0.0874 -0.0649
19839W        W35648   7.220  13.411   9.876  0.2814 -0.0127 -0.1300
19840W        W35649   8.809  15.518   5.084 -0.0016 -0.0217 -0.3055
19841W        W35650  16.067   9.537   1.839 -0.0239  0.0950 -0.0457
19842W        W35651   8.246   9.342  10.338  0.0360 -0.2062 -0.5010
19843W        W35652   9.120   6.338  12.803 -0.1580 -0.0496 -0.2698
19844W        W35653  18.410  11.873   2.357  0.0193 -0.3327  0.3117
19845W        W35654  13.780   3.754  15.222 -0.1513 -0.1109 -0.0078
19846W        W35655   4.175  18.196   3.307 -0.4072 -0.1905  0.0380
19847W        W35656  12.542   0.272   4.154 -0.0497  0.2157  0.2812
19848W        W35657   5.882   9.197   4.619 -0.0886 -0.2844 -0.0824
19849W        W35658   5.849  10.604  10.247 -0.0865 -0.3750  0.3142
19850W        W35659  11.616  10.464  14.947 -0.0699 -0.1606 -0.3110
19851W        W35660   6.257   8.682  12.066  0.0234  0.3436 -0.0841
19852W        W35661  14.995   6.812  11.307 -0.1336 -0.0661 -0.5198
19853W        W35662   9.188   3.874   1.888 -0.2192 -0.2499  0.2152
19854W        W35663   9.149  16.549   0.186 -0.0236 -0.0480  0.1473
19855W        W35664  14.577   9.305   4.322  0.1655 -0.0011 -0.1738
19856W        W35665   5.584   1.262   2.842  0.0614  0.0307  0.1719
19857W        W35666   7.064   0.401  11.151  0.1103 -0.1340 -0.1291
19858W        W35667   5.532  12.522  10.226  0.1495 -0.2215 -0.1927
19859W        W35668   2.437   5.922   1.187  0.1396 -0.3242  0.2366
19860W        W35669   7.002  17.982  10.420 -0.0441  0.0584  0.0779
19861W        W35670   5.926   7.689  12.176  0.2299 -0.1362 -0.0254
19862W        W35671   5.037  14.593  12.050  0.0587 -0.0764 -0.2156
19863W        W35672  12.162   9.463   2.176  0.0721  0.0662 -0.0792
19864W        W35673   0.418  14.659  14.159 -0.2101  0.2382  0.2146
19865W        W35674  10.056   9.100  13.813  0.0619 -0.0697 -0.1429
19866W        W35675  10.189  12.724  12.707 -0.0081  0.0956 -0.1034
19867W        W35676  14.006   1.289   0.401 -0.3356 -0.0188  0.1227
19868W        W35677  16.423  12.077   5.302  0.0186 -0.3849 -0.1027
19869W        W35678   0.852  11.158  11.887  0.4997  0.0270  0.2035
19870W        W35679   1.383  16.949   3.485 -0.1182  0.1029 -0.0790
19871W        W35680  18.077  14.308  12.783  0.0548  0.0952 -0.2054
19872W        W35681   1.990  17.178   2.918 -0.1698  0.2321 -0.0011
19873W        W35682  11.697   2.567   5.134 -0.0232  0.0067 -0.0643
19874W        W35683  17.231   5.539   5.545  0.5531  0.0769  0.1124
19875W        W35684   0.083   6.002  13.910 -0.3939  0.2545  0.1034
19876W        W35685  17.611  17.338   4.697  0.0181 -0.0601 -0.1292
19877W        W35686   6.345   9.534   4.739  0.2040  0.0601  0.1328
19878W        W35687   2.577   1.474  13.428  0.0721 -0.1883 -0.0337
19879W        W35688   2.500  13.670   1.875 -0.0448  0.2547 -0.5046
19880W        W35689   2.633  12.106  13.222  0.0124  0.1196 -0.2144
19881W        W35690  17.755   6.024  11.810  0.1251  0.0096  0.0035
19882W        W35691  15.697   2.427  11.549 -0.0601  0.2056 -0.3725
19883W        W35692  13.947   0.305  12.189  0.1037  0.1065 -0.0001
19884W        W35693  15.833  10.346  13.893  0.0160 -0.3485  0.1471
19885W        W35694   0.070   9.669  14.888  0.3208  0.0436  0.1227
19886W        W35695   7.535   5.687  10.533  0.2580 -0.0209 -0.0051
19887W        W35696  13.479   4.299  12.892 -0.1600 -0.0878 -0.1835
19888W        W35697  11.591   6.284  12.605  0.1388  0.1738 -0.0811
19889W        W35698  18.730  14.213  12.474 -0.3194 -0.1588 -0.1992
19890W        W35699  17.052   3.811   4.784 -0.1190  0.2732  0.2525
19891W        W35700  17.197   2.005  13.926 -0.1389 -0.0513 -0.3450
19892W        W35701   9.184   4.939   1.294 -0.0912  0.1146  0.2779
19893W        W35702  16.375   5.764   4.826 -0.1505  0.0042 -0.2400
19894W        W35703   5.298  13.267  13.633 -0.3018  0.1064 -0.0540
19895W        W35704  15.782   0.558   2.915 -0.0029 -0.1803 -0.0581
19896W        W35705  17.941   3.452   3.292 -0.2525  0.0160  0.0318
19897W        W35706   5.838   9.122  14.410 -0.0339  0.3020 -0.3002
19898W        W35707   9.062   4.428  11.629  0.3173  0.0303  0.0416
19899W        W35708  17.493  17.098  14.836 -0.2019 -0.0023 -0.0736
19900W        W35709   1.864  12.208  15.132  0.2290  0.0143  0.2471
19901W        W35710   7.462  15.752  13.453 -0.2463 -0.1020  0.2441
19902W        W35711   3.539   9.946  12.847 -0.2363 -0.0307  0.1115
19903W        W35712  11.241   3.882  15.112 -0.1774  0.1109 -0.1133
19904W        W35713   2.447   5.112  11.566 -0.0193 -0.0679 -0.3083
19905W        W35714   4.373  13.482   2.199  0.0011  0.1117 -0.3005
19906W        W35715   1.191  13.137  13.120  0.1207 -0.2986  0.0865
19907W        W35716  18.390  16.738   3.569  0.2022  0.1037  0.0101
19908W        W35717   6.617   4.067   5.694  0.3192  0.0345 -0.0429
19909W        W35718   0.572   5.129   1.419 -0.1910  0.0569  0.4195
19910W        W35719   5.524   6.665  11.167  0.2169  0.2405  0.1662
19911W        W35720  18.356   4.127   3.882 -0.4640 -0.1112 -0.1896
19912W        W35721  12.180   4.086   5.840 -0.0683 -0.0371 -0.1616
19913W        W35722  14.167   3.599   2.857  0.0691 -0.0256  0.0638
19914W        W35723   7.197   9.023   1.746 -0.1040 -0.0195  0.0445
19915W        W35724   3.932   8.236  10.905 -0.1652  0.1753 -0.1171
19916W        W35725  10.930   7.336   4.269  0.0885  0.0721  0.0309
19917W        W35726   6.592   5.936   2.005 -0.3381 -0.1214 -0.2102
19918W        W35727  10.209   5.470   0.092 -0.2487 -0.0474 -0.1806
19919W        W35728   2.421   6.384   4.665  0.0020 -0.0692 -0.0877
19920W        W35729   7.779   2.923   3.287  0.3134 -0.0191  0.0809
19921W        W35730  13.253  15.504   3.964 -0.2027  0.2273  0.1453
19922W        W35731   7.102   8.278  15.145 -0.0690  0.0887 -0.2082
19923W        W35732  10.998  18.503  15.145 -0.1726 -0.2206 -0.1927
19924W        W35733   0.189  10.602   9.620 -0.2097 -0.1042 -0.2850
19925W        W35734  13.250  15.344  14.608  0.0728 -0.0465  0.0266
19926W        W35735  13.794   7.886  14.746 -0.0514 -0.0338 -0.1228
19927W        W35736  12.617   0.003  14.111  0.1321 -0.2298  0.1008
19928W        W35737   8.507   5.272   9.709 -0.1039  0.0778 -0.0465
19929W        W35738  13.315  16.896  13.973  0.1520 -0.1659 -0.0407
19930W        W35739   0.040   4.945  10.003  0.1527  0.2021 -0.0286
19931W        W35740   4.280   9.596   3.386  0.1531 -0.1388  0.0614
19932W        W35741  18.141  14.991  15.343  0.2759  0.1816  0.0235
19933W        W35742   6.152  14.515  11.357 -0.0812  0.0911 -0.1298
19934W        W35743  17.090   1.715  13.002 -0.0419  0.1060  0.1469
19935W        W35744   5.786   2.510  10.991  0.2919  0.1941  0.2123
19936W        W35745   2.726   9.228  12.179  0.1673 -0.0345 -0.1406
19937W        W35746   3.402   1.655   0.239  0.1572 -0.0296 -0.1539
19938W        W35747  11.948  12.186   2.063  0.2200  0.2848  0.0572
19939W        W35748   6.522  11.810  14.899 -0.2257  0.3326 -0.1402
19940W        W35749  14.203  17.331  15.336 -0.0866 -0.0697 -0.4053
19941W        W35750   9.191  13.440   4.122 -0.1812  0.1519  0.2506
19942W        W35751   5.984  14.095  15.321 -0.1907 -0.2269  0.4054
19943W        W35752   2.232   3.711  14.748  0.1806  0.0186  0.2049
19944W        W35753  11.640  11.658  11.397 -0.0792  0.1135 -0.2045
19945W        W35754  16.539  16.555   3.707  0.0748 -0.2084  0.0518
19946W        W35755  16.721  13.176  12.190  0.0864 -0.0486 -0.0059
19947W        W35756   6.702   4.568  12.288 -0.0908 -0.1226  0.1705
19948W        W35757  16.270   3.674  12.469  0.4169 -0.1937 -0.1779
19949W        W35758  18.780   4.146   4.828 -0.0864 -0.2406 -0.1200
19950W        W35759   2.445   9.526  14.525 -0.2340  0.0023 -0.0398
19951W        W35760   5.852   0.033   3.474 -0.0510  0.2119 -0.2631
19952W        W35761  16.074   1.965  14.293  0.1192 -0.2189 -0.0444
19953W        W35762   3.803   4.819   1.210  0.2289 -0.1268 -0.0487
19954W        W35763   0.920   1.063  10.562 -0.2975 -0.0262  0.0979
19955W        W35764   7.728  10.138   1.541 -0.0273 -0.2703  0.2272
19956W        W35765   9.034   7.145  14.576  0.1954  0.0373  0.0548
19957W        W35766   9.510  13.564   5.020 -0.1693  0.1197 -0.3013
19958W        W35767  13.805  14.522   0.905  0.0235  0.2517  0.3617
19959W        W35768   6.965  18.413  14.439 -0.0016 -0.1010  0.1314
19960W        W35769   4.968  14.096  12.051  0.3085 -0.0661 -0.1801
19961W        W35770   3.555   9.916   3.707 -0.0370  0.0486 -0.0165
19962W        W35771  14.189  10.888   4.082 -0.1730  0.0821  0.0874
19963W        W35772  17.168  10.715   2.243  0.0220  0.1006  0.0714
19964W        W35773   3.915   2.986  14.523  0.0370  0.3765  0.0613
19965W        W35774  10.453  11.662   5.234  0.1549 -0.4014  0.2680
19966W        W35775   7.648   8.156   2.430  0.3009  0.3918 -0.1533
19967W        W35776  15.130   1.669  15.419 -0.0418 -0.1391  0.0982
19968W        W35777  13.267   1.011  13.221  0.0892  0.1403  0.4654
19969W        W35778   0.343   4.709  13.753 -0.2462 -0.1266  0.2024
19970W        W35779  18.717  18.640  14.367  0.1596 -0.0431  0.4007
19971W        W35780   1.692   4.135   0.096 -0.1970  0.2778  0.0577
19972W        W35781  17.314  18.732   2.239  0.0354 -0.0916  0.3507
19973W        W35782  16.594  17.271   1.222 -0.3372  0.3235 -0.3612
19974W        W35783   6.604   5.582   1.621 -0.2227  0.1035 -0.2434
19975W        W35784  11.681   3.892   4.057  0.2726  0.0037 -0.3071
19976W        W35785  17.226   3.306  14.193 -0.1696  0.0858  0.1927
19977W        W35786  11.555  12.010  11.838  0.0432  0.1432 -0.1025
19978W        W35787  14.366   1.390   2.399  0.2628 -0.0578 -0.2181
19979W        W35788  17.121   5.632   1.656 -0.0834  0.0069  0.2088
19980W        W35789  14.211  12.203  13.157 -0.1406  0.0495  0.1836
19981W        W35790   8.961  13.140  13.596 -0.2767 -0.1920 -0.2079
19982W        W35791  16.172  18.327  13.136  0.2305 -0.0060 -0.1921
19983W        W35792   6.194   0.556  11.791  0.3239  0.0337  0.0733
19984W        W35793  18.057  18.607   5.659 -0.4084 -0.0381 -0.0202
19985W        W35794   6.528   3.922  13.746  0.0442  0.1598 -0.0691
19986W        W35795  11.713  18.499   5.403 -0.0436 -0.1536 -0.3067
19987W        W35796  12.271  16.124  13.956  0.2195 -0.0357  0.1528
19988W        W35797   8.162  10.911  15.212  0.1181  0.0246  0.0811
19989W        W35798  14.454   9.883   5.577  0.1493 -0.0777 -0.1797
19990W        W35799  11.207  16.961  13.300  0.1409  0.0353  0.2002
19991W        W35800  13.108  13.664  10.301  0.0152  0.0552  0.1726
19992W        W35801  16.674   0.681  15.204  0.0145  0.4213 -0.0406
19993W        W35802   4.220   0.804   1.107 -0.1911  0.2052  0.3918
19994W        W35803  10.667   0.941   4.932  0.3519  0.2209 -0.2405
19995W        W35804   6.660   8.856   5.408 -0.1439 -0.2317  0.0495
19996W        W35805   5.615   3.873  13.233  0.2097  0.0014 -0.0206
19997W        W35806   0.678   6.226   3.723 -0.1878  0.0307  0.1460
19998W        W35807   6.504   7.966   3.469 -0.1530  0.0021  0.2909
19999W        W35808   5.022  12.871  12.087 -0.0295 -0.0342 -0.0208
20000W        W35809  11.616   6.939  13.731 -0.0026  0.1803  0.2098
20001W        W35810  17.378  15.176   3.345 -0.2025 -0.1055  0.0569
20002W        W35811  12.633  14.393  13.054  0.2161  0.0169  0.2158
20003W        W35812   8.737  18.750  12.672  0.2197 -0.1673 -0.0396
20004W        W35813  11.558  13.333  13.474 -0.1227  0.0504 -0.1721
20005W        W35814   2.071   8.504  11.668  0.1808  0.0454 -0.1912
20006W        W35815   4.918   9.127   3.944  0.0337 -0.1757 -0.3893
20007W        W35816   7.800  16.955  11.049  0.0604  0.1596 -0.3005
20008W        W35817  13.963   2.743  14.928  0.1470 -0.0092 -0.0447
20009W        W35818   4.945  16.776  12.838 -0.3435  0.0428  0.1753
20010W        W35819   2.745   7.432   4.213 -0.1561 -0.2494  0.0006
20011W        W35820  12.681  17.890   0.704  0.1565 -0.1907 -0.0304
20012W        W35821   8.969   6.566   0.592 -0.4307  0.0819 -0.1344
20013W        W35822   2.030  15.157   1.889 -0.1524  0.0421 -0.0656
20014W        W35823   9.431  13.179   0.104  0.1009  0.0026 -0.1817
20015W        W35824  11.860  13.208   1.673  0.0799 -0.3024 -0.3938
20016W        W35825  14.722   2.700   1.110 -0.0786 -0.0954 -0.3057
20017W        W35826  18.150   9.695   4.761  0.1076  0.0438  0.0871
20018W        W35827  14.126   0.832   0.640 -0.0974 -0.0819  0.0125
20019W        W35828   6.316   4.533   5.140 -0.2818  0.0489 -0.0072
20020W        W35829   0.142   3.085   1.458  0.0388 -0.2207 -0.0694
20021W        W35830  13.726  16.167   3.523 -0.0764  0.3497 -0.2941
20022W        W35831  17.656  13.324   3.150  0.2154  0.0596  0.0799
20023W        W35832  18.824  14.973   9.618 -0.0485 -0.1704  0.0297
20024W        W35833   9.121  17.349   1.650  0.1258 -0.0128  0.0825
20025W        W35834   9.372   5.598   2.041  0.0742  0.0572  0.0275
20026W        W35835  16.890  15.844   0.475 -0.0477 -0.0846 -0.1280
20027W        W35836  16.096  15.637   4.214  0.2565 -0.0365 -0.0848
20028W        W35837   0.657  18.066  12.710 -0.1257  0.3201 -0.1382
20029W        W35838   4.692   6.948  14.685 -0.3078  0.2302 -0.0917
20030W        W35839  11.082  16.017   3.764 -0.2632  0.0862 -0.0256
20031W        W35840   7.336   8.864   0.031 -0.1042  0.1053  0.0509
20032W        W35841   6.096  13.395  11.109 -0.0552 -0.1222  0.1137
20033W        W35842   6.252  15.043   4.147 -0.1270 -0.0294  0.1325
20034W        W35843   5.719   1.368   9.623  0.0430 -0.0177 -0.0866
20035W        W35844   4.008  16.387   9.902  0.1314 -0.0271 -0.1781
20036W        W35845  11.196  14.206   5.155 -0.1714 -0.5646  0.4764
20037W        W35846  18.299   2.254   3.839  0.0145  0.1756  0.0588
20038W        W35847  15.641   7.383   5.436  0.0418 -0.2361  0.2941
20039W        W35848   4.535  16.650   2.462 -0.1692  0.0605  0.2623
20040W        W35849   4.323  18.245   2.638 -0.1878 -0.1991  0.2904
20041W        W35850  16.844   4.677   0.923  0.1305 -0.2650 -0.4778
20042W        W35851   5.088  17.908  15.347 -0.0282 -0.4630  0.0484
20043W        W35852  16.116  11.347   3.177  0.0341 -0.1871 -0.0765
20044W        W35853   9.316   3.138  13.044  0.1828  0.2166 -0.0792
20045W        W35854  10.196  17.979   3.030 -0.0765  0.2503  0.4117
20046W        W35855  11.190  11.257   3.265 -0.0830  0.1304 -0.2587
20047W        W35856   1.443   5.592  14.947 -0.4275 -0.2978 -0.1490
20048W        W35857  17.835   1.937   9.688  0.0956  0.2029 -0.0336
20049W        W35858   6.026  10.562   4.536  0.2191 -0.0497  0.2727
20050W        W35859  14.607   5.733   0.707 -0.0398 -0.2490  0.2270
20051W        W35860   0.140   6.682  13.499 -0.0693  0.0485 -0.3164
20052W        W35861   2.320  16.522  12.888 -0.1461  0.0277  0.1484
20053W        W35862   2.601  12.789   3.684  0.1279  0.0587 -0.0618
20054W        W35863  12.556  12.027   1.651  0.2290 -0.1847 -0.0176
20055W        W35864  16.738   3.569   1.643  0.1068  0.1305  0.1970
20056W        W35865  18.728   5.265   1.917 -0.1717  0.0660 -0.0911
20057W        W35866   3.349   2.283   1.918  0.1621  0.2723 -0.0875
20058W        W35867  12.107   9.507  14.649  0.0236  0.0531 -0.0841
20059W        W35868   5.055   2.243  13.022 -0.1930 -0.0658 -0.0470
20060W        W35869   3.597   8.368   3.958  0.2813 -0.2905  0.0038
20061W        W35870  11.269   4.045   9.937  0.2648  0.0689 -0.2574
20062W        W35871  18.794  14.160   1.047  0.0645 -0.1233 -0.0147
20063W        W35872   9.106   2.597   4.134 -0.2697  0.0903 -0.1417
20064W        W35873  12.745  15.883   1.881 -0.2268 -0.0231 -0.2699
20065W        W35874  15.775  18.874   3.995  0.3962  0.2744 -0.2397
20066W        W35875  12.172  14.377   3.752  0.2032  0.0821 -0.1741
20067W        W35876   4.845  10.004  13.257 -0.0502  0.1046 -0.2006
20068W        W35877   9.384   0.577  13.703 -0.1066 -0.1874 -0.3531
20069W        W35878   0.937   8.695  15.123 -0.1985 -0.1712 -0.1157
20070W        W35879  13.230  16.376  13.795 -0.2998  0.0981  0.0104
20071W        W35880   6.351  18.339  11.480 -0.0551  0.0376  0.2421
20072W        W35881   3.393   5.391  10.615  0.1645  0.0934  0.1172
20073W        W35882   2.844   0.046  14.554 -0.1846  0.1867 -0.2428
20074W        W35883   6.824  12.202   3.590 -0.2905  0.0714 -0.0995
20075W        W35884  18.279   0.310  11.938 -0.2849  0.1710 -0.0145
20076W        W35885  17.328  11.826  12.039 -0.2258  0.1564 -0.2487
20077W        W35886  14.801   8.492  12.654  0.0432 -0.2001 -0.2940
20078W        W35887  17.879  12.184  14.056 -0.1460 -0.3523 -0.0940
20079W        W35888   1.259  17.626   4.187 -0.0218 -0.1782  0.1367
20080W        W35889  18.904   4.346   2.900 -0.1866  0.3894 -0.4552
20081W        W35890  11.904  12.874   2.569 -0.1444  0.2116 -0.0470
20082W        W35891  11.591   1.951  14.656 -0.1331 -0.0496 -0.0182
20083W        W35892  15.783   0.662   0.801  0.0024  0.4028 -0.3426
20084W        W35893   8.975   7.285  15.393 -0.0730  0.0435  0.1727
20085W        W35894  14.255  13.371   0.887 -0.2515  0.1863  0.0081
20086W        W35895   7.879   5.312   4.461 -0.0838 -0.1718 -0.3255
20087W        W35896  14.674  14.361   1.569  0.1035  0.4569  0.0042
20088W        W35897  14.634  13.394  11.714 -0.3053 -0.0303 -0.2057
20089W        W35898   4.944  18.067  12.077 -0.0449  0.0578  0.6047
20090W        W35899  15.786   2.182   4.431  0.2522 -0.2882 -0.1634
20091W        W35900   8.211  14.214   4.030  0.1200 -0.3755 -0.3573
20092W        W35901   2.237   0.564  13.035  0.0154  0.0720  0.0046
20093W        W35902   2.504   2.431   4.306  0.0954 -0.1368  0.2164
20094W        W35903   2.117   3.013   0.244 -0.0571  0.0860 -0.0943
20095W        W35904   8.767  14.349   0.667  0.0015 -0.0363 -0.0742
20096W        W35905   0.713   8.880  12.906  0.1044 -0.0708 -0.0830
20097W        W35906   2.784  18.119   1.813 -0.0281  0.2115  0.0955
20098W        W35907   2.322  16.313  10.607  0.3897  0.0484 -0.2257
20099W        W35908  17.799  18.444   0.869  0.3955  0.2346 -0.0138
20100W        W35909   6.121  13.458  12.209 -0.1066 -0.1348 -0.0131
20101W        W35910   9.983   2.349   0.084 -0.0063  0.0111  0.0412
20102W        W35911  17.568  12.810   3.242 -0.1334 -0.2564 -0.0796
20103W        W35912   8.522   7.028  14.451  0.4878 -0.0746  0.1464
20104W        W35913  16.139   2.187  11.647  0.1744  0.0941 -0.0865
20105W        W35914  17.365   6.058  12.173  0.2846  0.1729 -0.0817
20106W        W35915  15.718   8.735   3.080  0.0035  0.1147  0.0916
20107W        W35916  12.789  11.741   5.522  0.0911 -0.1346 -0.0300
20108W        W35917  16.022  17.635  11.035  0.0381 -0.1935 -0.1661
20109W        W35918  18.478   7.528  12.426  0.1382  0.0430  0.1749
20110W        W35919   3.538  12.809  12.088 -0.1579  0.0779 -0.1128
20111W        W35920  13.182  10.503  11.673 -0.2212  0.2377 -0.0551
20112W        W35921  15.524   1.476  11.268  0.1967  0.4672  0.5773
20113W        W35922  12.984  17.958   4.339  0.1677 -0.1145  0.2281
20114W        W35923   5.073   0.088   1.856 -0.3652  0.4683  0.3421
20115W        W35924   3.051   1.372  13.717 -0.0958 -0.0501 -0.1184
20116W        W35925   9.420   2.132   5.596 -0.3707 -0.0367  0.1379
20117W        W35926   4.436   2.229   4.884  0.3721  0.0864 -0.0491
20118W        W35927  12.468  10.217   4.141 -0.0363  0.2941 -0.0063
20119W        W35928  14.528   0.981   1.568 -0.1730  0.0071  0.0342
20120W        W35929  17.102  13.929   5.180  0.0746 -0.3400 -0.0582
20121W        W35930   1.767   2.819   1.105 -0.3663  0.0395 -0.3753
20122W        W35931   0.611  17.499   3.494 -0.0794 -0.1240  0.2798
20123W        W35932  14.243   9.345   5.729  0.2713 -0.0583 -0.0843
20124W        W35933   8.611  14.967  13.851 -0.0682 -0.4975  0.0438
20125W        W35934   7.354  17.876   0.144 -0.0921  0.0247  0.0045
20126W        W35935  10.350   6.589  14.455 -0.0573 -0.0237  0.1836
20127W        W35936  12.000   0.550  11.745  0.1278 -0.2143  0.0985
20128W        W35937   2.786  10.160  11.203 -0.1109  0.0489  0.0263
20129W        W35938   1.067   5.844  14.800  0.2207 -0.0764  0.1602
20130W        W35939   8.206   6.858  14.836 -0.1877  0.0314 -0.1111
20131W        W35940  11.690   5.843  12.852 -0.2837 -0.0377  0.1930
20132W        W35941  16.058   1.436  14.345 -0.0781  0.2329 -0.0701
20133W        W35942  10.175   8.749   1.795 -0.3757  0.2788  0.0195
20134W        W35943   0.209   7.960  10.303  0.2985  0.0178  0.1638
20135W        W35944  15.431   9.985   3.154  0.0466  0.0180  0.0382
20136W        W35945  18.177   6.770  12.449  0.2325  0.1723  0.0119
20137W        W35946  15.042   8.791   1.367 -0.0191 -0.2510  0.1117
20138W        W35947   6.911   8.784   0.350  0.0997  0.3683  0.1709
20139W        W35948   7.361  14.237  11.606 -0.2510 -0.1685 -0.0525
20140W        W35949  15.675   7.023   6.423  0.0503  0.1003  0.1880
20141W        W35950  11.861  12.965   4.985  0.0808 -0.0638 -0.1057
20142W        W35951   5.610   6.714  14.611 -0.0743  0.5514  0.0997
20143W        W35952   8.524  10.531   1.034 -0.0518  0.1260  0.3530
20144W        W35953   5.242  13.403   1.950  0.3810  0.0981 -0.0571
20145W        W35954   1.177   7.961   4.760  0.2870 -0.0160 -0.0646
20146W        W35955  17.646   8.998   1.149  0.0139 -0.1381 -0.1661
20147W        W35956  13.014   5.567  10.841  0.2128 -0.1416  0.0174
20148W        W35957  12.481  18.132  14.348  0.6104 -0.0647  0.1572
20149W        W35958   2.610   6.084  10.713  0.0789  0.0129 -0.1181
20150W        W35959  11.604  17.955  12.676 -0.0122  0.2596 -0.3409
20151W        W35960  17.310  17.113  13.933 -0.2526 -0.1947 -0.3123
20152W        W35961   0.004  13.556  13.143  0.0684  0.2900 -0.2660
20153W        W35962   8.477  17.253   2.539  0.1598  0.0919  0.4437
20154W        W35963   0.895  12.110   4.178 -0.2336  0.2425 -0.1368
20155W        W35964  17.364  17.346   5.244 -0.0740 -0.0939 -0.1090
20156W        W35965  15.827  13.626  13.056  0.0833 -0.1128 -0.1160
20157W        W35966  10.990   1.249  11.338 -0.3651 -0.2095  0.1821
20158W        W35967   2.462   1.627  10.318  0.0664  0.0250 -0.0142
20159W        W35968  14.310   9.757  13.308 -0.1801  0.2734 -0.3322
20160W        W35969   4.904  18.673  15.033  0.0419  0.1254 -0.1561
20161W        W35970  10.359   9.812  13.151  0.1468  0.1640 -0.1535
20162W        W35971  14.840  16.002   0.655  0.2999 -0.0445 -0.2748
20163W        W35972   9.015  10.716  14.131 -0.1263 -0.2118 -0.0986
20164W        W35973   4.424   2.772   0.697  0.3034  0.1702 -0.0239
20165W        W35974   2.420   6.680   0.247 -0.5999  0.1121 -0.1508
20166W        W35975   3.648  16.267  11.957  0.0025  0.0808 -0.0002
20167W        W35976   9.536   9.099  12.879  0.0534 -0.0176 -0.0047
20168W        W35977   4.874  13.795  11.116  0.1471  0.0931  0.1510
20169W        W35978  16.751  17.308  11.877 -0.2224 -0.2720 -0.1713
20170W        W35979   2.997   2.729   5.184  0.0340  0.0926 -0.2129
20171W        W35980  12.712   5.798  15.317 -0.1552  0.2212 -0.1388
20172W        W35981  15.763   6.404  13.769 -0.1476  0.2763  0.2172
20173W        W35982  13.317   8.308   0.247  0.0269 -0.0097 -0.0013
20174W        W35983  11.272  12.213   2.693 -0.0389  0.0599 -0.0280
20175W        W35984  11.136   2.789   4.162 -0.1109 -0.0491  0.1535
20176W        W35985  15.744  13.178  11.047  0.2988 -0.0351  0.2409
20177W        W35986   8.341  14.439   0.336  0.0463  0.0669 -0.2249
20178W        W35987   3.129  15.446   0.015 -0.0017 -0.1892  0.0039
20179W        W35988  17.923   5.668   1.707  0.1257  0.3609  0.0387
20180W        W35989  12.523  10.080   0.338 -0.0242 -0.1629 -0.0968
20181W        W35990   8.652   8.533  12.429 -0.1159  0.1277  0.2086
20182W        W35991   7.107   2.891   0.155  0.1669  0.3027  0.3429
20183W        W35992  13.765   6.874  13.656  0.2046  0.1158 -0.2877
20184W        W35993  15.587   4.577   0.452  0.0185  0.4074 -0.1235
20185W        W35994  18.326  17.357   5.194  0.1776 -0.2377 -0.1754
20186W        W35995   7.275  17.806   3.777  0.0793  0.1492  0.2066
20187W        W35996  11.144   8.950   4.237  0.0820 -0.0691 -0.2850
20188W        W35997  13.907  18.063  13.459  0.1189  0.0581  0.5334
20189W        W35998  14.193  18.215   0.566 -0.2719  0.1956  0.1545
20190W        W35999  14.654   2.108  14.176 -0.1688  0.0389 -0.4096
20191W        W36000   3.108   7.876  13.042  0.1782  0.2459 -0.2054
20192W        W36001   2.252  14.513  14.305 -0.0199  0.2222 -0.1652
20193W        W36002  11.952   7.264  13.418 -0.1833 -0.0194 -0.2116
20194W        W36003   5.730  14.758  11.573 -0.1827 -0.1550 -0.0808
20195W        W36004  17.432  12.490   2.842 -0.1625  0.0245 -0.1681
20196W        W36005   1.217   9.244   2.467  0.1244 -0.2279 -0.1704
20197W        W36006   1.369   5.713  12.402 -0.0816  0.2623  0.3966
20198W        W36007  14.995  16.856  11.120  0.2148 -0.0488  0.1002
20199W        W36008  16.958   2.858  14.016 -0.0132  0.0054  0.2403
20200W        W36009  17.902  18.772   4.786  0.0848  0.1628  0.0965
20201W        W36010  12.216  11.979   5.255 -0.1973  0.4027  0.0190
20202W        W36011  11.250   2.638  14.647 -0.1024  0.2676  0.2614
20203W        W36012  18.525  17.321   5.654 -0.0962 -0.0018  0.0509
20204W        W36013  10.160  12.391  11.548  0.0133  0.1805  0.0966
20205W        W36014  14.023   7.375   1.862 -0.1435 -0.2542 -0.0297
20206W        W36015   1.657   6.072  12.816 -0.2660  0.1405 -0.2748
20207W        W36016  15.800  17.100   3.526  0.0223  0.1568 -0.3805
20208W        W36017   1.881   4.272   3.368 -0.1529  0.2524 -0.0176
20209W        W36018   9.591   9.186   4.809 -0.0018  0.1353 -0.0793
20210W        W36019  14.485  12.376   2.588  0.0447  0.2542 -0.0146
20211W        W36020  13.918   2.099   1.626  0.2387  0.1616  0.0256
20212W        W36021  11.754   0.048  10.787  0.1350  0.0177  0.1390
20213W        W36022  11.434  13.267   3.913  0.0346  0.1951  0.2924
20214W        W36023   5.645  13.067  14.019 -0.1420  0.1140  0.0066
20215W        W36024  10.700   5.864   0.100 -0.0081  0.0313 -0.1465
20216W        W36025  10.265  15.478  10.659 -0.1281  0.0207 -0.1115
20217W        W36026   9.804   9.423   3.795  0.0625  0.3157 -0.0508
20218W        W36027  13.069  17.116   2.462 -0.0897  0.1074 -0.0172
20219W        W36028   4.252   4.506  11.092 -0.1250  0.0181 -0.3454
20220W        W36029  10.856   1.961   1.983 -0.1601 -0.0435 -0.2069
20221W        W36030   4.215  16.062  12.851 -0.2468  0.0429 -0.1920
20222W        W36031  18.491   8.237   0.224 -0.2536 -0.0015  0.1325
20223W        W36032  18.692   4.962  12.509  0.0435  0.3614  0.2819
20224W        W36033   7.461   2.825  13.091 -0.1610 -0.3669  0.0974
20225W        W36034  12.872  13.822   5.397 -0.4865  0.0042 -0.0345
20226W        W36035  17.544   7.928  12.507 -0.0057 -0.1440  0.0311
20227W        W36036  14.024  15.097  15.044 -0.2952 -0.1033 -0.0456
20228W        W36037  10.334   7.417  13.739  0.1513 -0.2960 -0.3616
20229W        W36038  11.308   7.012   5.486  0.1540  0.2038  0.2514
20230W        W36039   8.572   0.896  11.589  0.2849  0.1872  0.0089
20231W        W36040   7.246   1.087  11.712  0.3803 -0.1082 -0.0300
20232W        W36041  14.880   6.545  13.608  0.0658  0.0587  0.0528
20233W        W36042  14.299   0.200   3.859 -0.0654 -0.1407 -0.4090
20234W        W36043  18.153   1.623   0.029 -0.0371  0.1537 -0.0220
20235W        W36044  15.155   0.737   0.835  0.2883  0.2036 -0.1685
20236W        W36045   4.614  17.527  11.243 -0.1113 -0.0730 -0.2980
20237W        W36046  18.387   6.318   1.365 -0.2011 -0.1633 -0.0802
20238W        W36047   3.039   8.911   0.523 -0.1460 -0.0842  0.3262
20239W        W36048  13.950  18.707  11.855  0.0099 -0.1381 -0.1815
20240W        W36049   9.268   0.485   0.241  0.1498  0.2506 -0.2861
20241W        W36050  17.274   4.325  11.684  0.1816 -0.1991  0.3168
20242W        W36051   7.172   0.721  13.579 -0.0617 -0.3269 -0.1431
20243W        W36052   9.336  13.666  12.844 -0.2131 -0.3577 -0.2373
20244W        W36053  12.156  14.640  12.281 -0.4751 -0.1184 -0.2576
20245W        W36054   4.779  15.936   0.048  0.3017  0.1007  0.0071
20246W        W36055   7.780  18.489  10.169 -0.1434  0.0741 -0.2471
20247W        W36056   9.564   4.712   1.701 -0.1041 -0.2053 -0.0204
20248W        W36057   9.006  16.445   2.679  0.3730  0.1643 -0.0312
20249W        W36058   5.943   1.556   4.534  0.1490 -0.2687  0.0581
20250W        W36059   3.661   8.837   4.872  0.1830  0.0136  0.1725
20251W        W36060   8.438  18.633   4.679  0.1725  0.4648  0.3561
20252W        W36061   6.411  16.046  11.717  0.0333  0.0108  0.1025
20253W        W36062  18.526  10.107  15.379  0.0605  0.2053  0.1081
20254W        W36063   3.937  10.170   4.146 -0.2539  0.1563 -0.1917
20255W        W36064   3.066  12.927  11.898 -0.0571  0.0008  0.4310
20256W        W36065  12.995  10.191  12.338 -0.1118  0.1920 -0.0300
20257W        W36066   5.407   7.365   2.709 -0.2745  0.4462  0.3088
20258W        W36067   4.673  13.389  12.753 -0.3433 -0.1087 -0.0976
20259W        W36068  13.225   7.742   1.863 -0.3920 -0.1598 -0.1325
20260W        W36069  11.175   6.680   0.327  0.2920 -0.2664 -0.4160
20261W        W36070  13.353  15.161   1.957 -0.2554 -0.1010 -0.1164
20262W        W36071  10.815  11.753   4.790  0.0997  0.1848 -0.0792
20263W        W36072   3.194  12.452   0.556  0.2429  0.0387 -0.1486
20264W        W36073   9.811   0.498   0.585 -0.1632 -0.1352 -0.0805
20265W        W36074   0.143   3.536  14.568  0.1415 -0.0518 -0.1121
20266W        W36075  16.577   0.527   2.269 -0.1882  0.0056  0.1060
20267W        W36076  15.739   2.502   4.017 -0.2359  0.1679 -0.5113
20268W        W36077   9.802  17.393   2.459 -0.0220 -0.2321  0.0901
20269W        W36078   4.870  18.488  12.434  0.4091 -0.0130  0.1587
20270W        W36079   9.170   8.898  11.171 -0.0409  0.2323  0.1529
20271W        W36080  10.641   5.022  12.918 -0.0608  0.0100  0.1408
20272W        W36081   9.981   9.133   0.517  0.3367 -0.2805  0.2025
20273W        W36082   9.120   3.901  11.374 -0.1195 -0.0933  0.1417
20274W        W36083   2.859  12.593   1.444  0.2388  0.1991  0.4563
20275W        W36084  18.596  10.484  12.594 -0.1880  0.1369  0.1482
20276W        W36085  17.287   5.787   0.400 -0.0785 -0.0343 -0.2292
20277W        W36086  11.148   9.744  13.589 -0.0830  0.1519  0.0556
20278W        W36087   5.572  11.667   0.617  0.0327 -0.0780  0.0376
20279W        W36088  18.761   4.131  11.936 -0.1788 -0.3134  0.1829
20280W        W36089  14.305   9.120   3.159 -0.1628  0.1923 -0.1328
20281W        W36090   5.280  14.144   5.610 -0.2913  0.2647  0.1417
20282W        W36091   6.883   4.433  15.013 -0.0560 -0.0525 -0.2212
20283W        W36092   8.535   5.917   2.147 -0.1874 -0.0434 -0.1374
20284W        W36093   8.178  15.863   3.760  0.2467 -0.2817  0.1092
20285W        W36094  17.087   8.629   2.705  0.1264 -0.0976 -0.2446
20286W        W36095   0.952   3.109  14.993 -0.0441  0.1944 -0.2989
20287W        W36096   7.241  13.854  14.930  0.0135  0.3178  0.5010
20288W        W36097  12.702  14.009   2.603  0.2502 -0.0512  0.0556
20289W        W36098   7.599  18.011  13.290  0.4951  0.3088 -0.0886
20290W        W36099  10.485   1.915  13.712  0.3827  0.0704 -0.0772
20291W        W36100   7.044  14.730  14.706  0.1808  0.0840  0.0853
20292W        W36101   8.821   3.151   1.448 -0.0661 -0.1139 -0.0871
20293W        W36102  17.630   5.404   0.446  0.3303 -0.3179  0.4226
20294W        W36103  18.746   3.660   5.009  0.4094 -0.2544  0.2866
20295W        W36104  18.646   6.872  15.090 -0.2226  0.2391 -0.0705
20296W        W36105  10.502  17.870   2.090 -0.1791  0.0467  0.2529
20297W        W36106  11.172  16.484   4.003  0.0682 -0.1019  0.2047
20298W        W36107   5.574  15.485  15.271  0.0509  0.1223  0.3430
20299W        W36108   6.204  10.382  12.931 -0.1571 -0.1957  0.0394
20300W        W36109  12.834  15.541  14.213 -0.0267  0.3328  0.0791
20301W        W36110  18.285  14.026   3.563 -0.1404  0.0385 -0.0251
20302W        W36111   2.623  10.714  10.584 -0.1504  0.2518 -0.3766
20303W        W36112   3.748  15.369  11.048  0.1754 -0.2408 -0.2049
20304W        W36113   1.406   3.532   2.004  0.0416  0.0925 -0.2377
20305W        W36114   0.283  15.767   4.745  0.0845 -0.0086 -0.0962
20306W        W36115   1.116  14.026   1.296 -0.1384 -0.1604  0.0443
20307W        W36116   0.322   6.096  12.619  0.0134 -0.1652 -0.1361
20308W        W36117   0.190  16.428   0.945 -0.0623  0.0368 -0.0469
20309W        W36118  14.451   9.726  11.851  0.1729 -0.1871 -0.0718
20310W        W36119  17.146  15.226   1.955  0.0802  0.4119 -0.1144
20311W        W36120  16.587  10.986  13.081  0.3436  0.0192 -0.0182
20312W        W36121   9.440   1.828   4.676 -0.1207 -0.0424  0.1141
20313W        W36122  18.112  18.181   2.305 -0.0008  0.1175  0.2446
20314W        W36123   2.076  18.624  14.082 -0.1790 -0.1197 -0.0993
20315W        W36124   5.783   9.038  10.276 -0.1121  0.5866 -0.0281
20316W        W36125  15.818   5.149  14.397 -0.0726 -0.1591  0.1432
20317W        W36126  12.896   0.679  10.566  0.1709 -0.2647 -0.3323
20318W        W36127   0.608  10.601  14.961 -0.0872 -0.1302 -0.0419
20319W        W36128   8.323   3.051   4.923  0.1587 -0.0067  0.2620
20320W        W36129   3.636   6.072   0.967  0.0790  0.1987  0.3959
20321W        W36130  15.961  16.111   1.900 -0.0147  0.1850 -0.0350
20322W        W36131  15.880  12.644   3.285 -0.0449 -0.1250  0.1110
20323W        W36132   3.623  13.910   0.937 -0.1635 -0.0296  0.3598
20324W        W36133  13.481  13.140   4.253 -0.2908  0.3117 -0.1363
20325W        W36134  11.846   7.191   4.154  0.2176 -0.0713  0.2041
20326W        W36135   2.912   0.937  11.898  0.0814  0.0743 -0.1667
20327W        W36136   9.863  12.600   3.507 -0.1772 -0.0971  0.1067
20328W        W36137   9.151  18.137   0.747  0.1294 -0.1032  0.1054
20329W        W36138  11.043  17.645   3.595  0.0369 -0.0681  0.4638
20330W        W36139   1.481  18.175   4.464  0.1204  0.1223 -0.2669
20331W        W36140   0.804   5.899  11.760  0.1479  0.0379  0.0288
20332W        W36141  12.996  13.662  13.917 -0.0652 -0.1268  0.4013
20333W        W36142   0.328   7.336   2.953  0.4143 -0.0037  0.2187
20334W        W36143   3.898   5.082   3.736 -0.2476  0.2113  0.1897
20335W        W36144   3.708  11.260  13.694  0.0355  0.1798  0.2286
20336W        W36145   4.129   2.152  13.165  0.0405  0.2514  0.1588
20337W        W36146  15.320   0.949  14.197 -0.1804  0.1569  0.0400
20338W        W36147   7.800   1.451  12.082  0.1674 -0.0213 -0.1993
20339W        W36148   5.481   8.413   5.281  0.1283 -0.0287 -0.0492
20340W        W36149  18.345   7.003  11.160  0.0398 -0.1522 -0.1476
20341W        W36150  11.134  18.196  12.890 -0.1452  0.2167 -0.4667
20342W        W36151  13.787  16.098  12.228  0.0030 -0.1352 -0.1010
20343W        W36152  13.870  12.825  12.661 -0.2029  0.3680  0.0727
20344W        W36153   7.866   1.776  11.251 -0.1234  0.0154 -0.1901
20345W        W36154  11.003   6.305   4.328 -0.1957  0.0565  0.1413
20346W        W36155   1.237  10.691   2.890  0.3331 -0.0176 -0.0281
20347W        W36156  14.639   8.050   4.866 -0.0193  0.2174  0.1410
20348W        W36157  15.475  18.402   4.120  0.3317 -0.2940  0.0129
20349W        W36158   5.562   9.858   2.435 -0.1799  0.2186  0.1535
20350W        W36159  17.250   8.099  11.113  0.2141  0.0824  0.2985
20351W        W36160  11.868  18.700  14.064  0.4309  0.0613  0.0887
20352W        W36161  17.179   5.917   3.696 -0.2862  0.1438 -0.2348
20353W        W36162  17.731  11.638   2.296 -0.0319 -0.1264 -0.1300
20354W        W36163   5.186  12.935   2.214  0.0224 -0.1951  0.1160
20355W        W36164  12.607   0.286   2.032  0.0141  0.2072 -0.1145
20356W        W36165  15.160  13.456  13.904 -0.1217  0.1940 -0.0595
20357W        W36166  11.960   1.228  11.912  0.0300 -0.0383  0.1805
20358W        W36167  15.040  17.294   2.920  0.0894  0.0504  0.1812
20359W        W36168   0.152   1.583  11.869  0.0059  0.2980  0.1719
20360W        W36169   0.740  11.393   4.427  0.0462  0.1424 -0.0958
20361W        W36170   2.990   8.640  14.282  0.2301 -0.1843  0.1584
20362W        W36171  12.531   6.941  15.418  0.0668 -0.3459  0.0554
20363W        W36172  15.956   2.341  13.838  0.0163 -0.0351  0.3716
20364W        W36173   6.123   5.802  15.142 -0.1746 -0.3322 -0.1668
20365W        W36174   3.839  14.485  11.113 -0.1076  0.0571 -0.2984
20366W        W36175   2.516  16.520   3.742 -0.2031  0.3130 -0.1851
20367W        W36176   9.021  10.705   0.747 -0.0026  0.1546  0.2519
20368W        W36177   3.495  11.689   5.696 -0.3628 -0.0708 -0.3877
20369W        W36178   2.679   1.131   0.613  0.0708 -0.1335  0.2022
20370W        W36179   3.028   4.436   3.518 -0.2996 -0.0874  0.1703
20371W        W36180   2.418  14.931  11.601  0.0086 -0.1450 -0.2200
20372W        W36181  12.922   2.852   4.372  0.1331 -0.2423  0.2057
20373W        W36182   6.871   9.444  13.993  0.0893  0.2296 -0.0274
20374W        W36183  17.597  15.259   0.697  0.0223  0.2009  0.1453
20375W        W36184  15.674  13.996  13.389  0.1506 -0.4117 -0.2076
20376W        W36185   3.886   7.948  13.707  0.2756  0.0833 -0.2469
20377W        W36186   6.647   1.863   3.248 -0.0699  0.1400  0.2051
20378W        W36187   0.404   1.636   4.195 -0.0698 -0.1207  0.0832
20379W        W36188  11.416   4.458   2.495  0.0345  0.2428 -0.0746
20380W        W36189   3.847   7.674   5.358 -0.0347  0.1670  0.1584
20381W        W36190  16.243  16.322  12.344 -0.0494  0.4112  0.0168
20382W        W36191  14.970  14.892   3.969  0.2134 -0.1229 -0.0307
20383W        W36192  10.263  11.300   0.563 -0.1783 -0.0009 -0.0773
20384W        W36193  13.260  15.243   3.223 -0.2799  0.0022  0.3098
20385W        W36194  13.495   7.420   4.717 -0.0627  0.3219 -0.2536
20386W        W36195  16.976   8.850   5.644 -0.0522 -0.2749 -0.0520
20387W        W36196  15.928   4.391  11.494  0.1252  0.0873  0.3578
20388W        W36197   7.943   6.928  10.365 -0.2359  0.0873  0.2566
20389W        W36198   1.891   9.657   0.162 -0.0785  0.0070  0.2266
20390W        W36199  11.056  16.690  14.953  0.3448  0.0212 -0.1624
20391W        W36200  17.452  16.823   4.396  0.0349  0.2927 -0.2127
20392W        W36201   8.085  10.453   2.508  0.3087  0.0866 -0.0062
20393W        W36202   0.270   4.633   3.962 -0.1272 -0.1539  0.2735
20394W        W36203  18.308   3.992  11.652  0.2111  0.0393  0.0118
20395W        W36204   4.087   2.369   4.119 -0.0036 -0.0033  0.2786
20396W        W36205  18.011  14.503   0.847  0.0685 -0.1143  0.0023
20397W        W36206  12.938  16.799   3.254  0.2594  0.1963 -0.3998
20398W        W36207  15.654   7.968  12.784 -0.1608  0.2217  0.2322
20399W        W36208   6.528   7.072  14.852 -0.0301 -0.0971 -0.0010
20400W        W36209   2.696  14.187  14.969  0.1566  0.0978 -0.2283
20401W        W36210   4.193  13.170   1.706  0.1046 -0.2861  0.0810
20402W        W36211  13.752   9.998  14.130 -0.2483  0.2117 -0.0874
20403W        W36212   9.096  11.206   9.648  0.4340  0.2838 -0.4800
20404W        W36213   0.981  13.672   0.023 -0.0738  0.0260 -0.2570
20405W        W36214   4.929   0.677   3.704 -0.3083  0.1154  0.1275
20406W        W36215  10.686  18.504  13.226  0.0655 -0.2418  0.1544
20407W        W36216  12.034   5.937   2.552 -0.2610  0.3627 -0.0801
20408W        W36217  16.591  17.920   4.780 -0.1747  0.0626 -0.1341
20409W        W36218  17.857   9.494   4.382  0.4486 -0.0666 -0.1867
20410W        W36219  12.883   4.650  13.169 -0.2043 -0.1031  0.2321
20411W        W36220  16.366   1.178   0.794 -0.3080 -0.0587  0.0145
20412W        W36221   4.546   7.817  14.492  0.2153  0.2273 -0.0566
20413W        W36222   1.767   0.491  12.856  0.0775 -0.1620 -0.0133
20414W        W36223  16.124   7.783   6.116 -0.0802  0.0826  0.3311
20415W        W36224  18.798  15.971   2.856 -0.0268  0.0450 -0.1668
20416W        W36225   2.415   8.559  13.523 -0.2425  0.0623  0.1192
20417W        W36226   0.253   2.648   1.376  0.2084  0.0371  0.0495
20418W        W36227   8.865   7.043  11.579 -0.1316  0.0274  0.3127
20419W        W36228   1.223   1.835   1.979 -0.4504  0.1259  0.1690
20420W        W36229   0.594  14.540  10.223  0.3216  0.1990  0.1747
20421W        W36230  15.821  16.629  12.169  0.0196  0.1008 -0.0833
20422W        W36231  14.393  15.480   4.068 -0.1543  0.1927  0.2952
20423W        W36232  10.649  13.893   1.435 -0.0036 -0.1775 -0.3651
20424W        W36233  11.195  17.509   2.381  0.0925  0.2471  0.1750
20425W        W36234   6.013   1.360  11.390  0.0768 -0.2214 -0.0190
20426W        W36235  11.387   1.427  14.565 -0.1493  0.0707  0.1926
20427W        W36236  15.392  14.127   1.368 -0.1706 -0.1291 -0.0648
20428W        W36237  17.502   9.069   4.433 -0.0877  0.2996  0.1123
20429W        W36238   1.985  14.664   1.555 -0.0983  0.0655 -0.1511
20430W        W36239  13.852  10.957   4.435 -0.2388 -0.2698  0.1986
20431W        W36240  11.295  10.451   0.998  0.0359  0.0304  0.1203
20432W        W36241  13.275  15.468  12.183 -0.1408 -0.1039 -0.3142
20433W        W36242   9.808  14.711  14.059 -0.2977  0.1270 -0.2182
20434W        W36243  15.011   2.263  10.930  0.0992  0.0430 -0.3721
20435W        W36244   2.874  14.420   3.499 -0.0535 -0.1618  0.0583
20436W        W36245   8.807  18.739  10.464 -0.1585 -0.0263 -0.0568
20437W        W36246  18.243  12.223   0.785 -0.1613 -0.0673  0.4563
20438W        W36247   2.187  16.773  10.863 -0.1715  0.0605 -0.0786
20439W        W36248  15.867   1.730   2.917  0.4092  0.2289 -0.0933
20440W        W36249  10.605  10.868  11.423 -0.0476  0.1195 -0.3226
20441W        W36250   9.422  13.378  11.945  0.3516 -0.2860 -0.1798
20442W        W36251   1.796   7.452   3.917 -0.0788  0.0320 -0.0068
20443W        W36252   8.465   6.601  13.453 -0.2630  0.0353 -0.0942
20444W        W36253   1.181  11.260  14.864 -0.1337 -0.1254  0.2504
20445W        W36254  10.102  16.977   2.226 -0.1959 -0.1867  0.3713
20446W        W36255   8.507  14.683   4.684 -0.0122 -0.1946  0.0142
20447W        W36256  12.557  15.264  13.875  0.2459 -0.2561 -0.1146
20448W        W36257   6.595  16.152   5.206 -0.2961 -0.2041 -0.1635
20449W        W36258   2.477   2.752   2.317 -0.0555 -0.3004  0.1585
20450W        W36259   5.370   1.786  13.485  0.1401  0.1970 -0.0156
20451W        W36260  14.022   2.382   9.592  0.2258 -0.0988  0.3662
20452W        W36261   6.014   9.373  12.534  0.3524  0.1339 -0.2342
20453W        W36262  13.810   8.828   0.509 -0.1687 -0.0248  0.0782
20454W        W36263   7.136  14.132  13.705 -0.2260  0.1509 -0.0499
20455W        W36264  15.393  15.248   3.765  0.2265 -0.2050  0.1359
20456W        W36265  17.880  11.000   5.377 -0.0637 -0.1695 -0.0232
20457W        W36266   8.777  13.226   4.429  0.1015  0.0441  0.2356
20458W        W36267  12.934   0.869   2.298 -0.1198  0.2653  0.1227
20459W        W36268  12.104  17.207  10.980 -0.1130 -0.1752 -0.2050
20460W        W36269   5.866  15.473  12.904 -0.2052 -0.1008 -0.2791
20461W        W36270   1.911  11.004   2.821 -0.2491  0.1055 -0.1246
20462W        W36271  14.646   5.298  13.376  0.1892  0.0106  0.1580
20463W        W36272  10.595  12.359  14.353 -0.1192 -0.1656  0.0134
20464W        W36273   4.570  14.037   2.250 -0.4075  0.2813 -0.4711
20465W        W36274  17.582  13.861  14.668  0.1843  0.0498 -0.0687
20466W        W36275  10.640  15.925   4.453 -0.1746 -0.0189 -0.1103
20467W        W36276  11.135   7.373  10.971  0.0699  0.1496 -0.3460
20468W        W36277  16.331   0.800   1.873 -0.2663 -0.1734 -0.1036
20469W        W36278   1.157  11.850  10.863 -0.0352  0.0602 -0.3534
20470W        W36279   2.937   3.263   0.538 -0.0197  0.0014 -0.1502
20471W        W36280  13.329   5.746   4.070 -0.0312  0.2530  0.0757
20472W        W36281  16.502  13.025   3.092  0.1631  0.0306  0.1146
20473W        W36282   9.378  10.487   3.265 -0.1693  0.0399 -0.1255
20474W        W36283  10.468   7.347  12.179 -0.0029  0.1350 -0.1617
20475W        W36284  18.084  16.442   4.737 -0.0048  0.2197 -0.1232
20476W        W36285   8.049  11.607   3.161 -0.1377  0.1640 -0.0019
20477W        W36286   5.737   0.342  14.306  0.1156  0.0654 -0.0507
20478W        W36287   8.712   2.522  15.020  0.1902  0.1546  0.1523
20479W        W36288   8.999  10.882  11.638  0.0298  0.0067 -0.4306
20480W        W36289   5.235  16.391  12.782  0.0068 -0.1537 -0.1500
20481W        W36290   3.225  15.616  11.727  0.1015  0.3232 -0.2823
20482W        W36291  14.880  15.794   2.052 -0.0814 -0.0692  0.1937
20483W        W36292  13.180  15.310  15.151 -0.0301 -0.3876 -0.2979
20484W        W36293   8.140   4.263   2.882  0.0269  0.0862  0.0328
20485W        W36294   0.750   5.966  13.429  0.2216  0.1444  0.0099
20486W        W36295   6.137   3.816  13.373 -0.2801 -0.2045 -0.1485
20487W        W36296  12.166   4.203   1.691  0.0823 -0.0044 -0.1368
20488W        W36297  10.410   6.934   3.625  0.0059  0.1462  0.1267
20489W        W36298  12.381  15.533   1.180  0.2570 -0.0225 -0.0006
20490W        W36299   0.787   8.237   1.522 -0.3297  0.0456  0.1527
20491W        W36300  14.804   6.961   5.070 -0.0942  0.1116 -0.4853
20492W        W36301   4.344  16.058   4.502 -0.1819 -0.2596  0.3932
20493W        W36302   0.200   8.307   3.829 -0.1098  0.1231 -0.1672
20494W        W36303  16.731   6.213   3.456  0.0970  0.0175  0.1004
20495W        W36304  18.903   4.870  14.555 -0.0419  0.0935 -0.1783
20496W        W36305   0.613   0.268   4.296  0.2141 -0.1045 -0.0822
20497W        W36306  17.392   0.807  10.900  0.0032 -0.0489  0.0990
20498W        W36307  17.697   3.021  11.783 -0.0838  0.2958 -0.0360
20499W        W36308   9.405  11.928  12.935 -0.1448 -0.1403 -0.0285
20500W        W36309  11.477  16.521   0.343  0.3253  0.0023  0.0023
20501W        W36310   0.756  10.970   4.147 -0.2044 -0.1251  0.0315
20502W        W36311  14.963   1.160   0.285  0.0500  0.3300 -0.4599
20503W        W36312   0.664  16.716  14.448 -0.3196  0.0276  0.0458
20504W        W36313   1.348  12.464  14.262 -0.3202 -0.2094  0.3646
20505W        W36314   7.699  12.846   2.899  0.2660 -0.1760  0.0882
20506W        W36315  13.687  16.143   3.002 -0.4360 -0.4175 -0.2057
20507W        W36316  12.849   9.857  12.741  0.0056  0.2204 -0.3832
20508W        W36317   7.331   1.592   0.090 -0.1452 -0.1797 -0.0363
20509W        W36318   9.428   5.988   2.844 -0.0155  0.2460 -0.2823
20510W        W36319   9.066   3.079  11.090  0.1315 -0.0032  0.4770
20511W        W36320   6.263   6.891   4.457 -0.4422 -0.1192 -0.1694
20512W        W36321   6.647   7.893   2.481  0.3753  0.4111 -0.1473
20513W        W36322  14.193  16.156   3.363 -0.2689 -0.1099  0.1532
20514W        W36323   8.069   7.985   1.095 -0.0536 -0.1191  0.4921
20515W        W36324   3.408   1.005   5.341 -0.1584  0.1495 -0.1499
20516W        W36325   8.736  15.925   1.383  0.1014 -0.2969  0.1722
20517W        W36326  15.405   3.913   5.043 -0.0009 -0.1300  0.0633
20518W        W36327  11.059   3.028   5.149 -0.0129 -0.1314  0.0717
20519W        W36328  15.029   5.608   0.932  0.1098 -0.1613  0.0058
20520W        W36329  16.709   2.049   4.998  0.1425 -0.1970  0.0185
20521W        W36330   4.920  16.467   2.879 -0.1348 -0.0569  0.1980
20522W        W36331  17.354  13.055   5.496 -0.2716  0.0309 -0.1848
20523W        W36332  18.842  15.209   2.172  0.4436  0.0652 -0.2119
20524W        W36333   2.933  16.932   2.918 -0.2835 -0.1576  0.0479
20525W        W36334   0.191  12.044   0.574 -0.0140  0.1089 -0.0452
20526W        W36335   7.936  18.322   1.786 -0.0430  0.1860 -0.0240
20527W        W36336   6.375  14.144  11.556  0.0169 -0.3976  0.1695
20528W        W36337   2.574  15.896  11.872  0.1889 -0.2470 -0.0965
20529W        W36338   8.718  11.185  14.659  0.0723 -0.1002  0.3046
20530W        W36339   2.299   7.750  11.950  0.0449  0.2023  0.0206
20531W        W36340   2.495   1.990   2.070 -0.1651  0.1244 -0.1891
20532W        W36341  13.447   0.014   2.027  0.2038  0.2138  0.0662
20533W        W36342   0.277  18.119  13.185 -0.0397 -0.1592  0.1068
20534W        W36343  16.289  10.192   2.888 -0.0053 -0.0717  0.0084
20535W        W36344  10.113  16.702  15.436  0.0792 -0.4148 -0.0221
20536W        W36345   3.457   0.958  12.648  0.1242 -0.1780  0.3009
20537W        W36346  17.857  15.110  13.436  0.1789  0.0735  0.3116
20538W        W36347  18.837  18.593   0.388  0.3110  0.4255  0.3563
20539W        W36348  10.144  13.942   0.270 -0.1151  0.1723 -0.0233
20540W        W36349   7.537  13.928  14.515  0.1430 -0.0370 -0.2308
20541W        W36350  12.825   9.429  11.890  0.0702  0.0052  0.4082
20542W        W36351  16.564   3.827  15.421  0.0369 -0.2237  0.0593
20543W        W36352   3.069   9.740   2.275  0.0348  0.2210 -0.0701
20544W        W36353  11.255   9.490   4.740 -0.0666  0.4072  0.1608
20545W        W36354  18.550  12.681  12.507  0.1112  0.0380 -0.2908
20546W        W36355   7.679   2.737  14.974 -0.1233  0.3030  0.1938
20547W        W36356  18.061  17.442  11.556  0.1142 -0.2667  0.2196
20548W        W36357  15.598   9.567   4.855 -0.0046  0.3406  0.2281
20549W        W36358   8.308   5.367   3.420  0.3046  0.0368  0.1913
20550W        W36359  13.392  17.807  15.342 -0.0706  0.2163  0.1026
20551W        W36360   8.180  18.193  13.755 -0.1540  0.0054  0.0428
20552W        W36361  10.846  13.494   3.907 -0.0107 -0.0199  0.0134
20553W        W36362   5.322   2.166  12.401 -0.2492 -0.1069 -0.2779
20554W        W36363  17.123  18.714   0.482 -0.1965  0.1694  0.1967
20555W        W36364  10.206   2.054  14.923  0.2020  0.0017  0.2230
20556W        W36365   4.477   2.162   2.720 -0.1191 -0.0573  0.1940
20557W        W36366   8.009   0.201  12.508 -0.3297  0.1376 -0.1610
20558W        W36367  18.837  17.290  10.825  0.0662 -0.0526 -0.2815
20559W        W36368   1.020  14.578   5.562  0.0748  0.0670  0.1856
20560W        W36369   5.728  10.362  13.984 -0.0384  0.1150 -0.0304
20561W        W36370   8.783   3.643  13.489  0.0935  0.1094 -0.0164
20562W        W36371   3.196   5.821  13.628  0.3428  0.0839  0.1515
20563W        W36372  17.867   8.541   4.270  0.0068 -0.1065  0.0006
20564W        W36373  12.142   5.992   1.159  0.1796 -0.3879  0.0898
20565W        W36374   9.983   3.811  10.734  0.1384  0.0507 -0.3209
20566W        W36375  18.575   7.160  14.642  0.2982 -0.0984  0.2033
20567W        W36376  18.440   9.785   9.790 -0.0187  0.3095 -0.2780
20568W        W36377  11.123   9.773   4.269  0.0038 -0.1810 -0.1638
20569W        W36378   9.717  14.531  15.058  0.2144 -0.2161  0.2817
20570W        W36379  12.176  18.234   3.064  0.1214 -0.1292 -0.1187
20571W        W36380   3.302   1.403   2.877 -0.0938 -0.0608  0.1130
20572W        W36381  16.500  13.797  14.335 -0.3139  0.0441 -0.0305
20573W        W36382   2.261  15.637  10.493 -0.1689 -0.3424  0.2888
20574W        W36383  13.408   9.420   4.199  0.1517 -0.0687 -0.0369
20575W        W36384   7.759  14.000   3.080 -0.1438  0.0566 -0.1356
20576W        W36385  10.506   5.694   2.998 -0.2801  0.1976 -0.0663
20577W        W36386   8.312  12.332  14.671  0.2442  0.0709  0.0632
20578W        W36387   5.964  11.851   2.044  0.1608  0.1620 -0.0086
20579W        W36388   7.825  14.218  11.887 -0.0188  0.4002 -0.0432
20580W        W36389   2.130  14.992   0.858 -0.2405 -0.3706 -0.1840
20581W        W36390  16.801   0.622   1.317  0.2922 -0.2833  0.1711
20582W        W36391  16.772   1.790   1.869 -0.2619  0.1097  0.1655
20583W        W36392  16.124  16.882   1.417 -0.1884 -0.2973 -0.0916
20584W        W36393  13.466  13.297  10.376 -0.2197  0.0515 -0.1834
20585W        W36394   0.050  17.405   0.289  0.0952 -0.0330  0.0424
20586W        W36395   0.498   2.305   1.732  0.1136 -0.0072  0.0554
20587W        W36396   5.562  10.791   3.438  0.1135  0.0077  0.1323
20588W        W36397   0.551   9.237   3.661 -0.0506 -0.1606  0.3150
20589W        W36398  18.497  12.238   3.297 -0.0480 -0.0148 -0.2284
20590W        W36399   2.112  11.416   1.134 -0.1110  0.1336  0.0222
20591W        W36400  14.638  15.390  11.001  0.0218  0.0531 -0.4695
20592W        W36401  10.858  18.778   3.042 -0.0106 -0.1762  0.2686
20593W        W36402   3.138   8.589   3.964 -0.2010  0.2174  0.0597
20594W        W36403  11.955  17.514   4.343  0.0899  0.0121 -0.2713
20595W        W36404  10.408  17.825   0.911  0.1435  0.2099 -0.1641
20596W        W36405   2.682  12.434  15.172  0.1649  0.2104 -0.1027
20597W        W36406  11.977   3.022  13.264  0.0797 -0.4199 -0.1211
20598W        W36407  13.860   1.781  10.883  0.0881  0.1780 -0.2333
20599W        W36408  15.042   7.071  13.074 -0.0419 -0.2016 -0.0204
20600W        W36409   9.883   3.651   3.564  0.0796  0.0039 -0.0527
20601W        W36410   6.776   5.932   0.908 -0.0641 -0.3101 -0.0460
20602W        W36411  10.900   6.614  13.143 -0.0322 -0.1618 -0.0833
20603W        W36412  14.752   1.499  12.369  0.2150 -0.4511  0.0402
20604W        W36413  14.978  10.759  11.879  0.0277  0.0820  0.0059
20605W        W36414   5.032   1.229  15.125 -0.0208 -0.2745  0.1450
20606W        W36415   4.441   2.070  12.576  0.0725 -0.3067 -0.2798
20607W        W36416   3.417  13.785  14.557  0.2573  0.0177  0.1610
20608W        W36417  14.307   8.417   4.928  0.3641 -0.1629 -0.1234
20609W        W36418  13.177  10.563   2.015 -0.2053 -0.0833 -0.2433
20610W        W36419   9.824   8.709   3.020 -0.0410 -0.1665 -0.1755
20611W        W36420   5.291  12.646   0.691 -0.0207  0.0516  0.0260
20612W        W36421   1.523   4.152  12.954  0.0990  0.0625  0.1513
20613W        W36422  11.471  15.279  14.754  0.0302  0.2359 -0.3579
20614W        W36423   8.684   1.975  12.513  0.2324 -0.3693  0.0687
20615W        W36424  10.526  14.015  10.839  0.3283 -0.4384 -0.2708
20616W        W36425  15.568  14.674  14.373  0.2063 -0.2650 -0.2888
20617W        W36426   8.942  12.346  10.735  0.0333 -0.0430  0.0646
20618W        W36427  12.518   4.316  13.636 -0.0419  0.2989 -0.1857
20619W        W36428   2.996  12.854   4.445  0.2449 -0.2419 -0.0372
20620W        W36429  17.973   9.825   2.467 -0.0265  0.0462 -0.1708
20621W        W36430   0.701   1.677  15.439 -0.1296 -0.0801  0.0802
20622W        W36431  17.005  10.870   0.839  0.3201 -0.1576  0.0647
20623W        W36432   3.603   9.592   5.276 -0.5960  0.0689 -0.0306
20624W        W36433   2.312  13.618   5.301  0.0905  0.1748  0.1876
20625W        W36434  12.896   4.725   0.562 -0.2979 -0.0818  0.2233
20626W        W36435   9.049   5.734   3.670 -0.1218  0.1420  0.1142
20627W        W36436  14.584   0.122   2.467  0.0883  0.3808  0.0791
20628W        W36437   6.647   8.835   4.117 -0.0884 -0.1535  0.2015
20629W        W36438  18.134  12.323  14.947  0.3123 -0.4605  0.1496
20630W        W36439   3.684   8.546  12.920  0.2617 -0.0698 -0.2784
20631W        W36440   2.216  17.515   2.627 -0.0790 -0.0975 -0.0842
20632W        W36441   3.386  11.051   2.766  0.2110 -0.0573 -0.2737
20633W        W36442  10.892   7.161   1.985 -0.1172 -0.0113  0.0101
20634W        W36443   0.602   3.450  11.043 -0.1140 -0.1254 -0.0838
20635W        W36444  15.773   7.836   3.162 -0.2036  0.2481 -0.2440
20636W        W36445   8.823  15.578  12.954 -0.0601 -0.3456 -0.2380
20637W        W36446   1.197   2.360  14.220  0.3145 -0.1748 -0.1947
20638W        W36447  17.750   3.504  12.027  0.2064 -0.2071  0.0443
20639W        W36448   3.088   0.908  15.426  0.1177 -0.1582  0.0610
20640W        W36449  14.920   1.291   3.223  0.1093  0.2955  0.0679
20641W        W36450   0.324  16.200   2.045 -0.3621  0.1097  0.1662
20642W        W36451   5.191   2.543   5.045  0.1067  0.0869  0.0103
20643W        W36452   1.063  18.522  12.543 -0.0282  0.0669  0.0578
20644W        W36453   8.740   1.599   5.352 -0.1760  0.1126 -0.1201
20645W        W36454  15.891   0.445   5.144  0.2231 -0.1457 -0.2055
20646W        W36455   5.595  11.335   0.247 -0.0082 -0.0474  0.1100
20647W        W36456   9.644   1.370   3.703  0.2895 -0.0260 -0.1799
20648W        W36457  12.754   1.929  10.318  0.1743 -0.0840 -0.1325
20649W        W36458   4.552  13.682   0.686  0.0389  0.1849  0.3237
20650W        W36459   7.698   9.635   2.207 -0.0918 -0.1432  0.0233
20651W        W36460  12.501   3.745  10.302 -0.1978  0.0303  0.0524
20652W        W36461  12.403  17.935   2.115 -0.2125 -0.0085 -0.0313
20653W        W36462   1.433   3.126   0.913 -0.0350 -0.3875 -0.0271
20654W        W36463   1.341  17.334  11.123  0.6754  0.0003 -0.0839
20655W        W36464  10.747  11.242  11.781 -0.0835  0.2730 -0.2166
20656W        W36465   9.279   6.165   3.907  0.0312  0.0209  0.2587
20657W        W36466   3.045  16.720   3.803  0.1484 -0.2287 -0.0455
20658W        W36467  17.792  18.716   2.976 -0.1294  0.0244 -0.1793
20659W        W36468   5.591  13.570   4.509 -0.1951 -0.3223 -0.1676
20660W        W36469   3.608   3.401  14.310  0.3772  0.1025  0.0823
20661W        W36470  11.767   2.049  14.215 -0.0456  0.1978 -0.1293
20662W        W36471  16.206  16.744   4.970  0.0256  0.0102  0.0641
20663W        W36472  17.164   0.397   1.593 -0.5255  0.1221 -0.2302
20664W        W36473  14.435  18.750  14.707  0.1447 -0.0062 -0.1420
20665W        W36474  14.231  10.289  12.407  0.0155  0.2420  0.0754
20666W        W36475   9.801  10.619  11.844  0.2850  0.4260  0.0348
20667W        W36476   9.472  17.707   0.014  0.2304 -0.1725  0.0204
20668W        W36477   5.301  17.846  14.067 -0.0254 -0.1719 -0.0076
20669W        W36478   5.471   9.163  12.246 -0.2141  0.0736  0.0013
20670W        W36479  13.454   3.054   5.113 -0.1668 -0.1010 -0.1144
20671W        W36480  15.744  12.702  14.052  0.2680 -0.0596  0.1527
20672W        W36481   7.436  11.875  13.349  0.2061  0.0874 -0.0297
20673W        W36482  16.634  15.391   3.329  0.1129 -0.2292  0.0708
20674W        W36483  13.099  17.549   1.952 -0.3474 -0.0923  0.1514
20675W        W36484   7.419  12.419  14.877 -0.0964  0.2539 -0.0348
20676W        W36485   1.184   5.550   3.349 -0.3168  0.1694  0.0040
20677W        W36486   5.130  11.726   4.074 -0.1059  0.1538  0.4856
20678W        W36487  16.012   0.194  10.626  0.0578 -0.0247  0.0916
20679W        W36488   4.566   3.375  10.932  0.1703  0.2724  0.1771
20680W        W36489  12.783   9.783   3.165 -0.1423 -0.0619 -0.3237
20681W        W36490   8.952  15.045   0.976 -0.0760 -0.2143  0.2004
20682W        W36491  14.606   9.656   5.114 -0.0243 -0.1531  0.1595
20683W        W36492  10.744   3.322  11.598  0.2264 -0.1199  0.2584
20684W        W36493   5.824   4.844   1.889 -0.3395 -0.0351 -0.0234
20685W        W36494   2.763  10.726  11.331  0.5671  0.3301  0.1850
20686W        W36495  11.008   0.653   1.093 -0.1864  0.1486  0.0546
20687W        W36496   0.152  11.459  12.521  0.0100 -0.1161  0.0298
20688W        W36497  13.263   0.031   4.735 -0.1436  0.2541 -0.0143
20689W        W36498  14.224  18.460   1.007  0.0861 -0.1509  0.0713
20690W        W36499  14.926   0.190  12.018  0.2129  0.1396  0.1501
20691W        W36500   0.929   6.889   1.076 -0.1145  0.2503 -0.3482
20692W        W36501   9.582  18.767   1.993  0.0299 -0.2986 -0.3896
20693W        W36502   0.048  11.596  11.469 -0.1640 -0.0739 -0.2145
20694W        W36503   7.509  15.444  11.104  0.0589 -0.0338  0.2294
20695W        W36504   1.861  16.837   3.356 -0.1925 -0.0040  0.0865
20696W        W36505  11.425  16.937   3.002 -0.1870  0.2576 -0.3316
20697W        W36506   3.801  16.957  15.099 -0.0722  0.0260  0.3450
20698W        W36507   7.124   7.819  13.930  0.0020  0.0952 -0.0211
20699W        W36508  13.653  17.235   2.502 -0.1174 -0.1728  0.1840
20700W        W36509   8.050   6.852  14.183 -0.2765  0.2596  0.2791
20701W        W36510  11.314  12.716  15.178  0.0073  0.2742  0.2307
20702W        W36511   8.912   7.753  12.980 -0.2833  0.3541  0.0886
20703W        W36512  17.497   6.093   4.156  0.0303  0.2600  0.2589
20704W        W36513   3.975   4.356   1.071 -0.0744 -0.0212 -0.0302
20705W        W36514  15.749  18.493  15.303 -0.2788 -0.1030 -0.1414
20706W        W36515   0.709   4.600   2.427  0.0715  0.0293 -0.0750
20707W        W36516  15.980  14.795   4.470  0.0911  0.2942  0.1261
20708W        W36517   4.805  15.690   4.480  0.0764  0.0623 -0.0275
20709W        W36518  11.618  16.287   2.640 -0.0192 -0.1590  0.0162
20710W        W36519  17.342  18.626  12.168 -0.2056 -0.0406  0.2038
20711W        W36520  14.312   3.527  10.934  0.1114  0.0804  0.1203
20712W        W36521  13.589   3.615   4.606 -0.0304 -0.3748  0.0851
20713W        W36522  10.049   4.716   3.653  0.3281  0.1151  0.1634
20714W        W36523  17.277   8.429   5.545  0.1706 -0.0962 -0.0858
20715W        W36524   4.826  16.231   4.357 -0.0195  0.0037  0.3589
20716W        W36525   6.665   0.321  11.584 -0.1870  0.3357  0.1511
20717W        W36526   0.088   6.868  11.646  0.0335 -0.1508 -0.2176
20718W        W36527   1.592  11.026   4.741  0.1537  0.0227 -0.0035
20719W        W36528   1.612   9.750   5.359  0.0736  0.2017 -0.0162
20720W        W36529   4.779   1.796   4.606  0.0936  0.2138  0.5019
20721W        W36530   1.044  11.554  11.671 -0.2278  0.4819  0.0589
20722W        W36531  14.282  15.679   1.192  0.1720 -0.0742 -0.0457
20723W        W36532  10.717  17.059   1.121  0.0172 -0.2680  0.2771
20724W        W36533  14.281  13.313   2.890  0.0809 -0.2173  0.0840
20725W        W36534   0.693  17.370   1.850  0.0214 -0.1292 -0.0645
20726W        W36535   6.617  15.270   5.208 -0.0014 -0.0152  0.0046
20727W        W36536  10.205  16.060  12.833  0.0359 -0.0896 -0.0713
20728W        W36537   2.653   6.190   0.795  0.1458 -0.1958 -0.3848
20729W        W36538  10.415   0.882   2.686 -0.1275 -0.1685 -0.1199
20730W        W36539  17.881  17.995  15.376  0.1090 -0.4314  0.3612
20731W        W36540   9.665   4.542  10.882  0.1352  0.1404  0.3213
20732W        W36541   5.727   3.909   4.049 -0.1659 -0.2341 -0.0960
20733W        W36542  16.582  11.684   1.935  0.3390 -0.0218 -0.0039
20734W        W36543   5.572  15.538   3.005  0.1241 -0.2088  0.3074
20735W        W36544  17.108  12.635   3.487 -0.0201  0.0861  0.5159
20736W        W36545   0.767  13.160   0.352  0.0698 -0.2375  0.2829
20737W        W36546  12.146   4.631   1.948  0.1040 -0.1003  0.1881
20738W        W36547   7.332   2.354   3.042  0.2862  0.0667  0.2767
20739W        W36548  15.415   3.549   9.651  0.0744 -0.0768  0.0220
20740W        W36549   4.733   9.795   4.532 -0.3112 -0.0050  0.0146
20741W        W36550   7.316  17.332   0.808 -0.1459 -0.4950 -0.0456
20742W        W36551  17.631   0.468   0.285 -0.2834 -0.1870  0.5715
20743W        W36552   3.102  14.739   3.208  0.1911  0.1855 -0.2344
20744W        W36553   9.404  18.528  14.590 -0.1080  0.0148  0.0432
20745W        W36554  11.582   3.983   2.409  0.0863 -0.1315  0.5345
20746W        W36555   0.463  10.164   4.914  0.0677 -0.1962  0.1240
20747W        W36556  15.830   0.169  12.389  0.0470  0.0434  0.0617
20748W        W36557   9.275  18.787   4.347 -0.0771 -0.0138 -0.3649
20749W        W36558   0.018   7.418  15.113  0.0797  0.0028 -0.1745
20750W        W36559   0.778   4.286   0.048  0.0908 -0.1337 -0.1081
20751W        W36560   0.914   4.582  12.541 -0.3833 -0.1564  0.0540
20752W        W36561   1.059   6.136   2.910 -0.0954 -0.3769 -0.0021
20753W        W36562   6.146   4.062  14.435  0.3157 -0.1198  0.2195
20754W        W36563   4.215   2.839   4.900 -0.2958  0.1475 -0.0998
20755W        W36564   4.350  13.546  13.490 -0.2333  0.0724  0.1914
20756W        W36565   2.392   6.363  12.287 -0.2847  0.0495  0.2136
20757W        W36566  11.329  18.461   2.953 -0.2039 -0.1039  0.1344
20758W        W36567   4.059   4.102   3.697  0.1000 -0.2429 -0.0468
20759W        W36568  17.690  13.549  13.966 -0.4574  0.1032  0.1479
20760W        W36569  15.979   2.969  12.417 -0.2582  0.0873 -0.2369
20761W        W36570   5.207  18.762   4.794 -0.1219  0.6169  0.0213
20762W        W36571   1.650  15.850   4.691 -0.1940 -0.1448  0.2360
20763W        W36572  11.983   1.999   2.966  0.0997 -0.0678 -0.0421
20764W        W36573   5.225  14.402   3.534  0.0888  0.0888 -0.2579
20765W        W36574  12.203   2.348   4.412  0.2222 -0.0910  0.2758
20766W        W36575   9.518   2.364  12.706 -0.0294  0.1655  0.0602
20767W        W36576   5.058   0.907  11.084  0.5367  0.5408  0.1954
20768W        W36577   0.041   2.460  14.236  0.3410  0.0798 -0.1768
20769W        W36578   6.126  18.362  15.219 -0.2412 -0.0773  0.1126
20770W        W36579   9.138  11.194   1.713 -0.0284  0.0894  0.2383
20771W        W36580  10.565  16.776  11.036 -0.0702 -0.0453  0.3186
20772W        W36581  18.765  16.827   2.545  0.0430 -0.2492  0.0505
20773W        W36582  11.137  16.793  11.253  0.0246 -0.0842 -0.3262
20774W        W36583  11.099   5.037   4.527 -0.2370 -0.1986  0.2446
20775W        W36584  18.898  12.712   1.360  0.1821 -0.1348  0.1976
20776W        W36585  15.332  10.113   1.373 -0.1157  0.2045 -0.2655
20777W        W36586  13.870   0.331   1.369  0.0222  0.1848  0.0710
20778W        W36587  16.759   1.691  13.656 -0.0058 -0.0728 -0.0590
20779W        W36588   6.525  17.239   5.515  0.2655  0.0588  0.1471
20780W        W36589   3.282   1.240   1.052  0.0992  0.1699 -0.0277
20781W        W36590  18.538  14.497  14.050 -0.2191  0.0368 -0.1910
20782W        W36591   0.992   7.319  12.318  0.2226 -0.1362 -0.0295
20783W        W36592   4.460   9.362   0.091  0.3040 -0.0899  0.0804
20784W        W36593   5.927   6.368  10.976  0.0505  0.2495  0.0198
20785W        W36594  13.461  11.267   4.518  0.1358  0.3316 -0.1549
20786W        W36595  18.223   0.316  15.224 -0.0459 -0.2070  0.0786
20787W        W36596   4.895  14.125   2.594  0.0113  0.2064 -0.2208
20788W        W36597   6.261  16.195   0.030 -0.1198 -0.1444  0.1429
20789W        W36598  11.345   7.785   2.564  0.1929  0.1605 -0.1241
20790W        W36599   8.885   7.959   6.317 -0.1004  0.0660  0.1878
20791W        W36600   2.799   4.937   5.427  0.1685  0.0888 -0.0227
20792W        W36601  14.289   4.360   0.947 -0.1288 -0.0633 -0.0274
20793W        W36602  12.379  16.797   4.521 -0.1151  0.1842 -0.2536
20794W        W36603   0.715   5.596   4.742 -0.4818 -0.1169  0.3132
20795W        W36604   0.795   0.381  12.007 -0.6621 -0.2373 -0.2428
20796W        W36605   4.135   0.178   2.259  0.1388 -0.0940 -0.0652
20797W        W36606  15.818  17.434  10.557  0.0317  0.0766  0.2341
20798W        W36607  11.430  15.661   9.847 -0.2157 -0.5699 -0.0282
20799W        W36608  11.030   7.386   5.272  0.1309 -0.2453  0.0957
20800W        W36609   8.713   2.769  14.155  0.0870 -0.0332 -0.2779
20801W        W36610   6.885  12.366  14.969 -0.0701  0.1159  0.0225
20802W        W36611   9.307  13.925   4.812 -0.0051  0.1636 -0.0444
20803W        W36612  11.127   5.145  12.632  0.0971  0.0417  0.0228
20804W        W36613   0.060  10.012   3.458 -0.1331 -0.2740 -0.1633
20805W        W36614   1.774   8.215  14.808 -0.1210  0.0087 -0.0419
20806W        W36615   4.165   1.149  12.346  0.0247  0.0331 -0.3490
20807W        W36616   8.615  14.386   5.692 -0.1649 -0.0222  0.0690
20808W        W36617  13.206   7.208   2.116  0.0081  0.0353  0.2858
20809W        W36618   7.714  11.378  11.637  0.0395 -0.0005 -0.2915
20810W        W36619  10.027  13.481   2.476 -0.2349  0.1471  0.2131
20811W        W36620   5.040  14.069   3.174 -0.3106 -0.1218 -0.1332
20812W        W36621  15.205   1.427  10.444 -0.0894  0.0017 -0.2687
20813W        W36622   3.999   6.745   4.239  0.3715 -0.4662  0.0178
20814W        W36623  10.826   8.140  13.111 -0.0651 -0.1888  0.1722
20815W        W36624   9.836   7.697   4.006  0.0958 -0.0110  0.2769
20816W        W36625  16.176  13.209  10.699 -0.1488  0.2891 -0.0430
20817W        W36626  18.384   2.701   3.672 -0.0289 -0.0003 -0.0530
20818W        W36627  10.504   4.017  12.824 -0.0340 -0.0121 -0.0484
20819W        W36628   8.245   2.943   0.124  0.0893  0.1632  0.0172
20820W        W36629   3.252  12.731  11.440  0.1496  0.0329  0.1144
20821W        W36630  15.127   8.640  14.513 -0.0842  0.2559  0.0009
20822W        W36631   6.713   2.134  11.665 -0.2543 -0.0749 -0.1276
20823W        W36632  15.448   4.091   0.569 -0.1977 -0.0148  0.0637
20824W        W36633   7.825  15.243   2.034 -0.0625  0.0928 -0.3539
20825W        W36634  11.396  10.722   2.021 -0.1872 -0.3123 -0.0338
20826W        W36635  10.143  15.622  14.105 -0.1617 -0.0615  0.2018
20827W        W36636   3.636   2.013   2.184 -0.4401 -0.0640 -0.0896
20828W        W36637  10.066   1.266   5.838 -0.2463  0.1479  0.1612
20829W        W36638   3.923  14.173   5.069 -0.4527  0.2244 -0.1487
20830W        W36639   4.865   4.011  14.795  0.1830  0.1461 -0.0240
20831W        W36640  16.858  17.470  12.619  0.2473 -0.1663 -0.0447
20832W        W36641   4.913   2.557  12.495  0.1307  0.0193 -0.0526
20833W        W36642   9.830  15.979   4.178 -0.1967  0.1807  0.4479
20834W        W36643  14.155   6.211   2.859 -0.0929 -0.0447  0.1601
20835W        W36644   1.574  18.858  10.816 -0.1066 -0.1392  0.0226
20836W        W36645   9.337   9.099  14.209 -0.0990  0.1578 -0.3122
20837W        W36646  13.782  10.140   5.334 -0.1531 -0.0915 -0.1519
20838W        W36647   6.405   9.213  11.413 -0.0468  0.0311  0.0830
20839W        W36648  11.001   6.206   1.313  0.1704  0.5301  0.0600
20840W        W36649  16.634  17.628   3.177 -0.5203 -0.1159  0.1549
20841W        W36650   9.886  13.105  15.430 -0.1244 -0.1190  0.2446
20842W        W36651  11.423  17.834   3.088 -0.0975 -0.2110  0.4291
20843W        W36652   3.252   3.558   5.212 -0.0362  0.0558  0.2498
20844W        W36653  11.745   1.527  14.240 -0.0887  0.0925 -0.1886
20845W        W36654   3.013  13.100   4.916  0.0511 -0.1206 -0.0906
20846W        W36655  18.369  10.573  13.735  0.1852  0.1685 -0.0623
20847W        W36656   7.256   4.031   1.366  0.0724 -0.1725 -0.2917
20848W        W36657  10.040   1.865  14.358  0.0012 -0.1138  0.0160
20849W        W36658  11.573   7.329  11.274 -0.0655 -0.0051 -0.0485
20850W        W36659  12.643   5.022  10.163  0.0428  0.0473  0.1803
20851W        W36660  10.851   9.214  15.005  0.1903  0.1750  0.2427
20852W        W36661   9.266  14.410   0.209 -0.0839 -0.0094  0.1819
20853W        W36662   1.427   3.890  14.845  0.2553  0.1721  0.0447
20854W        W36663  12.114  17.781   2.882 -0.1786 -0.0100  0.0072
20855W        W36664   8.431  17.093  12.614 -0.1225 -0.0484 -0.2346
20856W        W36665  16.217   3.458   5.001  0.1132  0.0791 -0.2409
20857W        W36666  13.599  11.875  13.826 -0.0397  0.0377 -0.0193
20858W        W36667  14.471   6.300  10.898  0.0585 -0.0265  0.4504
20859W        W36668  14.951  17.222   5.053  0.2628  0.2435  0.0292
20860W        W36669   1.269   1.331  10.926 -0.1156  0.0097 -0.0072
20861W        W36670   1.899   9.660  14.350 -0.0412 -0.2836  0.1101
20862W        W36671   8.568   6.161   1.708 -0.1128  0.2394 -0.0026
20863W        W36672  15.597  16.814  14.157 -0.1047 -0.2342  0.1409
20864W        W36673   5.500  14.089   3.349 -0.2479  0.1356  0.2301
20865W        W36674  10.975   5.028  15.136  0.1095 -0.2574  0.0231
20866W        W36675  16.552   1.143   3.537  0.1636 -0.1836 -0.0603
20867W        W36676  12.301   5.871   4.710 -0.2777  0.1642 -0.0762
20868W        W36677  14.414   4.625  14.090 -0.0057  0.2314  0.0644
20869W        W36678  11.733   0.223  14.988  0.0846 -0.3935  0.0143
20870W        W36679  15.597  17.297  12.966  0.4765 -0.2468  0.3883
20871W        W36680  15.018  17.438  15.099  0.0415  0.0163 -0.0396
20872W        W36681   6.695   3.081  12.570  0.2154  0.0526  0.4182
20873W        W36682  15.463   7.887   1.543  0.0627  0.0087 -0.1818
20874W        W36683   2.179  10.065  14.507  0.0028  0.3094  0.1924
20875W        W36684   9.582   1.838  13.612 -0.3077 -0.2877 -0.0427
20876W        W36685  10.373   5.803  15.111 -0.1375  0.2365 -0.3012
20877W        W36686  15.907  18.063  15.107  0.5270  0.2171 -0.0206
20878W        W36687  12.999  11.299  10.906 -0.3289 -0.2581  0.1623
20879W        W36688  13.143  14.610  11.738  0.0274  0.1334  0.0197
20880W        W36689  13.031   9.101   0.972  0.0920 -0.1025 -0.1591
20881W        W36690   4.042   9.091  15.366  0.1670 -0.0765  0.0933
20882W        W36691   6.662  11.068  14.728  0.0385  0.0552 -0.3071
20883W        W36692  17.434   9.730   2.264 -0.0977  0.0357  0.0812
20884W        W36693   5.887  18.500   3.688  0.0818 -0.0260  0.2853
20885W        W36694   2.781   6.012   4.597 -0.1882  0.2352  0.4157
20886W        W36695  12.637  17.677   1.728 -0.0424  0.2189 -0.1156
20887W        W36696   1.202   6.933   2.146  0.0013  0.0681 -0.0732
20888W        W36697  18.044  10.144   4.927 -0.2999 -0.0026  0.2872
20889W        W36698   2.551   7.067   2.160  0.0733  0.1090  0.0075
20890W        W36699   3.140  16.305  14.921  0.1152 -0.1922 -0.1498
20891W        W36700   8.075   9.049   2.462  0.1898  0.2647 -0.3247
20892W        W36701  11.142  18.880   1.535 -0.1774  0.0092  0.0686
20893W        W36702  11.314   3.584  14.226  0.2085  0.0056 -0.1181
20894W        W36703  10.584  15.957   1.671  0.2198  0.1282  0.0544
20895W        W36704   8.491  11.680  15.051  0.2861  0.0916  0.1675
20896W        W36705   6.490   2.573   2.718 -0.3026  0.0074  0.0587
20897W        W36706  15.368  18.229  13.934  0.1190  0.1346  0.0802
20898W        W36707  13.218  11.833   0.230  0.0189 -0.1040 -0.1696
20899W        W36708  18.529  15.220   3.965  0.0340 -0.0475 -0.1312
20900W        W36709   9.753   0.038   0.928 -0.1110 -0.0673 -0.1052
20901W        W36710  12.532   3.498   3.675  0.0535 -0.2800  0.0318
20902W        W36711  15.858  12.626   0.474  0.4129  0.1620 -0.2242
20903W        W36712  11.633   8.806  11.957 -0.1479 -0.1301 -0.2201
20904W        W36713  15.752   9.724  11.186  0.1518  0.2168 -0.3112
20905W        W36714  18.400   2.249   1.053  0.1901  0.0994 -0.1836
20906W        W36715  10.048  13.813  13.575 -0.3588  0.1387 -0.0988
20907W        W36716   5.500  12.805  15.392  0.1834  0.0366 -0.0592
20908W        W36717   8.991  18.563  10.866 -0.0403 -0.0433 -0.4269
20909W        W36718  18.383  11.971  13.921 -0.0548 -0.4289 -0.1268
20910W        W36719   9.466   4.869  14.729  0.1164 -0.0484  0.0559
20911W        W36720  15.589   9.292  12.442  0.1968  0.2050 -0.0869
20912W        W36721  10.078  10.039  13.711  0.1611  0.0359  0.3129
20913W        W36722   9.593  14.366   1.620 -0.2039 -0.0608 -0.2318
20914W        W36723   2.869  14.123  12.440 -0.2096 -0.3715  0.1772
20915W        W36724   7.788   1.505  13.720  0.0392 -0.2192 -0.1506
20916W        W36725   9.243   1.497  10.704  0.2989 -0.0084 -0.0340
20917W        W36726   5.508  13.121  10.732 -0.0962 -0.1187  0.1586
20918W        W36727  11.594  17.164   2.532 -0.3563 -0.0128 -0.0781
20919W        W36728  13.480  12.161   1.877 -0.0156 -0.0514  0.0100
20920W        W36729  13.498   8.757   0.955  0.1891 -0.0368  0.1868
20921W        W36730   8.850   5.214  12.998  0.1117 -0.1479  0.0752
20922W        W36731   8.460  12.060  12.380  0.3285  0.3178  0.0575
20923W        W36732  12.570   0.150   3.237 -0.0645 -0.2757  0.0729
20924W        W36733   4.193  11.560   2.215  0.1298  0.1008  0.2941
20925W        W36734   2.324  18.669   0.959 -0.1151  0.2676 -0.1251
20926W        W36735  10.450   2.030  15.426 -0.1056 -0.0348  0.3764
20927W        W36736   7.962  11.509  10.797  0.2760 -0.3852 -0.1083
20928W        W36737   3.163  16.616  10.285 -0.5200  0.0280  0.0894
20929W        W36738   0.719  18.870  14.685  0.1105 -0.2587 -0.0052
20930W        W36739   8.673   4.416  11.297  0.2064  0.0339  0.1828
20931W        W36740   2.019   4.679   5.003  0.1550  0.1507  0.0049
20932W        W36741  10.481   1.922   3.311  0.2062 -0.1644  0.0901
20933W        W36742  12.503  11.047  12.664  0.1676 -0.0912 -0.1613
20934W        W36743  15.879   1.933  15.184 -0.0168 -0.0834  0.1425
20935W        W36744  15.348   7.516   3.014 -0.1906  0.0654  0.1136
20936W        W36745   1.983  16.582  14.618  0.1515 -0.3967 -0.3009
20937W        W36746  13.353  13.090  13.335  0.0339 -0.0904 -0.0541
20938W        W36747   3.206   7.412  11.905 -0.1987 -0.0529 -0.1463
20939W        W36748  13.324   4.241  10.995 -0.0636  0.0496 -0.0225
20940W        W36749   5.453  11.756   5.043  0.3354  0.0667 -0.0048
20941W        W36750   8.304  18.804  12.283 -0.1816 -0.0332 -0.0448
20942W        W36751  10.057  11.748   3.366  0.0517 -0.1854 -0.0134
20943W        W36752  12.051  11.698   0.271 -0.1136 -0.1258  0.1465
20944W        W36753   6.053  15.547   0.664 -0.0041  0.0731  0.1912
20945W        W36754   8.738   6.341   4.971 -0.1849  0.0550 -0.1201
20946W        W36755   1.787   9.287  13.928  0.0366 -0.1857 -0.0671
20947W        W36756  16.122   8.401  13.935  0.5855 -0.0244 -0.3621
20948W        W36757  14.941   9.241  13.198  0.1134  0.3115  0.3768
20949W        W36758   7.807  14.843   2.268  0.2297 -0.3244 -0.1262
20950W        W36759   3.352   8.290  11.581  0.1634  0.3866 -0.0825
20951W        W36760  17.833   0.055  11.844 -0.0512  0.0280 -0.0748
20952W        W36761   0.991   7.988   4.141 -0.2433  0.2937  0.3668
20953W        W36762  17.511   3.578   4.682  0.1299 -0.0661  0.1787
20954W        W36763  10.380   6.854   3.017 -0.0209  0.2752  0.1340
20955W        W36764   2.514  13.341   3.630 -0.0073  0.1124  0.1903
20956W        W36765   9.169  13.605   1.974 -0.0260  0.1400 -0.1718
20957W        W36766   6.289  15.001  14.458 -0.0129  0.3985  0.0886
20958W        W36767  11.133  17.558   0.080  0.2222 -0.3626  0.3323
20959W        W36768   3.149   4.122   0.626 -0.3094  0.0727 -0.1345
20960W        W36769  17.543   9.506   1.306 -0.0693 -0.0469 -0.3027
20961W        W36770   0.745  12.027   1.274  0.0669  0.0139 -0.2903
20962W        W36771   7.858  12.188   3.296  0.1843  0.1095 -0.0432
20963W        W36772   4.329  16.458  12.563 -0.1644 -0.4029  0.3282
20964W        W36773   7.896  17.676  12.045  0.0654 -0.0311 -0.5800
20965W        W36774  12.257   4.566  10.269 -0.0912  0.0902  0.2534
20966W        W36775  10.668  18.531   3.497  0.2311  0.4958 -0.0174
20967W        W36776  14.828  18.552  10.859 -0.3176  0.1546 -0.1458
20968W        W36777   4.000  15.919  11.192  0.0830  0.0795  0.3546
20969W        W36778   7.177   8.689   5.603 -0.1011 -0.1494  0.2177
20970W        W36779  18.569   2.500  12.062 -0.1024  0.0638  0.1471
20971W        W36780  12.326   4.983   0.609  0.2980  0.1699  0.2781
20972W        W36781   1.130   5.075  14.191  0.1499 -0.0161  0.1356
20973W        W36782   3.082   4.888  15.008 -0.0037 -0.2223 -0.1444
20974W        W36783   3.015  17.075  14.020  0.1951  0.0706 -0.2429
20975W        W36784   1.388   7.583  11.207 -0.2885  0.1382 -0.1035
20976W        W36785   4.422  17.553  14.983  0.2174 -0.1836  0.3535
20977W        W36786  11.948   1.487   1.454  0.0323  0.1538  0.4028
20978W        W36787  17.210   3.410  14.881 -0.1338 -0.1942 -0.1962
20979W        W36788  17.974  13.730  10.281  0.0773  0.2222 -0.1300
20980W        W36789   6.137  16.103   2.799  0.1968 -0.1330  0.1089
20981W        W36790  18.857   2.544   5.331  0.3059  0.0345  0.3356
20982W        W36791  17.791   3.553   2.236 -0.1191 -0.1324  0.0898
20983W        W36792   4.346   5.020   0.643 -0.1864  0.0476  0.2110
20984W        W36793  16.156   0.136   3.530  0.0544  0.1940 -0.0525
20985W        W36794  16.798  17.632  13.494 -0.0760 -0.2952 -0.3541
20986W        W36795  17.479   9.776   2.750 -0.0450 -0.1578 -0.1892
20987W        W36796   5.107  12.045   2.328  0.0983 -0.2034 -0.0278
20988W        W36797  12.808  18.181  14.763 -0.2925  0.1754 -0.0002
20989W        W36798  11.858  16.842   2.794  0.1648  0.2972  0.3020
20990W        W36799  17.165   3.979  12.792  0.1732 -0.0151  0.1533
20991W        W36800   9.106  15.457  11.425  0.0761 -0.0262  0.0028
20992W        W36801  15.807   4.704  15.355  0.1365  0.2859  0.0317
20993W        W36802   7.615   0.707  15.386 -0.0078 -0.2840 -0.1052
20994W        W36803   4.940   9.867   1.988  0.1004  0.0967  0.1842
20995W        W36804   8.376   8.078   4.401 -0.0001  0.2014 -0.1417
20996W        W36805  18.208   8.521   0.481 -0.2467 -0.0320  0.1209
20997W        W36806   0.457  18.792   0.032 -0.0896 -0.0894  0.0261
20998W        W36807   1.428   0.700   3.758 -0.0051  0.0201  0.2676
20999W        W36808   6.524   5.979  13.916 -0.0380  0.0277 -0.0425
21000W        W36809   0.979   2.219  11.244 -0.1710 -0.1002  0.0327
21001W        W36810   6.823  18.217   2.208 -0.5131  0.2378  0.2755
21002W        W36811   7.470   0.355   1.474 -0.0936  0.1317  0.2738
21003W        W36812   1.917  12.398  12.626 -0.2676  0.1872  0.2982
21004W        W36813  15.003  10.093   3.966 -0.2373 -0.0379 -0.0963
21005W        W36814  16.205   9.592  15.075  0.3941  0.1462  0.0810
21006W        W36815   4.581  16.139   2.320  0.3483  0.0591 -0.4312
21007W        W36816  18.789  17.035   2.092 -0.0481  0.3105 -0.1230
21008W        W36817   2.529  12.299   0.781  0.2114 -0.5391  0.4273
21009W        W36818  16.250  18.910   4.104  0.0363 -0.1173 -0.0958
21010W        W36819   5.829   4.982  14.202 -0.3350  0.1847  0.0551
21011W        W36820   0.242  17.230  15.269 -0.0193  0.0807  0.2875
21012W        W36821   6.753   2.263   0.577  0.1702  0.2365  0.1928
21013W        W36822   5.389   5.431   2.152 -0.1224  0.1224  0.0813
21014W        W36823   6.121  12.400  11.599  0.0425  0.0324 -0.1699
21015W        W36824   2.312   3.967  15.372 -0.2748 -0.1578  0.1543
21016W        W36825  16.259   4.265   3.400 -0.3891  0.0365 -0.2492
21017W        W36826  16.601  18.187  11.515  0.1433  0.2230 -0.0170
21018W        W36827  15.391  10.789   5.550 -0.3920 -0.2469 -0.2629
21019W        W36828  16.441  13.097  14.485 -0.2246  0.2753  0.5027
21020W        W36829   3.683   3.998   3.959 -0.1771 -0.1914  0.2542
21021W        W36830   7.519  14.207  12.357 -0.0491  0.1370 -0.0380
21022W        W36831  15.810   2.949   1.761  0.1679 -0.1831 -0.1766
21023W        W36832  13.831   2.160   4.923  0.0543 -0.2420  0.3162
21024W        W36833  10.996  15.319  13.739 -0.0192  0.0775  0.2307
21025W        W36834   9.024   7.371   1.932  0.2021 -0.0195 -0.1420
21026W        W36835   1.870  17.502  15.009  0.3730 -0.2516  0.0304
21027W        W36836   6.671   1.184   0.614  0.1693 -0.0624 -0.0586
21028W        W36837  18.387   6.276  11.752 -0.1673 -0.0067 -0.2318
21029W        W36838  17.088  18.874  15.030  0.0665 -0.2639  0.2224
21030W        W36839   7.526  10.102  11.821 -0.5009 -0.1247 -0.0778
21031W        W36840   4.955  16.346  13.229  0.2607 -0.0311 -0.0269
21032W        W36841   6.831  16.734   3.464 -0.3994 -0.0570  0.2285
21033W        W36842  10.163  15.889  11.304 -0.0874 -0.0446 -0.2113
21034W        W36843  17.890   6.679   3.041  0.0092  0.1227 -0.0728
21035W        W36844  14.510  17.010  14.289 -0.0729 -0.1519 -0.2069
21036W        W36845   2.519   4.792   0.513  0.1155 -0.0151 -0.0352
21037W        W36846   1.507   6.570   3.535 -0.3620  0.3553 -0.2544
21038W        W36847   8.789  14.149  14.071 -0.0315 -0.4223 -0.0696
21039W        W36848   0.473   6.295   4.162 -0.0813  0.0406 -0.0673
21040W        W36849  10.029   5.402  13.526  0.1275  0.0416  0.2233
21041W        W36850  16.720   9.984  14.286  0.0011  0.0071 -0.0671
21042W        W36851   8.501  11.185  12.627  0.1576 -0.1047 -0.0557
21043W        W36852  12.269   8.138   0.273 -0.0184  0.2973  0.0347
21044W        W36853  12.441  13.049   4.977  0.1637 -0.3225  0.4605
21045W        W36854  15.703   6.373   0.254  0.0035 -0.1292  0.4508
21046W        W36855  12.049  14.182  11.616 -0.1253 -0.0506  0.0749
21047W        W36856   9.254   2.903   2.933 -0.1996 -0.2468 -0.1487
21048W        W36857   5.770   0.013   9.798 -0.3654 -0.0871  0.1137
21049W        W36858   6.960  11.564  14.621  0.0946  0.1822  0.5146
21050W        W36859   3.778   0.153   1.767 -0.1841  0.0630 -0.0429
21051W        W36860  15.076  17.487   0.440 -0.1735 -0.0084 -0.0224
21052W        W36861  18.340  10.519  11.124  0.0011  0.2850  0.0943
21053W        W36862   4.784  10.604  12.765 -0.2139  0.0949  0.0748
21054W        W36863   2.194  14.095  10.876 -0.2201  0.2482 -0.3718
21055W        W36864   6.697   5.732   3.361  0.1216  0.0415  0.1151
21056W        W36865  14.008  11.618   1.597 -0.0803  0.1532  0.0752
21057W        W36866  14.858  14.964  11.278  0.1181  0.0977  0.0933
21058W        W36867  18.841  13.926   2.810  0.0095  0.0032  0.0451
21059W        W36868  11.585   2.240   5.572  0.0447  0.0384  0.0962
21060W        W36869  18.728  16.292  14.459  0.3194 -0.0553 -0.3992
21061W        W36870   9.138   5.838   4.733  0.2314 -0.1826 -0.3333
21062W        W36871  17.037  13.989  14.353 -0.0482  0.1412  0.1339
21063W        W36872  14.188   9.161  11.690  0.0692  0.0127 -0.2173
21064W        W36873  16.184  14.208   4.945 -0.0877 -0.0335 -0.0278
21065W        W36874   5.667  17.248   5.037  0.1004  0.2281 -0.1343
21066W        W36875  16.913   4.834   2.260 -0.0996 -0.1977 -0.0582
21067W        W36876  10.767   7.692  11.199  0.1308 -0.0211 -0.1003
21068W        W36877  17.316   9.472  11.987 -0.1131 -0.2586 -0.1279
21069W        W36878  16.798   1.373  10.472  0.1014  0.0341 -0.1465
21070W        W36879  12.260   1.969  12.685 -0.3248 -0.1994  0.0513
21071W        W36880   9.520   6.088   0.776  0.1013  0.2327 -0.1142
21072W        W36881   5.142  17.781  10.566 -0.2475  0.2538  0.0763
21073W        W36882  13.739   4.708  12.723  0.2042  0.3009  0.1818
21074W        W36883  11.535  18.068  14.670 -0.0684  0.1775  0.1292
21075W        W36884  15.707   8.510   2.144 -0.0558 -0.0901  0.1536
21076W        W36885  13.056  11.815  13.105 -0.3086  0.2564 -0.2300
21077W        W36886   3.180   5.568   2.171 -0.1269 -0.0434 -0.1342
21078W        W36887   8.292  11.356  11.729  0.1268 -0.2818 -0.2881
21079W        W36888   8.621  17.418   3.568 -0.1738 -0.2861  0.1041
21080W        W36889  16.607  16.376  14.738 -0.0746 -0.0196 -0.1208
21081W        W36890   7.863   9.072   4.998 -0.2648 -0.2137 -0.1968
21082W        W36891   8.203  17.617   1.845  0.0379 -0.3507  0.2116
21083W        W36892   6.305   1.136   3.737  0.4746  0.0121  0.1190
21084W        W36893   4.052  13.323  12.495  0.0252 -0.1109  0.1830
21085W        W36894   3.410   1.848  14.875  0.0370 -0.0616  0.1527
21086W        W36895   5.940   1.216  14.172  0.1241  0.1390  0.1558
21087W        W36896   0.295   6.160  15.324 -0.4266  0.0457 -0.0619
21088W        W36897  15.362  11.719   3.135  0.2608 -0.2194  0.0865
21089W        W36898  10.108   0.399  10.818  0.1797 -0.1697  0.0436
21090W        W36899   8.409  12.424   3.601  0.0387 -0.2050 -0.1464
21091W        W36900   1.783  15.296  11.082  0.3118  0.1098  0.2226
21092W        W36901   6.374  13.261  11.575 -0.1011  0.0454 -0.0767
21093W        W36902   4.164   7.329  11.771  0.2642  0.0786  0.2009
21094W        W36903  11.326  12.910   1.812  0.2335  0.1652  0.1592
21095W        W36904  12.765  10.374   5.622 -0.0305 -0.1394  0.0281
21096W        W36905   2.477   1.783  14.502  0.0227 -0.2003  0.0180
21097W        W36906   6.967  13.588  10.903 -0.3726  0.1362 -0.2803
21098W        W36907  16.706   5.512   0.122  0.0284 -0.3246  0.0065
21099W        W36908  14.886  15.767  13.519 -0.1414  0.2686  0.0555
21100W        W36909   3.624   2.741   2.091 -0.1540  0.1058  0.1789
21101W        W36910   4.556  15.853  12.440 -0.3415 -0.1134  0.0190
21102W        W36911   2.579   6.828  13.905  0.1301  0.0015 -0.2452
21103W        W36912  13.137  17.756  14.598 -0.4498  0.1508  0.3135
21104W        W36913   5.641  12.997  14.931 -0.0343 -0.1122 -0.2795
21105W        W36914   3.132   8.119  13.955 -0.0437 -0.1386  0.0331
21106W        W36915  17.615   1.319  10.569 -0.2500  0.0546 -0.1070
21107W        W36916   5.950  16.210  14.639 -0.1305  0.1671 -0.0256
21108W        W36917  13.491  17.969   4.473  0.0201 -0.0787  0.1418
21109W        W36918   4.621   9.379   0.650 -0.1128  0.1857 -0.2108
21110W        W36919   3.596   7.030  13.316  0.0070  0.1276 -0.0662
21111W        W36920   1.593  18.541  11.285  0.2112 -0.0763  0.0031
21112W        W36921  12.296   1.505   3.830  0.1573 -0.1930  0.0909
21113W        W36922   3.044  13.753  13.581  0.2687 -0.0692  0.2443
21114W        W36923   4.131  15.121   0.335 -0.3508 -0.0841  0.1338
21115W        W36924   4.228   6.815  11.769 -0.0260  0.0876  0.2573
21116W        W36925  12.811   9.572  14.330  0.1192  0.0329  0.2448
21117W        W36926  12.433   7.684  15.179 -0.0422 -0.0884  0.0032
21118W        W36927   1.665  16.524  15.089  0.0776  0.1082  0.5136
21119W        W36928  18.866   9.738   4.360  0.0701 -0.1411  0.2337
21120W        W36929  14.563  11.380  11.341  0.0801 -0.0748 -0.0484
21121W        W36930   9.319  18.004   3.551  0.3392  0.0533 -0.3030
21122W        W36931  17.982  10.511   5.436  0.0410 -0.0077  0.0175
21123W        W36932   0.333   6.789   2.587  0.1360  0.3856  0.0433
21124W        W36933  15.369   8.188   5.214 -0.0845 -0.1997 -0.0073
21125W        W36934   7.994  15.883  11.305  0.0626  0.0039 -0.1721
21126W        W36935   7.414  13.177  13.214  0.0381  0.0524  0.0248
21127W        W36936  17.682  17.401   2.915  0.1696  0.0654 -0.0623
21128W        W36937   1.531  14.342   1.455 -0.1128 -0.2476 -0.1260
21129W        W36938   4.244   6.503  13.830  0.3424  0.1632  0.0233
21130W        W36939  15.655   6.007  14.087  0.1620 -0.0257  0.0483
21131W        W36940  16.231  17.024  11.820 -0.0800  0.0711 -0.0108
21132W        W36941   8.464   1.932   1.019 -0.1003  0.2640 -0.1935
21133W        W36942  15.100  11.997   3.455  0.1143  0.0874 -0.0376
21134W        W36943  14.389  13.952   3.572  0.1007  0.1697 -0.1559
21135W        W36944   1.466  18.743   3.212 -0.1563 -0.3741 -0.0558
21136W        W36945   5.405  13.131   4.703  0.2114 -0.0208 -0.1463
21137W        W36946  18.239   3.697   1.285  0.0576 -0.0956  0.4637
21138W        W36947  17.377   6.821   3.011  0.2401  0.0806  0.2785
21139W        W36948  13.412   9.845   3.956  0.0973  0.0431 -0.0829
21140W        W36949  14.521   2.658  14.920  0.3898 -0.0507  0.3005
21141W        W36950  16.637   9.508  11.338  0.0264 -0.0617 -0.2843
21142W        W36951   8.686  17.460   2.976  0.1761 -0.3518  0.1547
21143W        W36952   9.700   9.823  11.776 -0.0591  0.0409 -0.2354
21144W        W36953  18.478   7.485   0.894 -0.0295  0.1029  0.5130
21145W        W36954   2.415   3.609  13.981  0.0308  0.5135 -0.2145
21146W        W36955  16.279   2.435  11.259  0.2405 -0.1215 -0.0547
21147W        W36956  10.931  13.502   2.254 -0.2222  0.1686  0.2528
21148W        W36957   8.254  10.420  15.117 -0.0534 -0.3316 -0.4162
21149W        W36958   1.435   1.596   4.328  0.0451  0.1601  0.3020
21150W        W36959  13.950   1.330  14.070 -0.0797  0.1715  0.1349
21151W        W36960  11.762   0.700   3.651  0.1077 -0.2646  0.2373
21152W        W36961  11.768  10.770  14.593 -0.2359  0.0767  0.1168
21153W        W36962   2.942  10.341  11.739 -0.1718 -0.0583 -0.1279
21154W        W36963  12.905   6.630  14.432 -0.3796  0.2836  0.1501
21155W        W36964   3.473   5.336   0.528  0.1402  0.2459 -0.1107
21156W        W36965   5.690  15.319  13.596  0.1145  0.0184  0.3199
21157W        W36966   9.511   9.042   2.249 -0.0586  0.0750 -0.0563
21158W        W36967  15.939  12.919   5.174 -0.1490 -0.0281  0.1611
21159W        W36968  12.143  12.844   4.637 -0.1319  0.0317 -0.0961
21160W        W36969  18.304   2.342  14.865  0.0551  0.3094 -0.2499
21161W        W36970   1.087  11.156  13.435  0.2099 -0.0314 -0.2137
21162W        W36971   5.692  14.758  13.747 -0.0005 -0.0640 -0.2077
21163W        W36972   1.401   4.625  12.709 -0.0458 -0.0265 -0.2721
21164W        W36973  10.144   5.483  10.601 -0.0106 -0.3508 -0.0213
21165W        W36974  12.810   7.370  12.387  0.1537  0.0484 -0.2227
21166W        W36975   0.068  13.897  15.182 -0.1023 -0.2664 -0.1365
21167W        W36976  17.037  10.931   2.975  0.1653 -0.1751  0.0756
21168W        W36977  13.199   3.159   4.660 -0.1599 -0.3704 -0.1080
21169W        W36978   8.600   4.189  13.898 -0.0852  0.3792 -0.0090
21170W        W36979  15.225  18.252  11.870  0.1987 -0.0657  0.1237
21171W        W36980   3.815  13.091  10.641  0.1723  0.1291  0.0999
21172W        W36981   8.321   5.426  11.242  0.1803  0.1380 -0.1550
21173W        W36982  10.424  17.231   4.925  0.0339 -0.0527  0.0877
21174W        W36983   1.525  13.657   2.744  0.0425 -0.0268  0.1551
21175W        W36984  17.353   1.676  11.489 -0.1040  0.2856 -0.1113
21176W        W36985   9.976  11.335   2.071  0.0058 -0.0818  0.0001
21177W        W36986   6.650  15.767   2.987 -0.1883  0.0006 -0.1400
21178W        W36987   3.888   5.438  14.770  0.0275 -0.0720 -0.3028
21179W        W36988  15.321   3.519  11.125  0.1665  0.0393  0.2992
21180W        W36989  18.701   0.080  11.789  0.2418 -0.1305  0.1449
21181W        W36990   8.402   0.192  10.417  0.3214 -0.1646 -0.0517
21182W        W36991   4.699   2.153   1.476  0.2288 -0.2834 -0.0235
21183W        W36992  13.439  17.916   2.146  0.1131  0.2894  0.1864
21184W        W36993  17.924  12.219  15.358  0.0028 -0.2740  0.1778
21185W        W36994   5.490   4.708  10.745  0.2180 -0.0836 -0.0574
21186W        W36995   1.226  13.223   1.677  0.2990 -0.1524 -0.0008
21187W        W36996  11.607  10.893   2.905  0.3638  0.0086 -0.1390
21188W        W36997  16.245  15.102   2.155  0.1482  0.0639  0.0904
21189W        W36998  11.217  13.407   0.442  0.1369  0.0099 -0.6153
21190W        W36999  13.889  11.190   1.205  0.0490  0.0585  0.0376
21191W        W37000   7.112   2.045   3.459  0.1016 -0.1019  0.0821
21192W        W37001   1.780  14.388  14.670  0.0208  0.0923 -0.2524
21193W        W37002   6.544   4.895   4.768 -0.1493 -0.2321  0.0901
21194W        W37003  16.486   2.672  12.542  0.0676  0.0272  0.1072
21195W        W37004  15.694   6.074   3.548 -0.0678 -0.0465 -0.0563
21196W        W37005   0.469  13.825  11.980 -0.0323 -0.1074  0.0959
21197W        W37006   7.889   1.084  14.043  0.1757 -0.1185  0.2272
21198W        W37007   8.640   3.096   4.047 -0.1126  0.1214 -0.1180
21199W        W37008  11.755  15.353   4.433 -0.1187  0.3442  0.0844
21200W        W37009   7.320   8.071  14.282  0.0445 -0.0579 -0.0692
21201W        W37010  11.999  11.562  11.704  0.2984 -0.2070 -0.3114
21202W        W37011   0.415  16.534   4.905  0.0356 -0.0461 -0.1512
21203W        W37012  10.481   1.051  10.457 -0.2157  0.1230  0.0184
21204W        W37013  14.652  10.333   4.333  0.3451  0.1345 -0.2308
21205W        W37014   2.951   1.113   3.157  0.2913  0.1897  0.3621
21206W        W37015   9.665   8.656  12.642  0.0587 -0.1067 -0.3915
21207W        W37016   4.782   2.086  11.610  0.3267  0.1714 -0.1740
21208W        W37017  13.562   0.298  13.971  0.1496 -0.1075 -0.0422
21209W        W37018   6.122  13.484   4.321 -0.2583  0.1353 -0.0773
21210W        W37019  10.217  15.956   0.750  0.2735 -0.3880  0.0496
21211W        W37020   5.603   4.248  13.610 -0.0536 -0.4456 -0.1731
21212W        W37021  15.445  18.903  12.167  0.1241 -0.1763  0.0823
21213W        W37022   4.916  10.636  15.372 -0.0833  0.1643 -0.1091
21214W        W37023   0.689   5.304   5.150 -0.0383 -0.1104  0.0015
21215W        W37024  13.766   2.647  15.370  0.7075  0.3707  0.2151
21216W        W37025   1.516   7.970   0.476  0.1650  0.1447 -0.0278
21217W        W37026  11.295  11.632   2.387  0.2380 -0.1009 -0.1554
21218W        W37027  17.352   7.285   1.204 -0.1020  0.1123 -0.3473
21219W        W37028   7.261  11.324  14.992  0.1905 -0.4033  0.1422
21220W        W37029  18.523   5.105   3.309  0.0026 -0.0730  0.0639
21221W        W37030  17.122  14.015   2.681 -0.0386  0.0049 -0.0758
21222W        W37031  17.923  17.501  15.407  0.0059 -0.0178 -0.0557
21223W        W37032   0.198  13.704  13.609  0.1646  0.3086  0.0752
21224W        W37033  16.640   1.527  13.196 -0.1789 -0.0769 -0.1520
21225W        W37034   9.294   4.420   0.072  0.0011 -0.2413  0.3407
21226W        W37035   8.016  15.183   0.431  0.2482 -0.0007  0.0693
21227W        W37036  18.649   1.319   2.373 -0.1289  0.1188 -0.1252
21228W        W37037  16.937   0.120  14.547 -0.2053  0.1526  0.5394
21229W        W37038  16.337   1.491  12.332  0.1376  0.1878 -0.0486
21230W        W37039  11.427   9.937   4.625 -0.2274 -0.3794  0.4024
21231W        W37040  12.460   5.089   4.489  0.0408 -0.1673 -0.0126
21232W        W37041   8.946  12.747   0.063 -0.1144 -0.0451  0.1916
21233W        W37042  16.770   6.773  12.687 -0.3284  0.0542 -0.2513
21234W        W37043   4.231   0.370  14.750 -0.1122  0.1283 -0.1601
21235W        W37044   0.348  18.867   0.535  0.1048  0.1586  0.2246
21236W        W37045  13.871  14.950  12.997 -0.2251 -0.1413 -0.1999
21237W        W37046   8.333  13.472  14.669 -0.1024 -0.0115  0.0581
21238W        W37047  10.183   8.433  12.698 -0.0789  0.1750 -0.1991
21239W        W37048  11.566  14.740   2.317 -0.0782 -0.1999 -0.1919
21240W        W37049  11.070   8.093  11.692  0.0356  0.0252 -0.0629
21241W        W37050   7.421  10.885   3.781  0.0328  0.1375 -0.1086
21242W        W37051   2.971  12.908  13.441 -0.1210  0.2838  0.0224
21243W        W37052   6.835   9.122  15.351  0.0914  0.1882  0.3395
21244W        W37053   5.379   7.428   1.654 -0.0825  0.2793  0.1398
21245W        W37054  16.576  17.271   3.568 -0.2289  0.0399  0.3277
21246W        W37055  17.010  17.888   0.375 -0.4028 -0.2250 -0.0311
21247W        W37056   8.673  13.329  12.547  0.2409 -0.0181  0.1701
21248W        W37057  10.751   2.695   5.798 -0.4764  0.0903 -0.1564
21249W        W37058  16.816  13.013   0.595  0.0238  0.2191 -0.3187
21250W        W37059   9.178  16.869  11.076 -0.3359 -0.0184 -0.1726
21251W        W37060  13.145  16.407   4.327  0.1567 -0.0473  0.1239
21252W        W37061  13.462  15.601   4.916  0.1111 -0.1733 -0.0718
21253W        W37062   6.644   6.025  14.391 -0.0220  0.1579  0.0677
21254W        W37063   7.173   8.121  10.971 -0.1750 -0.1981 -0.2079
21255W        W37064   4.648  11.787  10.847  0.0843 -0.2464 -0.0596
21256W        W37065   0.383   1.557   1.831 -0.0216  0.3087  0.1496
21257W        W37066  16.755   9.452   1.646 -0.3363 -0.0274 -0.1623
21258W        W37067  17.187  12.593  11.491  0.2308  0.0934  0.2058
21259W        W37068  12.957   6.160  13.624  0.0570 -0.0004  0.2738
21260W        W37069   8.960  10.182  14.343 -0.0776 -0.0987  0.3073
21261W        W37070   9.208  12.864   3.295 -0.1409  0.0363 -0.0100
21262W        W37071   9.134  13.369   4.694 -0.1513 -0.1286 -0.1171
21263W        W37072  14.520  11.895  14.904 -0.0745 -0.1912 -0.0532
21264W        W37073  11.070  16.429   4.908 -0.0304 -0.0406 -0.0063
21265W        W37074   6.970   7.867  13.030  0.2851 -0.1600 -0.0516
21266W        W37075   3.177   2.306  12.584 -0.3411 -0.2538  0.1427
21267W        W37076  12.346   5.321  11.354 -0.2081 -0.0096  0.0523
21268W        W37077  15.383  17.996   0.405  0.0126 -0.1035  0.1775
21269W        W37078   7.776  11.826   5.034 -0.1677 -0.4535  0.0024
21270W        W37079  10.209   9.843   4.035  0.0118 -0.2938 -0.0511
21271W        W37080   5.976  10.387  13.576 -0.0030  0.1143 -0.4017
21272W        W37081  15.513   6.665   1.950 -0.1116  0.2406  0.1226
21273W        W37082  18.557  14.564   0.834 -0.0264  0.1308 -0.1113
21274W        W37083   7.806   5.209   2.580  0.1430 -0.3366 -0.1264
21275W        W37084  17.980  13.985   4.851 -0.1219  0.1505  0.1475
21276W        W37085   4.759  18.599   4.959 -0.1822 -0.4660  0.0529
21277W        W37086  15.764   7.535  14.140  0.2429 -0.0260 -0.0795
21278W        W37087   0.479  18.433  13.522  0.0075  0.3249  0.1952
21279W        W37088  14.338  13.605  13.603  0.0343 -0.0935  0.2031
21280W        W37089  15.361  17.865   3.726  0.4959  0.1014  0.0409
21281W        W37090  15.896   0.174   2.154  0.0273  0.3299 -0.3447
21282W        W37091   6.055  11.021   3.456 -0.0861 -0.0696 -0.1762
21283W        W37092  11.439  10.376  13.933  0.0247  0.2296 -0.0536
21284W        W37093  10.918  14.835   0.876 -0.3702 -0.1310  0.0215
21285W        W37094  15.522   2.624   0.805 -0.3564  0.2749  0.1270
21286W        W37095  14.526  13.733   3.122  0.1360 -0.2293 -0.2100
21287W        W37096   2.387   2.138  14.004 -0.0036  0.1260 -0.3445
21288W        W37097   7.068   2.467  13.233 -0.1315  0.1293 -0.0301
21289W        W37098   4.371   8.043  13.640  0.3765 -0.1014  0.3224
21290W        W37099   0.914  14.362  10.595  0.1417  0.1344  0.0424
21291W        W37100  15.832   9.224  11.785 -0.2297  0.0241 -0.3277
21292W        W37101  17.167  10.484  13.837 -0.0051 -0.4066  0.2656
21293W        W37102  14.354  11.040   2.830 -0.3577  0.2133 -0.4386
21294W        W37103   9.645  12.935  13.421 -0.0593  0.2475  0.0702
21295W        W37104   6.007   4.490  10.782 -0.2483 -0.2013  0.1450
21296W        W37105   1.701  12.847  11.202  0.2461  0.1835  0.0020
21297W        W37106  16.539   2.361  12.144  0.0940 -0.0810 -0.0943
21298W        W37107   2.596   0.263   3.215  0.0788 -0.1096  0.0304
21299W        W37108  10.030   4.374  12.673  0.2311  0.0308  0.1928
21300W        W37109  12.681   5.978   4.424 -0.7760 -0.1047 -0.1976
21301W        W37110   1.346   8.460   1.762 -0.1702  0.0529 -0.0305
21302W        W37111   8.024  12.930   1.142 -0.0144 -0.0626 -0.3944
21303W        W37112   8.313   6.473  14.533  0.1979  0.7262  0.0110
21304W        W37113   0.058   5.762   2.913  0.1169  0.1611  0.3183
21305W        W37114  17.065  16.815   3.010 -0.1417 -0.1604  0.1228
21306W        W37115   2.957   2.638   2.186  0.4310  0.2231 -0.0862
21307W        W37116   7.668  11.096  15.087  0.0472  0.1066 -0.2166
21308W        W37117   2.940  16.936  12.881 -0.1304  0.2597  0.0779
21309W        W37118   3.661  10.211  10.910 -0.0658 -0.1466 -0.0465
21310W        W37119   4.834   4.873  10.158 -0.1276 -0.1953 -0.0534
21311W        W37120  11.780   8.672  15.232 -0.0352 -0.0377 -0.1568
21312W        W37121   2.655  11.802   0.925 -0.0140  0.0255  0.3104
21313W        W37122  18.375  15.751   4.222 -0.5541  0.3195 -0.1260
21314W        W37123  11.978   3.556   3.009 -0.1272 -0.1244 -0.0036
21315W        W37124  17.952   5.703   4.448  0.1988  0.3598  0.0277
21316W        W37125   2.668   3.878   1.478  0.0783 -0.2462  0.1035
21317W        W37126  10.248   2.478  12.625  0.0418  0.0754  0.0950
21318W        W37127  16.384  17.920   2.325  0.0418  0.0660 -0.3022
21319W        W37128  17.049   5.306   4.084  0.1013 -0.2496 -0.1225
21320W        W37129   1.955  16.915  12.791  0.2394 -0.2283 -0.1554
21321W        W37130  17.899   9.148   2.125  0.1451 -0.0638 -0.0730
21322W        W37131  18.789  14.410  15.052  0.0730 -0.2176 -0.1677
21323W        W37132  18.568   0.817   3.807 -0.2185  0.1280  0.0025
21324W        W37133   8.304   2.142   4.492 -0.1774  0.0805 -0.1716
21325W        W37134   3.629   8.554   4.397 -0.2223 -0.1346 -0.2121
21326W        W37135   3.128   4.734   4.210 -0.1703 -0.2041 -0.3818
21327W        W37136   8.465   4.556   0.710 -0.0963 -0.2258  0.1937
21328W        W37137  12.645  14.015  13.768 -0.0382  0.0701 -0.0467
21329W        W37138   3.349   2.755  13.139  0.0345 -0.0024  0.1510
21330W        W37139  11.540  14.117   0.819 -0.2399  0.1278  0.0670
21331W        W37140   4.675  11.662   2.994  0.0957  0.0327 -0.2426
21332W        W37141   7.077   3.436   0.247  0.0361  0.0138  0.2710
21333W        W37142  15.628  18.621   3.526  0.0217 -0.2174  0.1223
21334W        W37143  17.057   5.988   2.400 -0.0819 -0.3664  0.1498
21335W        W37144   2.746   4.300  14.589 -0.2428 -0.1615  0.2314
21336W        W37145  14.511  18.469   4.476  0.0203 -0.0111  0.4290
21337W        W37146  15.474   2.406   3.028  0.1525 -0.3757 -0.2510
21338W        W37147   8.602  13.535   5.442 -0.2143 -0.0445 -0.1360
21339W        W37148  14.834  16.535  15.186  0.3531  0.1575 -0.1297
21340W        W37149   3.387   5.729   2.777  0.0124  0.0351 -0.2486
21341W        W37150  15.843   2.893  14.439 -0.0600 -0.3924  0.1865
21342W        W37151  18.353  14.147   2.996  0.0191 -0.0543  0.0424
21343W        W37152  11.006  10.016  12.299 -0.0638 -0.0700 -0.1584
21344W        W37153   8.182  16.075   0.029 -0.2218 -0.1589 -0.1629
21345W        W37154  12.861  12.444   1.685  0.2846 -0.0421 -0.1474
21346W        W37155  10.898  16.022   0.918  0.2260 -0.0817  0.2131
21347W        W37156   2.899   2.068   0.965  0.0484 -0.0129 -0.4093
21348W        W37157   9.836   3.642   4.519 -0.0079  0.2081  0.0321
21349W        W37158  14.665  16.497   0.591  0.3809 -0.1178 -0.1464
21350W        W37159  18.182  17.028   0.663  0.1979 -0.1669  0.0799
21351W        W37160   2.050   3.720  12.128  0.1346 -0.0038 -0.0864
21352W        W37161  16.474  16.052   1.899  0.1874  0.0410  0.0341
21353W        W37162  12.664   9.805  12.231 -0.1800  0.0144  0.2683
21354W        W37163  18.288  13.020  14.497  0.1793 -0.0072  0.1571
21355W        W37164   0.556   7.151   0.815 -0.1091 -0.4220  0.0063
21356W        W37165  14.085  15.674   3.264  0.0195 -0.1979 -0.0770
21357W        W37166  15.465   3.739  12.709  0.0712  0.0890 -0.3457
21358W        W37167  16.735  12.873   3.779 -0.0208 -0.3679  0.0900
21359W        W37168   2.465  10.335   0.549  0.1091  0.0811  0.4095
21360W        W37169  15.494  12.863  12.672 -0.1366 -0.3439 -0.0304
21361W        W37170  14.320  14.708  13.398 -0.0206  0.0573 -0.0159
21362W        W37171  14.572  13.437  14.496  0.1339  0.0483 -0.4042
21363W        W37172   9.255   7.029  11.125  0.0313  0.1747  0.1024
21364W        W37173  10.914   0.340   2.138  0.1950  0.0692 -0.1496
21365W        W37174  18.085   1.824   3.900  0.2280  0.2918  0.0081
21366W        W37175   7.110  10.080  12.180 -0.1605  0.0751  0.3134
21367W        W37176  12.250  17.375   1.905  0.1352  0.0087 -0.0835
21368W        W37177  13.444  13.460   2.057  0.1069 -0.2143  0.0453
21369W        W37178  15.573  17.497  12.022  0.2509 -0.3052 -0.1332
21370W        W37179  18.867   9.432   5.296 -0.3578  0.2559 -0.1078
21371W        W37180  17.997   6.041   1.331  0.2625  0.0711  0.0237
21372W        W37181  18.688   3.863  13.804 -0.0838 -0.1072  0.1491
21373W        W37182  16.276  16.872  13.140  0.2277 -0.1131  0.2700
21374W        W37183   4.934   3.497   4.360 -0.0265 -0.0667  0.1405
21375W        W37184   6.841  18.787   1.754  0.2385  0.0362 -0.1440
21376W        W37185   2.080  15.738  11.861  0.2843  0.0133 -0.1584
21377W        W37186   0.435  15.237   2.243  0.0556  0.1637 -0.1294
21378W        W37187  11.302   6.568   1.272  0.0056 -0.1925 -0.0523
21379W        W37188  17.112   0.456  14.106  0.3793  0.4278  0.0576
21380W        W37189  15.367   9.394   0.731 -0.2747  0.2602  0.0981
21381W        W37190  13.230   8.318  13.877 -0.0207  0.1498 -0.1312
21382W        W37191  13.466   9.568  12.420  0.0619  0.0070 -0.0836
21383W        W37192   0.011  16.236   4.622 -0.0595 -0.1280 -0.0536
21384W        W37193  10.009  10.655   3.460  0.0820  0.0025 -0.0062
21385W        W37194  12.708  10.591   2.290 -0.1102 -0.3087 -0.1591
21386W        W37195   2.803  16.173   2.247 -0.2663  0.3366  0.2775
21387W        W37196  11.339  10.478   0.480  0.0004 -0.0006 -0.1377
21388W        W37197   7.099  18.330  13.897 -0.1649  0.0158  0.0271
21389W        W37198   5.978   6.249   3.691  0.0345  0.0936  0.0669
21390W        W37199   5.813   2.145  12.292  0.2172  0.3324 -0.0304
21391W        W37200  12.583  10.516  14.947  0.1678 -0.2670  0.3907
21392W        W37201  13.918  15.831   0.836  0.2917 -0.2024  0.2497
21393W        W37202  12.787  10.519   1.562 -0.1838  0.0062  0.0522
21394W        W37203   7.133  12.498   3.012 -0.1611 -0.0414 -0.2323
21395W        W37204   4.225   9.205   1.992 -0.0537 -0.1877 -0.2150
21396W        W37205  15.992  18.484   5.525 -0.6610 -0.2560 -0.0418
21397W        W37206   2.037  14.794  12.910  0.1461  0.0824  0.1282
21398W        W37207   0.833   6.608   2.745 -0.1332  0.1141 -0.1563
21399W        W37208  12.617  18.232  10.430 -0.2850  0.2630 -0.3924
21400W        W37209   4.090   0.371  12.495 -0.1587  0.1269 -0.3005
21401W        W37210  13.877   9.914  12.396  0.0290 -0.1294  0.1710
21402W        W37211  13.790  17.926   4.861 -0.0603 -0.3623  0.0344
21403W        W37212   7.669  12.993  15.183 -0.0023  0.0905  0.1825
21404W        W37213   2.452  13.878   0.346  0.2589  0.2066  0.1196
21405W        W37214   4.251  12.694   0.624 -0.1250  0.4896 -0.4042
21406W        W37215   4.662   6.198  13.548 -0.0503  0.0321 -0.0332
21407W        W37216  13.355  18.526  11.114 -0.0151 -0.1138  0.0588
21408W        W37217  13.038  17.076  10.562  0.0578 -0.1444 -0.1017
21409W        W37218   1.490   3.977  13.884 -0.1654  0.4188 -0.2360
21410W        W37219  16.824   4.838  13.652  0.1740 -0.1823 -0.1444
21411W        W37220  15.175  13.065   3.454  0.0432 -0.1840 -0.0201
21412W        W37221   9.674  14.868   1.554 -0.2370  0.1563 -0.3804
21413W        W37222   4.964  18.531   1.925  0.1297 -0.2330 -0.1090
21414W        W37223   4.926   3.560   5.690 -0.0949  0.1059  0.1121
21415W        W37224  10.991  15.562  14.663  0.0908 -0.1120 -0.0692
21416W        W37225  14.250   5.338  12.699  0.0452 -0.3938  0.0539
21417W        W37226  10.393  18.304   1.077  0.1022  0.0053 -0.0389
21418W        W37227   1.872  17.600  13.873 -0.1375 -0.0443 -0.0516
21419W        W37228   1.572   0.825   2.415  0.1992 -0.6385 -0.0310
21420W        W37229  17.951   1.480   4.332 -0.1732 -0.0653 -0.1337
21421W        W37230   1.058   9.823  12.427 -0.0478 -0.0772 -0.0307
21422W        W37231   9.133   3.285   5.460 -0.4208 -0.0367  0.1697
21423W        W37232  16.365  17.732   5.756  0.1102 -0.2411 -0.1468
21424W        W37233   8.169  14.506  14.785  0.1124  0.2962 -0.3765
21425W        W37234   9.037   7.576  12.362 -0.0239 -0.0614 -0.0129
21426W        W37235  16.607   1.670   0.486 -0.1933 -0.1045 -0.1509
21427W        W37236   6.895  12.122  14.547 -0.1276 -0.2165 -0.1035
21428W        W37237   5.610  18.763   4.455 -0.2026  0.3661 -0.3348
21429W        W37238   6.124   1.580   1.792  0.0623  0.0122  0.2496
21430W        W37239  11.629  13.524   1.285 -0.3471  0.0194  0.3845
21431W        W37240   9.550  15.007   0.856  0.1199 -0.0756 -0.1189
21432W        W37241  14.835   1.099   2.398  0.0272  0.1210  0.1939
21433W        W37242   3.446   9.795  14.178 -0.2360  0.1303  0.2552
21434W        W37243   6.488  10.490   1.127  0.1788  0.0427  0.2869
21435W        W37244   0.290  14.010  12.463  0.1459 -0.2038 -0.1315
21436W        W37245   7.787  16.573   3.252  0.1927  0.0753 -0.0171
21437W        W37246  12.066  13.419   2.543  0.0315  0.1218  0.1059
21438W        W37247   6.753  14.890  14.287 -0.2661 -0.2898 -0.2483
21439W        W37248   4.077  11.888   1.736 -0.4886  0.2243 -0.3243
21440W        W37249  11.636  16.697   1.295  0.0356 -0.2325 -0.0393
21441W        W37250   6.248   8.451  10.584  0.0497  0.0766 -0.1791
21442W        W37251  13.884  13.403   5.725  0.0221  0.0942 -0.0503
21443W        W37252   5.795  13.895  11.053 -0.0524  0.1772  0.3645
21444W        W37253  12.674   3.156  13.010  0.0498 -0.1895  0.2067
21445W        W37254   6.994  10.121  14.287 -0.4381  0.0728  0.0514
21446W        W37255   3.612  13.300   4.570 -0.0129 -0.2220 -0.2391
21447W        W37256  12.169  13.451   3.461  0.0348  0.0224 -0.0898
21448W        W37257  14.981   2.706   0.661 -0.0247 -0.1729 -0.0558
21449W        W37258  18.908  10.743   1.677 -0.2619 -0.0549 -0.1954
21450W        W37259   7.125   8.623   3.360  0.0541 -0.0655  0.1646
21451W        W37260   2.221  10.636   3.626  0.5056 -0.2239 -0.1178
21452W        W37261  18.655   4.921   5.111  0.0300  0.3232 -0.1206
21453W        W37262  16.491  15.641   0.080 -0.2579 -0.1167  0.1355
21454W        W37263  10.340   9.525  12.728  0.3688 -0.0940  0.2258
21455W        W37264  10.098  14.260  14.751 -0.2731  0.1974  0.1213
21456W        W37265  16.253   6.989  12.110  0.1128  0.0080 -0.0965
21457W        W37266  10.859   6.665  15.317  0.0365  0.0331  0.2840
21458W        W37267  16.624  15.274  14.336  0.0075  0.0560  0.0743
21459W        W37268  14.877   0.882  13.558 -0.1960 -0.0582  0.1681
21460W        W37269  16.625   3.064   5.142 -0.0704 -0.1944 -0.1276
21461W        W37270   0.085   5.417  14.539  0.1347 -0.0986  0.1647
21462W        W37271   7.132  18.474  10.667  0.0602 -0.0586 -0.1044
21463W        W37272   4.562   9.634  13.952 -0.1916  0.1334  0.2307
21464W        W37273  10.895   4.361   4.785  0.1808 -0.1407 -0.2299
21465W        W37274  11.694   1.582  13.274  0.0899 -0.1935  0.0165
21466W        W37275   2.067   9.039   0.701 -0.2538  0.2783  0.2992
21467W        W37276  10.726  14.267   4.464 -0.1878  0.0005  0.1484
21468W        W37277  16.207   7.064  12.640  0.1560 -0.1461  0.2975
21469W        W37278   5.283  11.326   4.325 -0.2505 -0.0715  0.1068
21470W        W37279  13.063   2.720   2.445  0.2644  0.0068  0.2648
21471W        W37280  18.191  11.135  11.867  0.1637 -0.0644 -0.0177
21472W        W37281   6.486   3.223   9.747 -0.2416 -0.0538  0.1627
21473W        W37282  17.765   0.704   4.223  0.0753  0.0889 -0.3203
21474W        W37283   9.002   0.680  15.157  0.1528 -0.0048 -0.0852
21475W        W37284   3.747   0.953  11.394  0.0970  0.0109 -0.2136
21476W        W37285   9.034   0.276   5.114  0.3907  0.2914  0.1484
21477W        W37286   7.682  12.942  11.651  0.2920 -0.2994  0.0375
21478W        W37287   2.109   5.402   3.527  0.0141 -0.0851 -0.4000
21479W        W37288   8.631  17.905  14.869 -0.2701 -0.0081  0.2210
21480W        W37289  13.017  14.235   4.486 -0.0639  0.2477 -0.3777
21481W        W37290   3.330   4.535  14.391 -0.2374 -0.0246  0.0838
21482W        W37291  13.059  11.473  12.454 -0.1091 -0.1301  0.3620
21483W        W37292   1.025  14.041  13.033 -0.1118  0.0757  0.2423
21484W        W37293  14.022  11.011  11.912  0.2131  0.1421 -0.1182
21485W        W37294  14.813   3.748  11.985  0.0573  0.1675 -0.4679
21486W        W37295  18.240  10.683  14.618 -0.1084 -0.0574  0.0531
21487W        W37296   7.528  16.369   3.670 -0.0911  0.2148 -0.1593
21488W        W37297  10.484  12.446   5.771 -0.0075  0.1518 -0.1204
21489W        W37298   9.690   7.443   3.411  0.0316  0.0453 -0.1383
21490W        W37299   3.816   2.366  11.772 -0.0623  0.3119  0.1880
21491W        W37300   8.511  12.136   0.834  0.0384  0.1560 -0.0719
21492W        W37301   0.265  10.127   2.592  0.0389 -0.1962  0.2132
21493W        W37302   7.979  13.164  13.248 -0.1145  0.0978 -0.2763
21494W        W37303   3.825   8.240   0.749  0.1450 -0.1993 -0.1210
21495W        W37304   0.471  15.087  14.465  0.1556  0.0584 -0.1064
21496W        W37305  15.843  10.060   1.249  0.1419 -0.0292 -0.2158
21497W        W37306   9.246   7.369   1.440  0.1944 -0.3592 -0.0390
21498W        W37307  11.169   4.787  14.655  0.1970 -0.3369 -0.0591
21499W        W37308   0.011  15.821   5.167  0.1683  0.0332 -0.0257
21500W        W37309   4.912   7.339  14.931  0.3187  0.3566  0.4727
21501W        W37310   3.362  14.883  12.628  0.0754  0.0705 -0.0378
21502W        W37311  11.266  12.291   1.234 -0.0814  0.0415 -0.2478
21503W        W37312  11.937   1.957   4.639 -0.0007  0.0568  0.1799
21504W        W37313  13.882  16.655   3.549  0.0761  0.1551  0.2856
21505W        W37314   3.781  15.546   1.895 -0.1165  0.2329  0.0074
21506W        W37315   2.217  14.804  14.734  0.1175  0.0045 -0.0620
21507W        W37316   4.447   9.180  13.359 -0.1187  0.3512 -0.0564
21508W        W37317   7.875  12.189  13.310  0.1581 -0.3880  0.2081
21509W        W37318   6.428   4.282  11.050  0.0090  0.2052  0.2201
21510W        W37319   8.733  18.056   0.474 -0.0780 -0.1733 -0.2798
21511W        W37320   2.430   1.812  12.893  0.1481 -0.1041 -0.1734
21512W        W37321  13.370   2.274   0.131  0.2766  0.2564  0.3176
21513W        W37322   4.320   0.753   0.281  0.3993  0.1176  0.2489
21514W        W37323   2.934   1.758   2.710 -0.2798 -0.0338 -0.2216
21515W        W37324  11.922   3.574   2.502  0.0287  0.0460  0.3325
21516W        W37325  14.789   0.133  14.639 -0.0210  0.0290 -0.1525
21517W        W37326   1.718  15.075  12.631 -0.0470 -0.1260  0.3195
21518W        W37327  16.786   6.229   2.972 -0.2679 -0.4331  0.2844
21519W        W37328  15.056  18.350   0.170  0.0010 -0.1253 -0.0872
21520W        W37329  10.935  18.903  14.701 -0.0493 -0.2027 -0.0104
21521W        W37330  17.442   8.291   3.388  0.0427 -0.0380 -0.0719
21522W        W37331  15.929   0.988   1.102  0.1918 -0.1785  0.1909
21523W        W37332  10.130   6.325   6.094 -0.1009  0.1668 -0.1578
21524W        W37333  18.766  12.006   4.146  0.2139  0.1161 -0.3815
21525W        W37334  15.138  18.412   1.283  0.2295  0.1246  0.1044
21526W        W37335   8.087  17.214   1.563 -0.1986  0.0999  0.1497
21527W        W37336   1.467   1.128   4.111 -0.1845  0.0755  0.1040
21528W        W37337   0.127   0.484   0.469 -0.0427  0.0155  0.0704
21529W        W37338   1.573   6.099   2.652  0.0793 -0.0289 -0.0792
21530W        W37339   0.428  10.683   5.222 -0.0780 -0.0746  0.0076
21531W        W37340  13.203  12.185  13.670  0.2900 -0.1949 -0.2115
21532W        W37341   5.771   2.645  13.770 -0.2570  0.1055 -0.1228
21533W        W37342  15.530   9.617   1.436  0.0696 -0.1168 -0.0914
21534W        W37343  17.534   9.144  14.252  0.1160 -0.2316 -0.3803
21535W        W37344  17.369  12.768   1.460  0.1535  0.1661 -0.0980
21536W        W37345   3.723  14.946   0.709  0.0641 -0.2488 -0.0902
21537W        W37346  13.714   5.133   2.657 -0.1497  0.1413  0.3089
21538W        W37347   9.312  10.062   1.926  0.0360 -0.4968  0.2631
21539W        W37348   6.711   7.977  15.194  0.2243  0.1704  0.1209
21540W        W37349  12.190   4.281   3.609 -0.1217  0.0102  0.2288
21541W        W37350   1.814   6.854  14.665 -0.1593  0.3228  0.0807
21542W        W37351  17.325  10.057   1.285 -0.1742 -0.0204 -0.2058
21543W        W37352   4.603   5.890   1.702 -0.1384 -0.0981  0.2653
21544W        W37353   9.008   9.067  10.695 -0.0010  0.0628  0.1102
21545W        W37354  12.810   6.599   5.034  0.2774 -0.3416  0.3188
21546W        W37355  10.094   4.182   4.985  0.0690  0.0884 -0.0761
21547W        W37356  15.135   6.657   2.475 -0.2589 -0.1650  0.1843
21548W        W37357   7.582   0.742  11.411  0.3914  0.1345 -0.1789
21549W        W37358  15.598  13.996  10.750 -0.3299 -0.1295 -0.1166
21550W        W37359   0.905   6.977   3.066 -0.2928  0.0747 -0.2383
21551W        W37360  16.009  13.369  13.477  0.2606  0.0567 -0.1109
21552W        W37361   6.849  14.253  14.787 -0.2503  0.6775  0.2681
21553W        W37362   8.441   0.666   3.328  0.1460  0.0767  0.1443
21554W        W37363  18.699  10.266   1.848 -0.0608 -0.0269 -0.1728
21555W        W37364   3.685  11.741  11.526  0.0686 -0.1068 -0.0338
21556W        W37365  11.556   6.407  13.680 -0.1231  0.6337  0.4841
21557W        W37366   4.057  16.939  12.442 -0.1017 -0.3482 -0.0470
21558W        W37367  16.541   4.351   0.453 -0.2039 -0.1394 -0.1565
21559W        W37368  18.503  12.089  14.446  0.1630  0.2193 -0.0111
21560W        W37369  10.242   5.105   3.814  0.1367 -0.2269  0.0818
21561W        W37370  13.232   7.001   0.690 -0.2511 -0.0220 -0.0084
21562W        W37371   9.604  15.579  14.348 -0.1148 -0.2544 -0.3162
21563W        W37372   5.390   9.517   5.120  0.3510  0.0718 -0.1516
21564W        W37373  11.177  11.971   0.847 -0.1121  0.1868  0.5044
21565W        W37374   8.771  16.147   4.364  0.0337  0.0096  0.1150
21566W        W37375   2.731  14.113  14.427 -0.2290 -0.2036  0.0964
21567W        W37376   8.892  16.573   5.624  0.1343  0.1421 -0.1247
21568W        W37377   7.265   1.183   2.840 -0.0210  0.1287  0.0882
21569W        W37378   4.888  12.927   4.312 -0.0466 -0.1097  0.1178
21570W        W37379   1.720  18.686   4.565  0.3842  0.0533 -0.0878
21571W        W37380   8.720   0.663   1.087  0.1608  0.0873  0.1696
21572W        W37381  11.489   2.723   2.960  0.2629  0.0224 -0.1254
21573W        W37382  10.760  17.368   2.033 -0.0592  0.0108  0.1578
21574W        W37383   0.292  16.566   2.486 -0.2994  0.0018  0.1634
21575W        W37384  13.362   4.093   4.422 -0.0744 -0.0800 -0.2308
21576W        W37385  13.219   8.623  13.502  0.2140 -0.1727  0.2505
21577W        W37386   4.058  16.179   0.575 -0.3538 -0.1186  0.0924
21578W        W37387   5.588  11.711  13.404  0.1405  0.2495 -0.0041
21579W        W37388  12.271  11.616   5.612 -0.1707  0.2513  0.2257
21580W        W37389  12.038   6.502   5.914 -0.2306 -0.1283  0.2769
21581W        W37390   7.479   5.080  11.440  0.2930 -0.1415 -0.1132
21582W        W37391  13.613  16.239   1.367 -0.1386  0.2090 -0.1916
21583W        W37392  16.334   9.930  10.088  0.0060 -0.0795 -0.0070
21584W        W37393  18.588   1.808   1.019  0.2285 -0.0247 -0.0793
21585W        W37394  10.171   2.536   0.559 -0.0869 -0.1184  0.1254
21586W        W37395  18.608   1.450  15.262  0.1716  0.1893 -0.1277
21587W        W37396   5.517   2.454   0.130 -0.0145  0.1405  0.1035
21588W        W37397   6.926   2.495  11.248  0.0372  0.2473 -0.2280
21589W        W37398  12.188  13.311  12.122  0.1019 -0.2239 -0.0678
21590W        W37399  17.355   1.516   1.871  0.0301 -0.1816  0.1441
21591W        W37400   9.575   5.350  10.876 -0.0434 -0.2578  0.1521
21592W        W37401  11.609   2.621  15.151  0.3698 -0.1392  0.1254
21593W        W37402   0.467  18.732   2.420 -0.3556  0.2822  0.0447
21594W        W37403  16.724   6.194   3.975 -0.3639 -0.2008 -0.2706
21595W        W37404   2.811  14.607  12.472  0.3823 -0.2820 -0.0576
21596W        W37405  15.462  18.093  15.364  0.1210 -0.4035 -0.3839
21597W        W37406   7.584  10.313   5.249 -0.1254 -0.0309 -0.1923
21598W        W37407   0.786  12.781  15.025  0.4756 -0.0239  0.0909
21599W        W37408  12.312  14.372  11.218 -0.1228  0.2857  0.1010
21600W        W37409   3.880   4.853  11.052 -0.0311 -0.0041  0.1232
21601W        W37410   2.909  12.672   0.927 -0.0906 -0.2016 -0.2195
21602W        W37411   8.807   8.710  13.453 -0.1222  0.0712  0.1231
21603W        W37412  14.125   0.708  15.146 -0.1355  0.1741  0.0499
21604W        W37413  12.945  10.038   1.526  0.1607 -0.1116  0.0892
21605W        W37414  14.823   4.720   2.306  0.0950 -0.1968  0.0293
21606W        W37415   6.301   7.027   1.820 -0.0540  0.5409  0.2097
21607W        W37416   2.787  18.761   0.694 -0.0368  0.1021 -0.3036
21608W        W37417  14.943  10.239   0.334  0.2140  0.0612  0.1253
21609W        W37418   4.073   4.935   3.299  0.0611 -0.3035 -0.0639
21610W        W37419   8.646  16.009  10.597  0.0087 -0.1905 -0.1614
21611W        W37420  18.507   9.889   1.425  0.0117 -0.1191 -0.1628
21612W        W37421  18.316   6.900   3.095  0.0629  0.1824  0.1155
21613W        W37422  11.860  15.051  12.140 -0.0362  0.0668  0.2882
21614W        W37423   9.899   5.803  10.925  0.1545 -0.0858  0.0867
21615W        W37424  14.685  10.917   9.946  0.0903  0.1466 -0.1446
21616W        W37425   2.523   2.833  12.924 -0.0301 -0.1902  0.0498
21617W        W37426  18.199  14.221   4.240  0.2150  0.0542 -0.6441
21618W        W37427  17.502   6.626   4.138 -0.0966  0.0215 -0.0074
21619W        W37428  18.383  10.648  11.631 -0.0413 -0.1294  0.0848
21620W        W37429   7.857   1.775   1.033  0.2627  0.1889  0.2237
21621W        W37430  13.963   4.337   2.033 -0.0683  0.1280 -0.2481
21622W        W37431   6.122  12.005  11.267  0.4521  0.2220 -0.1887
21623W        W37432  16.725  10.242  15.216 -0.1419 -0.0098  0.3333
21624W        W37433  16.385  14.846   1.293  0.0396 -0.3013  0.1264
21625W        W37434   0.349   6.257  13.623  0.2374 -0.0438  0.4488
21626W        W37435   4.778  15.956   4.906 -0.1237  0.1574  0.2451
21627W        W37436   4.878   5.300  13.951  0.1799  0.1601  0.1702
21628W        W37437  15.420  17.873  12.931  0.0885  0.0127 -0.1610
21629W        W37438   3.948   4.707  10.579 -0.1828 -0.1388 -0.0456
21630W        W37439  12.605  17.029   0.110  0.2830  0.0207  0.1002
21631W        W37440  13.987  14.053   1.091  0.0548  0.2717 -0.0707
21632W        W37441  15.697   3.805   5.704 -0.0811  0.1705  0.0125
21633W        W37442   0.598   2.031  13.101 -0.1921  0.0184 -0.0886
21634W        W37443  12.055  16.205  12.723 -0.0721  0.2653 -0.3656
21635W        W37444   8.356   1.238   3.425 -0.1994 -0.2430  0.1533
21636W        W37445  11.630   4.342  10.426 -0.1081  0.2209  0.0987
21637W        W37446   8.185  12.878  14.326  0.0699  0.0230  0.0426
21638W        W37447  12.312   7.251   4.362 -0.3348  0.0466  0.0055
21639W        W37448   1.341  17.571  14.251 -0.1337 -0.1511  0.2257
21640W        W37449   6.310  16.013   4.187  0.3037  0.1529 -0.1612
21641W        W37450   9.303  12.006   2.804  0.0037 -0.2558 -0.3425
21642W        W37451   2.268   1.685  13.873 -0.2333  0.0772  0.0731
21643W        W37452  10.528   0.308   2.918 -0.0301 -0.0714  0.3685
21644W        W37453  17.840   2.709  14.698  0.0386  0.2200 -0.0269
21645W        W37454  13.001   9.787   2.119 -0.1886 -0.0339 -0.2099
21646W        W37455   7.632  12.906  10.951 -0.0879  0.0895 -0.2914
21647W        W37456   5.884   2.924  13.327 -0.0043  0.0241  0.0116
21648W        W37457  10.850  12.306   2.884 -0.2843 -0.0242  0.1982
21649W        W37458   8.854   7.312  11.092  0.0089 -0.1870 -0.1718
21650W        W37459  14.877  17.287   1.032  0.0699  0.2972  0.1697
21651W        W37460  14.310   2.424  13.951 -0.1210  0.0494  0.0792
21652W        W37461  11.815  18.096  11.692  0.0931 -0.1667 -0.0050
21653W        W37462  17.350  10.233   2.338 -0.0496 -0.2311  0.2770
21654W        W37463  17.920  16.717   2.302  0.0248 -0.2334 -0.2513
21655W        W37464   0.580  16.017   0.121 -0.4472 -0.3019  0.0083
21656W        W37465  10.908   9.844  14.942  0.0714 -0.0390  0.2414
21657W        W37466  10.703  16.064  11.362  0.2915  0.1053  0.1241
21658W        W37467   8.963   5.972  14.029  0.1481  0.4972 -0.1338
21659W        W37468  13.201  16.634   2.257  0.0539  0.0493  0.2028
21660W        W37469  13.155  12.816   1.866 -0.0073  0.0190 -0.3677
21661W        W37470  11.415  14.358  14.918 -0.1470 -0.0311  0.0199
21662W        W37471  10.654   0.112  13.404 -0.0823 -0.3251 -0.0430
21663W        W37472  14.372   5.782  14.337 -0.1396  0.1068  0.0143
21664W        W37473   9.218   7.286   3.412  0.1766  0.0562 -0.2316
21665W        W37474   1.920   5.157  11.569  0.3339  0.2701  0.3240
21666W        W37475  15.901   7.697   4.042  0.1672 -0.1287  0.3982
21667W        W37476  13.074   8.214   3.768 -0.0656  0.0364 -0.2160
21668W        W37477   3.186  18.772   4.045 -0.2553 -0.0564 -0.1153
21669W        W37478  16.143  16.592   2.117  0.1671  0.0031  0.0901
21670W        W37479   8.393  11.569  14.126 -0.0248  0.0427  0.0229
21671W        W37480  10.752  16.565  11.438 -0.0658 -0.0907  0.2174
21672W        W37481   7.846   9.134   3.204 -0.3368 -0.1271 -0.3146
21673W        W37482   2.086  13.668  11.058  0.2033 -0.0942  0.1078
21674W        W37483  13.336  16.677   1.660 -0.1316  0.3369  0.0093
21675W        W37484   9.144  18.469  13.735  0.0856 -0.0861 -0.4672
21676W        W37485   1.282   8.349   3.346  0.2540  0.1373 -0.1221
21677W        W37486  10.929  15.547  11.408 -0.1145 -0.2213 -0.2417
21678W        W37487  18.324   1.001  12.643  0.1362 -0.1654 -0.1361
21679W        W37488   5.013   0.159  14.016 -0.1227 -0.2445 -0.4195
21680W        W37489   4.460  11.285   5.139 -0.1920  0.1082 -0.0067
21681W        W37490   4.987  17.314  12.761  0.0927 -0.0448  0.0045
21682W        W37491  11.672   0.041   4.461  0.0262  0.1496 -0.0384
21683W        W37492   8.926  13.919   2.856 -0.3242 -0.5066 -0.1266
21684W        W37493  18.207  17.512   0.821  0.0694 -0.1812  0.0595
21685W        W37494   6.297   9.074  15.358 -0.0249  0.1855 -0.0585
21686W        W37495  15.399  14.388  11.046 -0.0497  0.0724 -0.2133
21687W        W37496   0.260   4.329  15.105 -0.0326  0.0365 -0.1796
21688W        W37497   8.594  18.785  13.639  0.2024 -0.2159  0.0305
21689W        W37498  15.435   2.802  10.319  0.1276  0.1408  0.2116
21690W        W37499   1.008   7.871   3.107 -0.0319 -0.1434  0.0923
21691W        W37500   5.109   4.208  13.980 -0.0708  0.0112  0.1278
21692W        W37501   4.361   4.031   4.867 -0.0693  0.1216  0.2764
21693W        W37502   6.444   5.706   5.654 -0.0698  0.0451 -0.2174
21694W        W37503   3.394  11.497  11.232 -0.1236 -0.1189  0.1284
21695W        W37504   8.606   1.660  13.366  0.0487 -0.1924  0.0449
21696W        W37505  17.262   2.798   3.319 -0.2695 -0.0248  0.0866
21697W        W37506   6.969  12.977  11.855  0.1499 -0.1194 -0.3261
21698W        W37507   5.594   7.584   0.045  0.0091  0.0813 -0.2205
21699W        W37508  10.054   8.391   2.198  0.2074 -0.0677 -0.2526
21700W        W37509   2.491   7.953   3.537 -0.1609 -0.1055 -0.0085
21701W        W37510   2.253   7.242   4.165 -0.0145  0.2082  0.2867
21702W        W37511   6.265  18.219  12.400 -0.0009 -0.2209  0.1651
21703W        W37512   3.991  11.785   4.019  0.0927 -0.0602  0.0820
21704W        W37513   5.990  12.123  14.934 -0.1220 -0.2122  0.0948
21705W        W37514   8.838  16.162  15.079 -0.0452 -0.0477  0.2389
21706W        W37515  18.176   7.460  13.624  0.0893  0.1021 -0.0217
21707W        W37516  16.395  11.970  11.578  0.0599  0.0185  0.1708
21708W        W37517  14.915  15.735   5.514  0.1254  0.1853  0.0449
21709W        W37518  18.275  10.572   0.073 -0.0847 -0.1322  0.0314
21710W        W37519   1.480  18.329   1.924 -0.0884 -0.2126  0.2671
21711W        W37520   6.121  13.920   3.307 -0.3595 -0.0768  0.0918
21712W        W37521  14.099  18.771  10.322  0.3825  0.2671 -0.1854
21713W        W37522  18.119  11.902  10.842 -0.1139 -0.0397 -0.0335
21714W        W37523   8.705  18.205  12.739 -0.2057  0.0056 -0.3791
21715W        W37524  14.408  12.101  14.403 -0.1168  0.1748  0.1583
21716W        W37525   0.098   3.699  15.086  0.0428 -0.1903  0.2849
21717W        W37526  10.268   2.904   1.036 -0.0304 -0.1702  0.0194
21718W        W37527   4.198   0.571  13.779  0.0719 -0.0790  0.1045
21719W        W37528  14.501  16.030   3.762  0.0463  0.1421  0.0892
21720W        W37529   4.711  14.367  12.427 -0.0131  0.0095  0.2435
21721W        W37530  17.384   5.205   3.465  0.1538 -0.2569 -0.1847
21722W        W37531  10.019  10.418  12.275  0.0808  0.0116  0.0938
21723W        W37532   7.302  13.103  13.677 -0.0253 -0.1966 -0.0409
21724W        W37533  10.440  15.534   9.799  0.1362 -0.3617 -0.2904
21725W        W37534  12.641  18.126   1.526  0.0169  0.0086  0.3434
21726W        W37535   3.572   5.096   3.333 -0.0887  0.0968 -0.1039
21727W        W37536  13.629   6.837  14.825 -0.1013 -0.0490  0.1222
21728W        W37537   8.158   4.838   1.120 -0.1691  0.1228  0.1292
21729W        W37538   3.006  16.593  14.520  0.0651  0.2881 -0.3688
21730W        W37539  12.811   8.289   2.821  0.0399  0.0131  0.2253
21731W        W37540   4.526   5.320  13.234  0.4695 -0.0536  0.3511
21732W        W37541  11.147   4.060   2.160  0.4376  0.1330  0.0777
21733W        W37542   0.602  14.006  13.659  0.0137  0.0630  0.0332
21734W        W37543   7.552  18.514  13.040 -0.5096  0.1044  0.1752
21735W        W37544  15.903  17.400  11.572 -0.1876 -0.2541  0.3391
21736W        W37545   2.064  10.874   2.367  0.0971  0.0787  0.2840
21737W        W37546   9.872   1.362  13.421 -0.2935 -0.0700  0.0252
21738W        W37547   6.400   0.748   3.076 -0.2165 -0.1189  0.2913
21739W        W37548  14.414  12.449  12.779 -0.2051 -0.5705 -0.2353
21740W        W37549   4.635   6.022   5.079 -0.1305  0.2527 -0.2835
21741W        W37550   3.453  10.331  14.001  0.3487  0.0644  0.0356
21742W        W37551   9.810  12.645   4.019 -0.0377  0.1047  0.1895
21743W        W37552   9.672  16.812   1.993  0.0350 -0.1793 -0.0451
21744W        W37553  10.463  13.621   2.290 -0.1965 -0.1863 -0.3959
21745W        W37554  16.144   9.722   1.023  0.0333  0.0017  0.0279
21746W        W37555   5.605  15.396  10.738 -0.0405  0.2728  0.0772
21747W        W37556   7.130   1.039   3.315  0.1106  0.2466 -0.1055
21748W        W37557  16.234  15.625  14.659  0.1719 -0.0722  0.3711
21749W        W37558   6.742   0.963  10.791 -0.1496  0.2429  0.0668
21750W        W37559   0.871   8.531   1.910 -0.2791  0.4157 -0.1241
21751W        W37560   6.340   1.447   3.300 -0.0423 -0.1040  0.1658
21752W        W37561  16.416   8.123   4.021 -0.0751  0.0047 -0.1255
21753W        W37562  17.905   4.446  10.894 -0.1757  0.0862  0.2587
21754W        W37563   9.796   2.707   4.404 -0.0229 -0.2059  0.4046
21755W        W37564   5.929  17.831   0.131  0.0673  0.0182 -0.0108
21756W        W37565  11.953   8.212   0.677  0.1630  0.0418 -0.1213
21757W        W37566   6.013   7.811   0.422  0.1782 -0.0897 -0.3054
21758W        W37567  15.138   2.156  15.354 -0.1982  0.4352  0.1144
21759W        W37568   6.420  15.333  10.868  0.1588  0.3705 -0.0907
21760W        W37569  18.503  17.299  14.299  0.0764  0.0762  0.2952
21761W        W37570   0.102  10.556  14.883 -0.1642 -0.0712 -0.2777
21762W        W37571  15.119   2.593   3.350 -0.0978 -0.0225  0.2880
21763W        W37572   1.675   2.164  14.715  0.0420  0.0720 -0.0484
21764W        W37573  14.057   0.535  14.026 -0.1854 -0.0368 -0.1190
21765W        W37574   1.794  17.111   5.106  0.2912 -0.0133  0.2787
21766W        W37575   1.427   3.457  13.744 -0.1799  0.2155  0.1359
21767W        W37576   2.565  17.180   0.923  0.0500  0.1564  0.3745
21768W        W37577   9.862  16.732  11.570  0.1209 -0.2738 -0.1605
21769W        W37578  11.641  12.838  13.180  0.3106  0.0369  0.1402
21770W        W37579  13.202   1.447   1.245 -0.0830 -0.2121  0.0381
21771W        W37580  10.299  13.089   5.136  0.3329  0.0210 -0.0903
21772W        W37581  11.465  16.830  15.234  0.0010  0.0623  0.2155
21773W        W37582  15.275   7.863  11.075  0.1418 -0.3691 -0.0352
21774W        W37583  14.214  17.528   2.815  0.3025 -0.0965 -0.2159
21775W        W37584  14.750  13.602   2.095  0.0725  0.1185 -0.3386
21776W        W37585  16.553  14.344   1.458 -0.0668 -0.2225  0.3037
21777W        W37586   8.359   9.638  12.591 -0.0239 -0.2585 -0.1964
21778W        W37587  17.450  18.580  11.608 -0.1587  0.1456 -0.3210
21779W        W37588  10.966   8.106   0.968 -0.1915  0.0631  0.1623
21780W        W37589   3.442  11.730  13.497  0.1127  0.2204  0.1454
21781W        W37590  16.308   2.778   2.136  0.1718  0.0291  0.1184
21782W        W37591  13.717   3.217   3.529  0.0715 -0.2543  0.0769
21783W        W37592  10.018  10.667   4.545 -0.1524  0.1851  0.1729
21784W        W37593  16.041   1.658  11.969  0.0027  0.5913  0.0168
21785W        W37594   0.260  14.439  12.684 -0.0224  0.0815  0.0342
21786W        W37595  10.499  12.061  14.808  0.0236  0.0023  0.0664
21787W        W37596   5.417  14.283  14.149  0.1172 -0.1230  0.3751
21788W        W37597   2.682   8.820   4.209  0.1343 -0.4161 -0.0216
21789W        W37598   5.650   5.639   2.909 -0.2641  0.2351 -0.1645
21790W        W37599  10.732  10.867  12.820 -0.2571 -0.1355 -0.4890
21791W        W37600   2.744   8.928   0.005  0.0012  0.1662 -0.0060
21792W        W37601  16.478   9.033  12.188 -0.2790  0.0252  0.1635
21793W        W37602  13.157   5.032  13.588  0.0246 -0.1309  0.3007
21794W        W37603  18.326  15.240   5.386  0.2034 -0.1696  0.0644
21795W        W37604   5.839   2.825   3.481 -0.2209  0.1256 -0.2312
21796W        W37605  10.620  14.112   3.044  0.1288 -0.0416  0.0709
21797W        W37606   7.498   4.966   2.915  0.1973 -0.2291 -0.3286
21798W        W37607   5.707  13.166   3.687 -0.1793 -0.1789  0.3241
21799W        W37608  11.958  10.480  12.074  0.0245 -0.0829  0.0047
21800W        W37609  12.352  10.095  14.908 -0.0640 -0.0959  0.0139
21801W        W37610   4.830   2.532  11.325  0.0303  0.3145  0.1124
21802W        W37611  18.711  18.434  14.898  0.0070 -0.0749  0.1923
21803W        W37612   5.974  16.526   9.302 -0.0752 -0.1390 -0.2570
21804W        W37613   5.720   2.026   2.741  0.2625 -0.1638 -0.1418
21805W        W37614   6.727  10.356   1.843  0.0196  0.0085 -0.1269
21806W        W37615   8.170  16.147   2.892 -0.0830 -0.0154  0.0038
21807W        W37616  13.023   3.449   1.958 -0.1422  0.0612 -0.2229
21808W        W37617   4.613   5.842  13.241 -0.0871 -0.2128  0.0215
21809W        W37618  15.818   5.798  12.783  0.0510  0.1627  0.0414
21810W        W37619  18.232   0.174  14.362 -0.0328 -0.2408 -0.1725
21811W        W37620   2.741  15.203   3.717 -0.2013  0.2627  0.2787
21812W        W37621   7.570   5.485   3.539  0.1431 -0.2000  0.3492
21813W        W37622   0.933   3.451  10.695  0.2772  0.0541 -0.1920
21814W        W37623   8.563  14.165   2.419  0.2865  0.0130  0.2062
21815W        W37624   6.798  17.514   2.877  0.0333  0.3076  0.0152
21816W        W37625  14.592   9.331   0.156  0.2462  0.0322  0.1045
21817W        W37626  13.874  10.308  11.452  0.0606  0.2803  0.0539
21818W        W37627   7.549   0.246  14.427  0.0820  0.1381 -0.1393
21819W        W37628   6.699   9.154  11.010 -0.1169  0.2830  0.2643
21820W        W37629  16.405   6.371  15.003 -0.1799 -0.2308 -0.2521
21821W        W37630  10.431  17.167   4.186 -0.3070 -0.0724 -0.1845
21822W        W37631   1.448  10.451  11.977 -0.3705 -0.3733  0.0417
21823W        W37632   4.705  15.607  13.806  0.0665  0.2026 -0.1297
21824W        W37633  12.635   8.581  12.026 -0.0928 -0.2658  0.0573
21825W        W37634  17.931   0.073   3.340  0.1232  0.0236  0.1082
21826W        W37635   0.038   2.566   0.201  0.0155  0.0500  0.4627
21827W        W37636   1.882   4.975   3.923  0.3171 -0.1993 -0.0351
21828W        W37637   4.211   1.652   0.750  0.1099  0.0257 -0.0227
21829W        W37638   8.700  17.137   4.029  0.0614  0.0800  0.0380
21830W        W37639  17.061  10.407   0.979  0.0964 -0.0987 -0.0705
21831W        W37640  17.134  12.606   4.029 -0.2178 -0.0574  0.2888
21832W        W37641   8.004  17.944  11.663  0.1011  0.1476  0.1548
21833W        W37642  15.012  17.811   2.877  0.2519  0.0862 -0.1699
21834W        W37643  16.150   4.517   2.994  0.4184 -0.3032 -0.0022
21835W        W37644   2.031   6.081   4.856 -0.0952 -0.2247 -0.0174
21836W        W37645   6.889   5.745  14.142 -0.2168 -0.0918  0.0586
21837W        W37646  10.403   1.252  14.529 -0.0087  0.2048  0.2995
21838W        W37647   9.112   2.377  14.040  0.1407  0.1896 -0.2091
21839W        W37648  11.388  10.505   4.018  0.1720 -0.1190 -0.2210
21840W        W37649   8.931  11.921  14.954  0.2076 -0.2078 -0.3834
21841W        W37650   0.008  15.492  15.419  0.2601  0.0749 -0.0425
21842W        W37651   5.834  14.091   2.806 -0.2182 -0.2126 -0.3932
21843W        W37652  13.827  17.200  12.456  0.1484  0.1207 -0.2018
21844W        W37653   7.228   1.520  14.669  0.0392 -0.3992 -0.0328
21845W        W37654  12.027   0.870   1.204 -0.0872  0.0038  0.0565
21846W        W37655  12.416  18.565   0.640 -0.0904  0.1245 -0.3155
21847W        W37656   1.804   5.260   9.947 -0.0890 -0.0672 -0.0688
21848W        W37657  13.886   6.689  14.091 -0.0743  0.1626 -0.1006
21849W        W37658   4.927   4.948   2.123 -0.0160 -0.1989 -0.0207
21850W        W37659  18.460  13.887  11.752 -0.3793  0.2715 -0.0901
21851W        W37660   4.035  15.659   2.771 -0.1293 -0.3000 -0.4228
21852W        W37661  18.849   8.961   3.148  0.1700  0.0486  0.1044
21853W        W37662   3.262  15.993  12.920 -0.1113  0.0069  0.1237
21854W        W37663   3.065   5.220  12.399 -0.1465  0.1527 -0.0538
21855W        W37664   4.321  15.467  14.517 -0.0913 -0.2762  0.0596
21856W        W37665  14.488   5.632  13.088 -0.0173  0.0424 -0.0129
21857W        W37666   0.370   6.505  14.584 -0.1304  0.0432  0.1188
21858W        W37667  12.644  13.221  11.168 -0.2247  0.2039  0.4419
21859W        W37668  16.972   3.506   2.076 -0.4941  0.3203 -0.7156
21860W        W37669   8.996   6.883   1.026 -0.0085 -0.2430  0.0665
21861W        W37670  12.013   8.571  12.766  0.0848  0.2525  0.1578
21862W        W37671  11.022  15.639   1.920 -0.1384  0.1442 -0.0415
21863W        W37672   5.383  14.416  11.623  0.2831  0.2613 -0.1198
21864W        W37673   6.035  16.911   3.988 -0.0210 -0.0781 -0.2514
21865W        W37674   5.646  10.019  13.567  0.2870 -0.0405  0.2838
21866W        W37675  10.993  17.233   0.741  0.0758 -0.0528 -0.0320
21867W        W37676   5.789  10.766  12.738  0.1278 -0.1427 -0.2037
21868W        W37677  18.577  12.672   3.642 -0.2364 -0.0189 -0.1410
21869W        W37678  18.525   4.660   4.609  0.0558  0.1199 -0.2178
21870W        W37679  15.344  13.914  11.965 -0.1032 -0.1275 -0.2115
21871W        W37680   5.207   2.772   2.791  0.0243  0.0589  0.3101
21872W        W37681  14.411   0.284  11.893  0.1681  0.1245 -0.0769
21873W        W37682  17.490   5.319   1.747  0.0358 -0.0759 -0.0316
21874W        W37683   2.405  15.700   4.005 -0.2982 -0.1548  0.1245
21875W        W37684   6.357   4.342  15.328  0.0610  0.1473 -0.0154
21876W        W37685   7.095  17.158   2.721  0.1197 -0.2925 -0.2392
21877W        W37686  12.075   2.978   0.793  0.0782  0.2726  0.2231
21878W        W37687   8.444  14.009  14.750  0.3476  0.1761 -0.1296
21879W        W37688   0.644   0.810   4.644 -0.2406  0.2087  0.1643
21880W        W37689   7.034   4.711   4.104  0.1159  0.0302  0.2270
21881W        W37690  13.291   4.997  13.100  0.1224  0.2205  0.1194
21882W        W37691  11.147   0.736  14.009 -0.2672  0.1391  0.2380
21883W        W37692  17.049   0.621   2.791 -0.1955 -0.1772  0.1920
21884W        W37693   9.158   2.543  10.008  0.2826  0.1365 -0.2663
21885W        W37694   3.466   4.963  12.059  0.2183 -0.1469 -0.0281
21886W        W37695  16.851   9.952   5.226 -0.0124  0.2461 -0.3467
21887W        W37696   5.257   4.045  15.286 -0.0001 -0.3966  0.0105
21888W        W37697   8.181  14.204   3.352 -0.4276 -0.3730  0.1322
21889W        W37698   1.831   8.660  12.074  0.0735  0.1204  0.0626
21890W        W37699   7.977  11.951   0.609 -0.0116 -0.2062 -0.0245
21891W        W37700  16.943   5.033  13.133  0.3618 -0.0530  0.2934
21892W        W37701  12.258   4.849   3.543 -0.1993 -0.0349 -0.3911
21893W        W37702   3.898   5.228  10.617  0.0791 -0.2518 -0.0798
21894W        W37703   1.244  12.143  11.880 -0.1433  0.5111  0.0047
21895W        W37704  15.359   2.076   4.095  0.3594  0.1620  0.1782
21896W        W37705  13.008   5.745   1.671  0.1995  0.1370 -0.1998
21897W        W37706   1.435  14.377  13.821 -0.3068  0.0031 -0.1649
21898W        W37707  16.190   8.677   4.622 -0.1363  0.0851  0.0285
21899W        W37708  16.019  14.681  15.335  0.0778  0.0891  0.0592
21900W        W37709  16.433  13.104   1.773 -0.0494 -0.0743 -0.1955
21901W        W37710  17.636  12.342  13.503  0.3592  0.0712 -0.4898
21902W        W37711   4.246   4.569   0.160 -0.2285 -0.1107  0.2350
21903W        W37712  15.970   7.954   0.644 -0.2736  0.0670  0.0599
21904W        W37713  13.534   3.939   0.278  0.0039 -0.1082 -0.1537
21905W        W37714   8.972   0.852   2.580  0.2613  0.0975 -0.1683
21906W        W37715   4.534   3.980  12.866  0.0207  0.0955 -0.4999
21907W        W37716  14.619   9.851   6.469  0.2769 -0.2887  0.1121
21908W        W37717  11.577   1.704  10.804 -0.2114  0.2411 -0.2203
21909W        W37718   8.878  17.697   0.224  0.0918  0.3122  0.0244
21910W        W37719  18.429   8.701   0.927  0.1450 -0.0020 -0.1886
21911W        W37720  11.170   4.528   0.224 -0.2619  0.1407  0.1645
21912W        W37721  15.671   2.972   4.144  0.3153 -0.0564 -0.1673
21913W        W37722  10.228  11.618  14.957 -0.2629  0.0065 -0.2600
21914W        W37723   5.081  17.636   4.072  0.0771 -0.0139  0.0534
21915W        W37724   1.321   5.811  13.077  0.2097 -0.2971 -0.0949
21916W        W37725   9.825   1.070   4.354 -0.2642  0.3149 -0.1180
21917W        W37726  15.079   8.200   1.412  0.3672  0.0432 -0.0894
21918W        W37727   1.546  11.110  11.459  0.0392  0.0641 -0.4797
21919W        W37728   5.282  16.888   4.878 -0.2079 -0.0019 -0.1840
21920W        W37729   9.907   5.786   5.541 -0.1337  0.4535  0.0008
21921W        W37730  10.201  17.781  13.654  0.2767  0.1516  0.0560
21922W        W37731  10.573   4.198   2.982  0.3512 -0.1568  0.2219
21923W        W37732  13.224  16.914  11.699  0.0038  0.1854 -0.1653
21924W        W37733  16.575   7.028   3.191  0.0627  0.1808 -0.4316
21925W        W37734   4.127   9.138  14.454  0.0472  0.0310 -0.0183
21926W        W37735   1.666   3.288   0.442 -0.0092  0.2981  0.1159
21927W        W37736   7.285   7.287   1.105 -0.1449 -0.1203 -0.1439
21928W        W37737   0.063  11.721   1.527 -0.0770  0.0805 -0.0083
21929W        W37738  16.959  12.297  11.976 -0.0407 -0.2173  0.0491
21930W        W37739  15.285   5.009  14.911  0.0042  0.1433  0.0536
21931W        W37740   3.618   2.046  15.387  0.0180 -0.3155 -0.0366
21932W        W37741   7.124  15.116  10.188 -0.0972 -0.2325 -0.0637
21933W        W37742  11.112  11.966   5.242 -0.0293 -0.1921 -0.0542
21934W        W37743   5.281   7.234  11.743  0.0525 -0.3222 -0.3870
21935W        W37744  10.826   8.891  11.902 -0.1117  0.1255  0.1246
21936W        W37745   2.816   3.793  13.743  0.1412  0.4420  0.3129
21937W        W37746   1.436   4.360   3.584  0.0721  0.0042  0.2493
21938W        W37747   0.019  15.918   0.305 -0.0359  0.0860  0.0284
21939W        W37748  14.761  13.854  10.756  0.0732 -0.1288  0.1141
21940W        W37749   1.258  18.272  10.975  0.2231  0.3171  0.0323
21941W        W37750   4.967   6.376   2.393  0.2047  0.3549  0.0387
21942W        W37751   0.105   8.489   2.992  0.3412  0.1338 -0.4013
21943W        W37752  13.138   4.718  11.164  0.1147  0.0442 -0.0800
21944W        W37753  17.214   7.683   0.161  0.2541  0.2809 -0.2179
21945W        W37754  15.025  18.417  13.378 -0.0457  0.2459 -0.0787
21946W        W37755  13.197  16.272   0.366  0.0182 -0.0968 -0.2156
21947W        W37756   3.073  17.988  14.480 -0.2186  0.1022  0.2448
21948W        W37757  11.029   2.569   0.496 -0.1153 -0.1752  0.0768
21949W        W37758  10.265  17.828  10.812 -0.3256 -0.2464  0.1868
21950W        W37759  13.858   8.611  12.913  0.2590  0.0830  0.2957
21951W        W37760  11.007  13.593  12.200  0.1896  0.0582  0.0402
21952W        W37761   6.254  17.393   2.837 -0.1574 -0.2204 -0.0197
21953W        W37762  14.527  18.041  12.474  0.2232 -0.0677  0.0397
21954W        W37763  18.872  10.327  12.167  0.1275  0.2040 -0.0219
21955W        W37764   0.587   3.928  10.843 -0.0222 -0.1303  0.4412
21956W        W37765   5.018  18.319   3.303  0.2814 -0.0792  0.1806
21957W        W37766  12.905   1.620   3.099  0.0605 -0.0029 -0.1191
21958W        W37767   2.101   3.556   1.314  0.1580 -0.1414 -0.4925
21959W        W37768   4.605   1.533  11.070  0.2450 -0.1262  0.2240
21960W        W37769  15.840  17.820   3.848 -0.2258  0.1584  0.0318
21961W        W37770   4.879   9.635   0.032  0.1563 -0.2620  0.0395
21962W        W37771   4.871   7.075   2.128  0.1401 -0.0383  0.1343
21963W        W37772  14.624  11.475   3.575  0.4849 -0.0812 -0.1560
21964W        W37773   5.248   1.724  12.912 -0.1721  0.0783 -0.0762
21965W        W37774  10.479  14.892  12.863  0.0062  0.1861  0.2404
21966W        W37775  11.027   5.792   4.612  0.0402 -0.0386 -0.3193
21967W        W37776  15.031   4.395  10.023  0.0661  0.0351 -0.2115
21968W        W37777  10.933  14.577   3.054 -0.1866 -0.2498 -0.1224
21969W        W37778   8.172  14.950  11.996  0.1845 -0.1024 -0.2189
21970W        W37779  18.031  11.799  15.143  0.1642 -0.0602 -0.1255
21971W        W37780  18.351  13.904  12.730 -0.0451 -0.1211  0.0811
21972W        W37781   0.342  18.142   4.075 -0.1699  0.1641  0.1337
21973W        W37782   8.948  17.341  12.902  0.0364 -0.0583  0.0646
21974W        W37783   3.554  10.472   3.959  0.1255  0.0148 -0.1060
21975W        W37784  18.190   5.024   1.147  0.1556  0.1686  0.2288
21976W        W37785  15.877  10.459  14.627  0.1608 -0.0130  0.1765
21977W        W37786  12.184   1.567  15.132  0.1324  0.1390  0.0804
21978W        W37787  15.620  15.036  11.984  0.0704 -0.0422  0.1154
21979W        W37788  11.657   8.796  13.552 -0.1499 -0.0252 -0.0790
21980W        W37789  11.726  17.741  10.442  0.2585 -0.1268 -0.1005
21981W        W37790  11.747  12.074  12.706  0.0306  0.0698 -0.0610
21982W        W37791   2.710  12.747   1.936 -0.0966  0.2313 -0.0336
21983W        W37792  13.638   9.659   5.195 -0.0584 -0.1943  0.1343
21984W        W37793   3.594   6.290  11.716 -0.1801 -0.1411 -0.1223
21985W        W37794   0.652   2.878   4.154  0.0173 -0.0199 -0.3979
21986W        W37795  10.102   5.354  14.501  0.2698 -0.0895 -0.1394
21987W        W37796  17.177  17.303   3.789  0.3535  0.0555  0.3745
21988W        W37797  12.369  15.500   2.783 -0.1099 -0.0637  0.2495
21989W        W37798  16.069   8.238   3.256 -0.2073 -0.4167  0.1637
21990W        W37799   0.686  11.243  10.109 -0.0614  0.0680 -0.0065
21991W        W37800  18.791   8.313  13.393 -0.3209 -0.3219  0.0250
21992W        W37801   7.376  12.546   2.557 -0.1957 -0.0468 -0.0782
21993W        W37802   4.890   9.399  13.509 -0.1308  0.1255 -0.0004
21994W        W37803   5.272   7.055   0.708  0.3124 -0.0276  0.0687
21995W        W37804  17.043   8.349  14.271  0.1301  0.3276  0.1032
21996W        W37805   4.724   4.493  14.246 -0.1117 -0.0472 -0.0391
21997W        W37806   6.955   6.038   3.869 -0.2261  0.2557  0.1072
21998W        W37807   5.225   8.581   4.813  0.2298 -0.1807 -0.2371
21999W        W37808   7.279   0.489   3.926  0.2017 -0.1063 -0.3225
22000W        W37809  18.421  16.498  12.757 -0.0077 -0.2948  0.0271
22001W        W37810   4.403   1.798   1.276  0.1098 -0.0058 -0.1481
22002W        W37811   2.720   4.059   0.154 -0.0571 -0.4220 -0.2110
22003W        W37812  16.519  11.531   2.430 -0.2104  0.1171 -0.1933
22004W        W37813   7.509  18.696  14.046 -0.1860  0.0460  0.0497
22005W        W37814   6.935  17.540   5.480 -0.1042 -0.0686  0.0057
22006W        W37815   4.567  17.175  13.185 -0.0023  0.0414  0.0036
22007W        W37816  14.370   5.003   2.390  0.0504 -0.0684  0.0849
22008W        W37817  14.400  18.183   4.927  0.1750 -0.0124  0.1741
22009W        W37818  13.525  12.388  13.975 -0.0568  0.1966 -0.1787
22010W        W37819  14.110   5.888  10.691 -0.2481  0.0562 -0.2834
22011W        W37820   8.602   3.029  15.212  0.0164  0.1366  0.0229
22012W        W37821  11.908   0.615   2.433  0.0534 -0.1450 -0.0959
22013W        W37822  18.805  12.228   1.703  0.0629 -0.2217 -0.1892
22014W        W37823   0.420   6.636  11.300  0.4773 -0.1420  0.1568
22015W        W37824  12.629  15.235   4.927 -0.0906  0.3672 -0.0215
22016W        W37825   1.587   5.425  12.738 -0.0926 -0.1565 -0.2023
22017W        W37826  12.789   3.858  12.909 -0.1725  0.2153  0.2530
22018W        W37827  13.686  10.656   5.326  0.0273 -0.3481 -0.0252
22019W        W37828   5.202   3.298   3.944  0.0089  0.2137  0.1595
22020W        W37829  17.453  10.640  14.921  0.1466  0.2790  0.0659
22021W        W37830  11.027  17.853   4.096  0.1501  0.2585 -0.1000
22022W        W37831  17.714  15.471  11.607  0.1985 -0.1165  0.0883
22023W        W37832  12.728   0.588  15.187 -0.4416  0.0201  0.0305
22024W        W37833   0.106  14.967  11.965  0.3649  0.1563 -0.1556
22025W        W37834  12.902  11.369  11.524 -0.3646 -0.0600 -0.1674
22026W        W37835  15.111  16.268   4.184 -0.4290 -0.2054  0.1619
22027W        W37836   1.902   5.481   0.767  0.2517 -0.0551 -0.0798
22028W        W37837   4.838  13.392   1.047  0.0184 -0.0670  0.4018
22029W        W37838  17.595   6.926   1.566  0.1667  0.1551  0.2992
22030W        W37839  11.968   9.596   4.584 -0.4002 -0.3073 -0.0512
22031W        W37840   1.618   7.700   2.376  0.0345 -0.0592 -0.0098
22032W        W37841   4.360  12.592   5.021 -0.1613  0.0445 -0.0793
22033W        W37842   0.705   7.280  13.640 -0.1281  0.0386 -0.2712
22034W        W37843   0.581   8.098   5.041  0.0980 -0.3368 -0.0377
22035W        W37844  13.280  14.061  15.040  0.3765  0.0296  0.4518
22036W        W37845   7.817   9.501   0.565 -0.1358  0.0168  0.1766
22037W        W37846   7.071   7.886  14.764 -0.2040  0.1347 -0.3618
22038W        W37847   2.032   4.655   0.287  0.1102  0.0877  0.1115
22039W        W37848  10.790   6.682  14.829  0.1664 -0.0424  0.1839
22040W        W37849   6.235  14.079  11.051 -0.1944  0.1531 -0.3219
22041W        W37850   6.172  15.108   1.257  0.0074 -0.0030 -0.2380
22042W        W37851  18.750   9.573  14.410 -0.1180  0.2616  0.2134
22043W        W37852   7.785  15.690   3.094 -0.0761 -0.4419 -0.0306
22044W        W37853   5.238   3.629  14.735 -0.0101  0.1802 -0.0186
22045W        W37854   3.191  14.651   2.222  0.1086  0.1899  0.0146
22046W        W37855   0.092  15.407  14.425 -0.2149  0.3066 -0.1688
22047W        W37856  15.786  10.164   3.476 -0.0226  0.3738  0.3040
22048W        W37857  15.292  15.495  12.699 -0.1721 -0.0933  0.2557
22049W        W37858   2.957  12.912   0.454  0.0149 -0.3148 -0.3426
22050W        W37859  11.376   5.883  13.778 -0.1145 -0.3268 -0.0850
22051W        W37860   4.206  16.440   0.962 -0.1496 -0.1223 -0.4215
22052W        W37861  15.959  14.723   5.347  0.0564  0.0975  0.0905
22053W        W37862  13.788  13.543   4.208 -0.2239  0.1462  0.1139
22054W        W37863   1.262   3.548  12.516 -0.0025 -0.0962  0.1342
22055W        W37864   7.609   0.104   4.483  0.1719  0.0109  0.0364
22056W        W37865   1.459  14.846   1.550  0.0822 -0.2010 -0.1128
22057W        W37866   6.302   5.463   3.251 -0.0438 -0.2085  0.2284
22058W        W37867   9.441   0.524  14.891  0.1884 -0.1936 -0.0267
22059W        W37868  13.140  15.877  13.912  0.1761 -0.2199  0.0536
22060W        W37869   7.504   2.268   1.847 -0.1905  0.0230 -0.0456
22061W        W37870   7.435   0.018  15.258 -0.0924 -0.0635 -0.1691
22062W        W37871  14.672   7.162  10.978 -0.3481 -0.0140 -0.2343
22063W        W37872  16.420  12.134  14.248 -0.1726 -0.0834 -0.2368
22064W        W37873   9.411  15.515   1.689  0.2418 -0.1043  0.2816
22065W        W37874  15.770   5.159   4.253  0.1744  0.0838 -0.0295
22066W        W37875   2.812   2.539   1.110  0.2259 -0.1154  0.1492
22067W        W37876   9.110  11.301  13.342 -0.2070 -0.1515 -0.1989
22068W        W37877   8.298  13.906  12.846 -0.0766 -0.2890  0.1880
22069W        W37878   7.907  18.686   3.655 -0.1627  0.2403 -0.1668
22070W        W37879   6.155  17.022  10.371 -0.0573  0.0880 -0.1204
22071W        W37880   0.315  16.362   0.427  0.2271 -0.1307 -0.4672
22072W        W37881   7.468   9.990   3.597  0.3272  0.1214  0.1418
22073W        W37882  12.513  14.186   4.581 -0.1734  0.0787  0.1035
22074W        W37883   1.724   3.748   1.660 -0.1267 -0.0735 -0.1355
22075W        W37884   4.234   3.269   3.358  0.2097 -0.1444 -0.3435
22076W        W37885  15.789   3.315   5.859 -0.0376  0.0627 -0.0971
22077W        W37886  10.061   7.215  11.919  0.1117  0.1899  0.0872
22078W        W37887   7.903   8.651  10.470  0.1392 -0.0883  0.0242
22079W        W37888   0.257   9.290  15.416 -0.0997  0.0389 -0.1001
22080W        W37889  12.971   3.717   3.252  0.0812 -0.0929  0.0960
22081W        W37890  12.911   2.163   0.434  0.0239  0.1274  0.5588
22082W        W37891   1.830  14.706  15.091  0.0176  0.0123  0.2048
22083W        W37892   4.450   5.549   1.364 -0.0204  0.1393 -0.1787
22084W        W37893   1.450  13.465   3.996 -0.1807  0.2873 -0.1583
22085W        W37894  18.086   2.188   0.182 -0.1059  0.1996  0.0903
22086W        W37895   7.360  14.122   1.254  0.1378  0.2134  0.2671
22087W        W37896   2.294   0.514   3.591 -0.2297 -0.0649  0.2172
22088W        W37897  11.020   9.519  12.600  0.1596 -0.4215  0.1546
22089W        W37898   5.621  18.046   4.709 -0.2578 -0.0409  0.2351
22090W        W37899  18.383  12.863  12.930 -0.0785  0.2096 -0.0321
22091W        W37900   9.091  10.444   3.738 -0.2020  0.0399 -0.0099
22092W        W37901   3.357   4.032  12.898  0.2745 -0.0314 -0.0868
22093W        W37902   5.884   7.875   0.906 -0.1175  0.1645  0.1125
22094W        W37903   3.077   6.708   0.987  0.0577  0.0702 -0.0878
22095W        W37904   0.244   6.408  12.992  0.4045 -0.0584 -0.1862
22096W        W37905  16.773   6.215  13.510  0.2718 -0.1908  0.3265
22097W        W37906  10.201  12.341   0.590  0.1360 -0.0232  0.2086
22098W        W37907   4.401  14.806  14.061  0.0230  0.2798 -0.3754
22099W        W37908   0.151  11.394  11.043 -0.0512  0.2443  0.0151
22100W        W37909  14.577  10.582  12.722 -0.4136  0.0392  0.0912
22101W        W37910   3.439   1.843   1.657 -0.1293 -0.3728  0.2851
22102W        W37911   3.034   2.293  13.577 -0.0446  0.0248 -0.2763
22103W        W37912   9.277   4.120   2.325 -0.2373  0.0558  0.2461
22104W        W37913   1.410  17.395  11.611 -0.1801  0.1464  0.2629
22105W        W37914   7.729  10.567  12.644  0.2530  0.4606  0.0671
22106W        W37915   9.546  15.377   9.989 -0.0959  0.2049  0.0679
22107W        W37916  15.740   3.928  12.263  0.1107  0.3024  0.0322
22108W        W37917  14.684  14.720   0.351 -0.2818 -0.0163 -0.2018
22109W        W37918  13.098   0.115  11.264 -0.1052 -0.1075  0.3575
22110W        W37919   9.875  16.487   3.979 -0.1075 -0.0010 -0.0417
22111W        W37920  11.453   4.833  12.928 -0.0182  0.1872 -0.5684
22112W        W37921   2.316  14.926   0.373  0.2757 -0.0754  0.0666
22113W        W37922  18.086   7.674  11.271 -0.1933 -0.1059 -0.3099
22114W        W37923   3.947  16.229   1.728 -0.1009 -0.1100  0.1015
22115W        W37924   0.001   3.525  11.181  0.2362 -0.0544 -0.2960
22116W        W37925  14.661  13.399  15.270 -0.0509 -0.2783  0.0732
22117W        W37926   1.979   3.649   2.089 -0.0362  0.0287 -0.5846
22118W        W37927  15.142  12.484  11.336  0.3567  0.1696  0.1093
22119W        W37928   1.596  14.850  14.624  0.4118 -0.0114 -0.2824
22120W        W37929   0.024  17.896   3.492  0.0655  0.1635 -0.2729
22121W        W37930  10.999   4.661  13.124 -0.2669 -0.2504  0.1831
22122W        W37931  18.600  16.976   5.254 -0.2745  0.0189 -0.1510
22123W        W37932  11.237   6.879  11.128 -0.0144  0.0929  0.0260
22124W        W37933   8.864   4.177  13.479  0.2465  0.0663 -0.1807
22125W        W37934   0.345   6.414   2.274 -0.1037 -0.2101 -0.1150
22126W        W37935   6.161  15.606   2.714 -0.2512 -0.0029  0.4701
22127W        W37936  10.460  12.173   2.200  0.0395  0.0218 -0.3059
22128W        W37937   3.570  10.351  10.406 -0.1181  0.2188 -0.1398
22129W        W37938   9.088  15.111  13.671  0.0895  0.4064  0.3414
22130W        W37939  15.588   5.873  13.650  0.1476  0.0452 -0.1920
22131W        W37940   7.996   6.079  13.037 -0.1155 -0.3031 -0.2851
22132W        W37941   8.303  11.192   0.954  0.1237 -0.0176  0.0078
22133W        W37942   5.403   8.365   2.113 -0.1008  0.3415 -0.2917
22134W        W37943   0.122  16.437   3.085  0.1729 -0.2110 -0.0913
22135W        W37944   7.973  15.040  14.970 -0.0401  0.0538 -0.1038
22136W        W37945  11.811   7.398  13.954  0.2844 -0.0865 -0.2288
22137W        W37946  13.198  10.677   4.624  0.1058 -0.1373  0.0782
22138W        W37947  10.769   2.712   9.656  0.0312 -0.0312 -0.1306
22139W        W37948  14.359   6.851  10.126  0.1659  0.0450 -0.1616
22140W        W37949   2.201  16.908   4.802  0.0351  0.2468 -0.0407
22141W        W37950   8.173  10.424   3.755 -0.0239 -0.6214 -0.2625
22142W        W37951  18.876   0.666   1.319  0.1744 -0.1105 -0.1906
22143W        W37952   3.259   6.507   5.098 -0.0199  0.0442 -0.0892
22144W        W37953   9.650   0.802  14.418  0.0297  0.1264 -0.0956
22145W        W37954   9.029  13.842   0.603 -0.0178  0.0541 -0.0018
22146W        W37955   3.084  15.773  10.539  0.0005 -0.0090 -0.0433
22147W        W37956   5.121   5.258   0.463  0.0968  0.0435  0.0577
22148W        W37957   6.854   2.776  12.212 -0.1707 -0.0386 -0.2610
22149W        W37958  13.085   1.541  12.518 -0.0819  0.1274  0.2741
22150W        W37959  18.392   1.645  14.830  0.0082  0.0075 -0.0981
22151W        W37960   3.576   7.159   1.677 -0.2752  0.0357  0.1157
22152W        W37961   0.325   8.613  13.105 -0.3766 -0.0551  0.2086
22153W        W37962   3.254   0.308  10.757 -0.2275 -0.0552 -0.0775
22154W        W37963   2.191  17.634  10.315  0.0415  0.1648  0.0083
22155W        W37964   9.820  17.180   5.688 -0.3009 -0.2238  0.0606
22156W        W37965   9.719  12.858   3.112  0.1420  0.0676 -0.2006
22157W        W37966  18.628   1.464  11.106  0.1746  0.4508 -0.0823
22158W        W37967   9.484  12.622   5.534 -0.1379 -0.0578  0.0151
22159W        W37968   7.031  15.089   1.393  0.0532 -0.2407 -0.2564
22160W        W37969   5.037   9.372   0.966  0.0299 -0.1563 -0.0366
22161W        W37970   9.118  16.320   4.035  0.4019  0.1722  0.2021
22162W        W37971  12.159  18.553   5.154  0.3435  0.0041 -0.2497
22163W        W37972   4.737  12.959  14.773  0.1343 -0.1750 -0.1722
22164W        W37973  17.745  15.631  13.101 -0.3201 -0.1798  0.0331
22165W        W37974   9.415   2.253   5.063 -0.0272 -0.2452 -0.0297
22166W        W37975  16.142   4.838  12.420  0.0354 -0.3586  0.3390
22167W        W37976  17.035  16.971   5.337 -0.3460  0.2973 -0.0392
22168W        W37977  10.152  16.911  14.754  0.2792 -0.0799  0.1102
22169W        W37978   5.844  13.847  12.369  0.1401  0.0280  0.1146
22170W        W37979   8.511   7.793  12.556  0.0200 -0.0512  0.2029
22171W        W37980  14.244  18.487  13.472  0.4424 -0.0309 -0.2296
22172W        W37981  15.212   4.304  11.771 -0.0098 -0.0062  0.0787
22173W        W37982  15.505  17.496   2.339 -0.0257 -0.4561 -0.3638
22174W        W37983   4.642   8.539   3.241 -0.0613 -0.0447  0.2308
22175W        W37984  15.430   5.333   1.154  0.1865  0.0443 -0.3284
22176W        W37985   4.425  12.685   4.141  0.0409 -0.1305  0.0841
22177W        W37986   9.510   6.481  14.400  0.2299  0.1069 -0.2564
22178W        W37987  14.789   8.950   5.878  0.0380 -0.2304 -0.1900
22179W        W37988  12.719  15.865   1.010 -0.0866  0.3132 -0.1152
22180W        W37989   1.104  15.828  12.398 -0.0167  0.0141  0.0233
22181W        W37990  12.244   9.110   3.731  0.1273  0.2293  0.0374
22182W        W37991   5.317   0.117  11.355  0.2214  0.0867  0.1100
22183W        W37992   9.701   4.315   5.808  0.1151  0.0057 -0.1788
22184W        W37993  15.435   3.977  14.163  0.2114  0.1300 -0.3693
22185W        W37994   0.105   9.057  11.820  0.1659  0.0526  0.2044
22186W        W37995   0.848  10.538   3.693  0.2474  0.1272  0.2962
22187W        W37996   7.440   0.728   3.587 -0.1336  0.2012 -0.0725
22188W        W37997   3.535   2.142  13.470 -0.2035 -0.0521  0.0521
22189W        W37998   4.157   2.802   3.327 -0.2675 -0.1242  0.3583
22190W        W37999  10.465   6.968  11.710 -0.2876  0.0587  0.1368
22191W        W38000   3.437  10.717   3.537  0.1594 -0.0737  0.0299
22192W        W38001   2.693  13.536   5.002 -0.0070 -0.2581  0.1555
22193W        W38002  16.081  18.264   1.100  0.7436  0.1205  0.0207
22194W        W38003  13.370   3.468   2.763  0.0618 -0.0094 -0.6235
22195W        W38004   7.043  12.034   0.599  0.2941 -0.0824  0.0068
22196W        W38005   3.665  14.912   3.140 -0.0214 -0.0681  0.0886
22197W        W38006   3.459  10.110  13.354  0.0453  0.1712  0.1540
22198W        W38007   2.764   0.273   0.924  0.0260  0.0539  0.1473
22199W        W38008  15.669  14.545   4.047  0.3883  0.2417  0.0548
22200W        W38009   6.284  10.338  12.029  0.0748 -0.1661 -0.2670
22201W        W38010  11.806   5.632   1.267 -0.0457 -0.3822 -0.0234
22202W        W38011   7.108   1.987  14.613  0.4373  0.0545  0.1271
22203W        W38012   0.275  17.696  13.434  0.0677 -0.0766 -0.0907
22204W        W38013  11.549   4.073   3.599 -0.0377  0.0186  0.1434
22205W        W38014   6.784  10.092   5.097  0.3089 -0.0941  0.1107
22206W        W38015  16.775   0.547  10.909 -0.0837 -0.0662 -0.0463
22207W        W38016   1.809  10.750   1.689 -0.0047 -0.1305 -0.1564
22208W        W38017  13.861  13.813   4.679  0.1313  0.1621 -0.1097
22209W        W38018   8.399  14.354   2.002  0.1810  0.1467  0.1922
22210W        W38019   4.149  14.763   1.503 -0.2064 -0.1602  0.1226
22211W        W38020  12.938   7.656   3.992  0.0111 -0.3137 -0.0849
22212W        W38021   2.197   9.090  14.212  0.4294 -0.0026  0.1037
22213W        W38022  10.070   5.666   4.551 -0.1061 -0.0603  0.0365
22214W        W38023   6.691   5.622  13.600 -0.0511 -0.0093  0.2256
22215W        W38024  16.475  17.559  14.795  0.0413 -0.0254  0.0071
22216W        W38025  18.069   4.771  11.274 -0.2265 -0.1735 -0.1149
22217W        W38026   7.235   2.055   4.125 -0.2254  0.0619  0.0468
22218W        W38027   7.048   4.646   0.274  0.0081 -0.0032 -0.2106
22219W        W38028  13.224  16.662   2.773  0.0586 -0.1144  0.1706
22220W        W38029   6.752  13.589   9.746  0.1092 -0.1604 -0.0236
22221W        W38030  13.841   6.111  13.669 -0.0009  0.1417  0.1652
22222W        W38031  17.850  13.277   2.718  0.0494  0.3200 -0.2550
22223W        W38032   8.329  13.431   0.117  0.1420  0.0204  0.0622
22224W        W38033   0.548   2.620  13.460  0.2032 -0.3305  0.1866
22225W        W38034  18.052  15.073   0.934  0.1904  0.0315  0.1118
22226W        W38035  11.913   4.933  12.922 -0.0070  0.1732 -0.1725
22227W        W38036  13.447  12.292   0.362  0.0458  0.0063  0.0212
22228W        W38037   5.211   4.516   1.578  0.0501 -0.3899  0.3512
22229W        W38038  18.625   0.258   1.284  0.0452  0.5846  0.2107
22230W        W38039  18.785  14.854  14.796 -0.0802  0.3022  0.0920
22231W        W38040  12.523  13.760  11.024  0.1979  0.0778 -0.2090
22232W        W38041  16.350   5.508  13.881  0.0934  0.2821  0.2399
22233W        W38042  18.851   4.024   2.542 -0.2124  0.0975 -0.1073
22234W        W38043   3.944  13.916  11.174  0.1804  0.0063  0.2333
22235W        W38044   5.276   4.594   1.086  0.2850 -0.0198 -0.1953
22236W        W38045   7.275  11.267  13.296 -0.0239  0.0498  0.1206
22237W        W38046   5.726   5.933  11.810 -0.0103 -0.2644  0.1659
22238W        W38047  10.698   1.295   0.555 -0.0608 -0.1615  0.3635
22239W        W38048   8.604   3.267   0.278  0.2565  0.4499 -0.0775
22240W        W38049  16.773  17.656  11.465 -0.0156 -0.3479 -0.0302
22241W        W38050  10.930  13.924   4.889  0.0224  0.2266  0.2933
22242W        W38051  13.497  16.662   3.238 -0.4647 -0.1884 -0.1476
22243W        W38052   9.714   1.353   4.981 -0.1697 -0.1124 -0.1096
22244W        W38053   4.349   2.197  10.721 -0.2018 -0.0401 -0.2010
22245W        W38054   2.489  14.507   4.862  0.0437  0.0124  0.3489
22246W        W38055  18.082  12.521  13.235  0.2692 -0.2956 -0.0074
22247W        W38056   3.157   3.564  14.115 -0.0876  0.1564  0.2993
22248W        W38057   5.433   3.726   5.436 -0.1435 -0.1390  0.1274
22249W        W38058  11.464   0.901   1.128  0.4322 -0.0016  0.1095
22250W        W38059  12.985   5.729  14.056 -0.1587  0.1862  0.0971
22251W        W38060  18.116   6.428   0.247  0.4679  0.0572 -0.2267
22252W        W38061  11.449  17.070   1.560  0.1525  0.1410 -0.0550
22253W        W38062  10.869   6.153  13.926 -0.1124  0.0808  0.1438
22254W        W38063   9.183  14.113  12.623  0.0040 -0.0955  0.2565
22255W        W38064  11.414   0.333   3.672  0.0252  0.1011 -0.2892
22256W        W38065   6.121  16.640  14.802  0.4667 -0.2517  0.1542
22257W        W38066   7.756   0.822  14.475 -0.0476  0.2294  0.0719
22258W        W38067  18.765   1.312  14.829 -0.0853  0.1284 -0.6088
22259W        W38068  11.809   8.296  10.964 -0.1411 -0.1610  0.1539
22260W        W38069   7.096   5.385   3.296 -0.0466  0.2913  0.1474
22261W        W38070   3.051   5.823  10.532 -0.2134  0.1391 -0.1323
22262W        W38071   6.877  12.863   3.904 -0.0691 -0.0902 -0.1662
22263W        W38072  12.553   2.850   2.374 -0.0531  0.2749 -0.1326
22264W        W38073   3.092   1.151   4.956  0.0680  0.1110  0.2246
22265W        W38074   4.241   4.684  12.364 -0.0938  0.0645 -0.0929
22266W        W38075  11.562   2.170   3.734  0.1178 -0.1065 -0.1969
22267W        W38076  17.551   2.399  11.072 -0.1575  0.3481 -0.0342
22268W        W38077  18.628  18.190   3.138  0.1429  0.0447  0.0285
22269W        W38078  18.891  13.477   9.558 -0.1982  0.2094  0.3235
22270W        W38079   3.933   6.859   3.710  0.1878 -0.2759  0.0075
22271W        W38080  15.575  13.076  13.609  0.0308  0.1065 -0.0727
22272W        W38081  18.079   6.168   1.883  0.0675  0.1497  0.1796
22273W        W38082   4.677   2.924  15.313 -0.0486  0.1427  0.0506
22274W        W38083  10.448  17.070   1.614  0.0235 -0.0959  0.1419
22275W        W38084   7.483   9.482   1.790  0.3251 -0.0004  0.1414
22276W        W38085   7.574  18.198   3.802 -0.0610  0.3320 -0.2133
22277W        W38086   4.004  10.122   3.589 -0.0490 -0.1636 -0.2053
22278W        W38087  10.074   6.601  12.531  0.1915 -0.3436 -0.1681
22279W        W38088   6.777  18.570  13.644 -0.2423 -0.0815  0.1286
22280W        W38089  10.189  12.603  14.112 -0.1590 -0.0948  0.0952
22281W        W38090   6.837  16.558  10.583  0.0612  0.0941 -0.0597
22282W        W38091   0.754   7.001   1.491  0.0234  0.1110 -0.3781
22283W        W38092   2.710   2.283  12.743 -0.1271  0.2161  0.0850
22284W        W38093   2.043   7.110   4.719 -0.2167 -0.1268  0.1959
22285W        W38094  12.354   2.807   2.853  0.1284  0.1858  0.1182
22286W        W38095  13.040  12.650  13.483 -0.0157 -0.1069 -0.1020
22287W        W38096   9.218  10.568  14.527  0.1249  0.0642 -0.4379
22288W        W38097  10.764   1.994   3.700 -0.2516 -0.0749  0.1265
22289W        W38098  15.383  11.986   4.180 -0.3382 -0.2709  0.0505
22290W        W38099  15.839   6.287   5.508 -0.0877  0.3069  0.2936
22291W        W38100  10.982  15.786  12.452 -0.0905  0.2792 -0.2441
22292W        W38101   5.171  15.392   2.551 -0.0259  0.0340 -0.1803
22293W        W38102  12.017   6.491  13.393  0.0203  0.1946  0.1514
22294W        W38103  14.984   3.039  14.724  0.0299  0.1147 -0.1286
22295W        W38104  14.970   2.070  13.688  0.2421 -0.0256 -0.2137
22296W        W38105   8.126   0.053  11.867  0.0494  0.2086  0.1096
22297W        W38106  16.297  12.164   2.968  0.0902  0.2798  0.0886
22298W        W38107  17.576   6.559   3.451  0.1547 -0.1995  0.1155
22299W        W38108   5.337   8.014   4.430 -0.0104  0.1148 -0.0265
22300W        W38109   3.295   7.797  15.123 -0.0052  0.1415  0.1057
22301W        W38110  16.431   1.224   3.010 -0.0803  0.0742 -0.0757
22302W        W38111  15.062  16.773   2.180 -0.2227  0.1265  0.2633
22303W        W38112  12.817  16.116   0.090 -0.0595 -0.0104  0.0359
22304W        W38113  13.231   1.954  12.225 -0.1250 -0.0781  0.2897
22305W        W38114  12.985   1.203  13.834  0.2677  0.3224 -0.1193
22306W        W38115   8.568   0.791  13.295  0.0864  0.2979 -0.0600
22307W        W38116   1.026   5.222  11.125  0.1607 -0.1039  0.3498
22308W        W38117  17.384   4.718   3.634  0.0720 -0.1171 -0.1867
22309W        W38118  17.710  12.590  12.888  0.1973  0.3396 -0.0085
22310W        W38119   7.334   6.320   4.948  0.0438  0.0446  0.2718
22311W        W38120  15.782   2.974   4.608  0.2540 -0.0745 -0.0098
22312W        W38121  16.764   6.379   6.080  0.2476 -0.0772 -0.1707
22313W        W38122   6.793  16.419  14.607  0.0610  0.2554  0.3004
22314W        W38123  13.517   7.731  11.724  0.3294  0.0283  0.1352
22315W        W38124  17.673   1.810   3.567  0.0529  0.1614 -0.1925
22316W        W38125   1.189   0.002   4.977  0.0974  0.0412  0.1765
22317W        W38126  17.241   0.624  10.379 -0.1625 -0.0343  0.0414
22318W        W38127   1.946  10.009   2.578  0.1056  0.1014 -0.3388
22319W        W38128   1.798   9.380  12.362 -0.0117  0.0875 -0.1387
22320W        W38129  15.409  12.036  12.132  0.0839 -0.0563 -0.4986
22321W        W38130  18.098   5.142  14.919 -0.2275  0.1375  0.3791
22322W        W38131   9.751  14.783   2.530  0.0809 -0.0083 -0.3413
22323W        W38132  11.828  10.501   3.723  0.2745  0.0703 -0.0964
22324W        W38133   9.893   5.092   0.495 -0.0614 -0.1163  0.0388
22325W        W38134  17.204   5.301   4.987 -0.0411  0.3427 -0.1787
22326W        W38135  14.529   9.850   1.568  0.3284 -0.0708  0.2172
22327W        W38136   7.450  17.789   1.121 -0.0064  0.0970 -0.0315
22328W        W38137  14.253  18.781  10.801  0.2709 -0.2104 -0.2193
22329W        W38138   0.990  18.313   1.144  0.2208 -0.0258  0.1510
22330W        W38139   8.766   0.389  14.324 -0.2471  0.1422 -0.1997
22331W        W38140   5.260  13.491  10.381  0.1030  0.0808 -0.0189
22332W        W38141   6.433   9.609   5.245  0.2581 -0.0980 -0.1112
22333W        W38142  16.387   1.327  13.786 -0.0296  0.2303 -0.0173
22334W        W38143   3.815  12.634  10.869  0.1415 -0.1115 -0.0661
22335W        W38144  15.109   4.990   1.822  0.1080  0.1802 -0.0424
22336W        W38145   2.808  10.126   0.901 -0.3635 -0.0172 -0.1143
22337W        W38146   0.472  17.118   5.847  0.1773 -0.0186 -0.2400
22338W        W38147  14.522   6.516   2.043 -0.1824 -0.0447 -0.0033
22339W        W38148  15.492   1.358  12.867  0.0644  0.1149 -0.3218
22340W        W38149  14.446   7.627  11.747 -0.2190  0.2375 -0.1892
22341W        W38150   9.806  10.158  14.116 -0.1370 -0.0967 -0.0601
22342W        W38151   9.822  14.133  12.652  0.4833 -0.0454  0.0678
22343W        W38152  12.603   6.784   3.781 -0.0513 -0.0142  0.3639
22344W        W38153  14.225   7.962   3.936  0.0179 -0.1046 -0.1085
22345W        W38154  15.282  16.231   2.041  0.0956 -0.3521 -0.2116
22346W        W38155   0.576  13.114   2.694 -0.1510  0.1796  0.2229
22347W        W38156  12.544   3.048  13.524  0.1750  0.1154  0.1075
22348W        W38157   2.679  10.795   1.502  0.1126  0.0648 -0.1542
22349W        W38158  15.774   1.600   4.178 -0.0535  0.2920 -0.0410
22350W        W38159  11.251   3.432  14.842  0.2176  0.2715 -0.2926
22351W        W38160   4.879   1.803  14.188 -0.2007  0.1913  0.3625
22352W        W38161   7.887   7.599   5.250  0.1397  0.2681 -0.2348
22353W        W38162  10.153  16.222   4.439  0.1323  0.0648  0.2557
22354W        W38163   5.488   1.348  12.183  0.1568 -0.0503 -0.1818
22355W        W38164   5.625  13.165   2.264 -0.2738  0.0043  0.2020
22356W        W38165   8.025  14.640  11.668 -0.0037 -0.0672 -0.3175
22357W        W38166   5.104   6.687   3.384  0.1429 -0.2518 -0.1894
22358W        W38167  14.166  10.710   1.161  0.0611  0.4009 -0.0085
22359W        W38168   7.115   6.276   1.841  0.0289 -0.1181 -0.0007
22360W        W38169   0.470  12.349   4.384 -0.3959  0.1362 -0.1886
22361W        W38170   5.784   5.119   4.626  0.1592 -0.0915  0.0354
22362W        W38171  10.790   1.984  12.923 -0.2798 -0.1511  0.0329
22363W        W38172   7.148  14.411   4.117  0.0191  0.2129 -0.0747
22364W        W38173  14.647  13.356  14.018 -0.2872  0.1395 -0.0033
22365W        W38174   5.277   9.689   3.703  0.2465 -0.1900 -0.1215
22366W        W38175  15.362  14.809   3.385 -0.0300  0.3534  0.3382
22367W        W38176  17.158   8.227   1.559  0.0065 -0.1605  0.1528
22368W        W38177   6.373  15.663  12.100 -0.1293 -0.2264  0.0199
22369W        W38178  16.020   6.287  11.960 -0.2199  0.4060 -0.1221
22370W        W38179   4.293   4.472   3.511  0.0987 -0.0308 -0.0185
22371W        W38180   6.198   1.568  13.842  0.1038  0.0871  0.0469
22372W        W38181   2.525  18.686  14.352  0.3456  0.0209  0.1312
22373W        W38182  12.292  10.595   3.752 -0.0913  0.3078 -0.0714
22374W        W38183   5.355   5.482  14.065 -0.2805  0.0859  0.2105
22375W        W38184   4.211   9.122   0.496  0.0997  0.0517 -0.3002
22376W        W38185   3.679  11.604   0.966  0.0729 -0.0826 -0.1198
22377W        W38186  13.292   0.474  13.044  0.1354 -0.0120  0.0146
22378W        W38187  18.636  15.282   1.517 -0.2659  0.0379 -0.1887
22379W        W38188  13.181  12.345  14.386 -0.0833 -0.2078  0.3481
22380W        W38189  14.804   5.130  12.780 -0.0646  0.2817 -0.1341
22381W        W38190   4.499   9.907   2.279  0.1087 -0.2508 -0.2527
22382W        W38191   9.026  10.162  12.143  0.0522  0.3462 -0.0415
22383W        W38192   5.437   2.501   3.474  0.0724  0.1123  0.1274
22384W        W38193  16.167   7.141   0.691  0.1154 -0.1888 -0.1717
22385W        W38194   6.609  18.813   4.038 -0.0988 -0.0635  0.1474
22386W        W38195   0.947  17.528  15.218 -0.3306 -0.0455 -0.4772
22387W        W38196   1.197  11.223   1.323 -0.0491  0.0182 -0.2218
22388W        W38197  16.323  14.304  13.407  0.0952 -0.1402 -0.3676
22389W        W38198  16.723  13.611   5.124 -0.0787  0.1303  0.2876
22390W        W38199   0.919  10.361  11.910  0.0128  0.0404  0.1606
22391W        W38200  13.687   0.425   4.752 -0.0465  0.1703  0.0125
22392W        W38201   9.410   5.051  14.005 -0.0205  0.1504 -0.2065
22393W        W38202  14.832  13.508   1.147 -0.1824  0.1310 -0.0335
22394W        W38203   4.351   9.039  12.844  0.0325 -0.2095 -0.2600
22395W        W38204   9.017   5.801   4.208 -0.4620 -0.1204 -0.2508
22396W        W38205   8.950   7.132   6.070 -0.1942 -0.0473  0.0093
22397W        W38206  10.178  18.614  13.215 -0.0643  0.2395  0.4667
22398W        W38207   2.057  16.636   4.196  0.0009  0.0660  0.0686
22399W        W38208   6.723   4.859   1.272  0.1414 -0.3367 -0.0873
22400W        W38209   7.700  10.105   0.475 -0.1191  0.2682  0.1951
22401W        W38210  15.147  17.224  14.121 -0.1096 -0.0713  0.0817
22402W        W38211   3.152   9.636   5.029 -0.0558  0.1243 -0.0070
22403W        W38212   1.925   8.491   2.321  0.1725 -0.2200  0.0372
22404W        W38213   0.084   1.083  13.896  0.3643  0.0287 -0.1823
22405W        W38214   4.498  18.685   3.936 -0.2587  0.0380  0.1959
22406W        W38215   4.523  13.296   4.767  0.1374 -0.0553  0.1378
22407W        W38216  10.362   2.732  14.128 -0.2977 -0.2715 -0.0042
22408W        W38217  11.852   9.985  14.269  0.0335  0.2229 -0.1587
22409W        W38218  14.795  13.054  14.925 -0.3806  0.1250  0.2659
22410W        W38219   2.443  10.154   5.443  0.3867  0.2133  0.2301
22411W        W38220  14.857  10.959   5.641 -0.0003  0.0105  0.0999
22412W        W38221   0.305   2.026   0.114 -0.3178 -0.1379  0.1060
22413W        W38222   9.038  15.007  11.777  0.1357 -0.1773  0.0354
22414W        W38223  13.963  11.297   1.996  0.1736 -0.0539 -0.1556
22415W        W38224   8.699  13.654  11.135  0.1967  0.1619  0.2005
22416W        W38225   6.456   0.764   4.126  0.1178 -0.1209 -0.0829
22417W        W38226  14.063  15.653   1.667 -0.1740 -0.0128  0.0450
22418W        W38227   8.891  16.474   1.496 -0.2428  0.0531  0.1453
22419W        W38228  14.710   9.485   5.586 -0.0445  0.0753  0.0520
22420W        W38229   1.028  11.681   4.856 -0.1274  0.1260  0.0898
22421W        W38230  13.080   7.040   3.819  0.3056  0.0468 -0.1535
22422W        W38231   8.996  15.069  14.424  0.1485 -0.0637 -0.1429
22423W        W38232  18.154  13.240   0.035 -0.1818 -0.0299 -0.2451
22424W        W38233   9.930   6.634  15.104  0.0204  0.1023 -0.2469
22425W        W38234   9.260  15.270  13.129 -0.2242  0.2547 -0.3740
22426W        W38235   3.779  14.160   1.846 -0.1217 -0.2157 -0.0046
22427W        W38236  17.934   3.027  13.685  0.0465  0.0031 -0.0780
22428W        W38237  11.146   3.485   5.420  0.1094  0.1615  0.1932
22429W        W38238  17.076   2.096   3.525 -0.1274 -0.0247 -0.0833
22430W        W38239  12.664   4.764  11.911 -0.2207  0.0317 -0.0534
22431W        W38240  17.562   6.122  13.604 -0.2372  0.0441 -0.0783
22432W        W38241   1.724   1.906  13.421 -0.2232 -0.0044 -0.0441
22433W        W38242  18.450  14.354  11.895  0.1914 -0.2328  0.1375
22434W        W38243  16.870  17.900   2.213 -0.3945 -0.4618 -0.1577
22435W        W38244  18.405   2.481  14.232  0.0727  0.0018 -0.0929
22436W        W38245   3.136  18.603  12.675 -0.1922  0.0791 -0.1710
22437W        W38246   5.413   9.898  11.640  0.0657 -0.0440  0.1390
22438W        W38247   3.670   9.060  11.595 -0.0087 -0.1247  0.0156
22439W        W38248   2.836  13.684  11.610  0.0439 -0.0735  0.0075
22440W        W38249   7.607   1.954   3.203 -0.3819  0.1495 -0.0753
22441W        W38250  15.776   3.020   3.084  0.1000  0.1287 -0.2762
22442W        W38251   8.170  17.585   3.713  0.0147 -0.3430 -0.0260
22443W        W38252   1.473   7.893  13.488 -0.0417 -0.0854 -0.2918
22444W        W38253   0.066   5.372  12.213  0.0687 -0.2484 -0.0546
22445W        W38254   2.853   6.299   2.784  0.0877  0.0893 -0.0136
22446W        W38255  11.798   6.540  15.031 -0.0718  0.2232 -0.0228
22447W        W38256   1.609  17.801   3.441  0.0183 -0.0008 -0.1282
22448W        W38257   3.669   7.548  15.392 -0.0230 -0.1768 -0.0182
22449W        W38258   0.560   0.091   1.057  0.0449 -0.3516 -0.1026
22450W        W38259  13.617   5.501   4.663 -0.0328  0.2326 -0.0459
22451W        W38260   9.808  17.476  10.883 -0.1298 -0.1149 -0.1284
22452W        W38261   3.844  14.878  10.848 -0.2480 -0.0801 -0.2179
22453W        W38262   0.042   2.769  15.149  0.0985 -0.1067  0.1248
22454W        W38263  14.959   7.616  15.380 -0.1951  0.1285  0.1689
22455W        W38264   2.697  11.122   3.057  0.0922  0.1570  0.2974
22456W        W38265  14.128   6.969  13.136  0.0349  0.1938  0.0900
22457W        W38266   9.785  18.600  13.833 -0.1335  0.1860  0.0292
22458W        W38267   6.963  11.988   2.375 -0.0392  0.0560 -0.0010
22459W        W38268   9.805  17.837   4.227 -0.0600  0.1365  0.0577
22460W        W38269   6.542  17.690  14.274  0.0866  0.1294  0.3767
22461W        W38270  14.467  17.672   4.793 -0.0157  0.0928 -0.1764
22462W        W38271  16.637  14.908   3.162  0.1332  0.3090  0.1640
22463W        W38272  12.719   4.404   0.225  0.0361  0.2743 -0.1287
22464W        W38273  13.286   0.864   3.573  0.2114 -0.4184 -0.0788
22465W        W38274  12.067   3.935  14.658 -0.1252 -0.0532 -0.1583
22466W        W38275  18.226   8.058   4.965  0.1806  0.3589 -0.1641
22467W        W38276   6.443  17.074   2.028  0.0977  0.1563  0.0327
22468W        W38277  16.052   6.811  11.672 -0.0710 -0.2128 -0.3748
22469W        W38278  17.708   5.172  11.877 -0.1995 -0.0988  0.0401
22470W        W38279   0.492  15.603  15.215 -0.2035  0.1178  0.2459
22471W        W38280  12.730   6.918  12.952 -0.2153 -0.1877  0.0963
22472W        W38281  12.482   1.995  11.183  0.0251 -0.4176 -0.1760
22473W        W38282   6.665   6.274  11.607 -0.1079  0.1219 -0.0779
22474W        W38283  10.418   3.789  14.099 -0.0574  0.2311  0.0636
22475W        W38284  14.106   5.627   0.655  0.2069 -0.1086 -0.4371
22476W        W38285   1.599   7.187   1.963 -0.1075 -0.0655 -0.0428
22477W        W38286  18.747  12.229  15.182  0.0131  0.1274  0.1043
22478W        W38287   6.338   3.447  13.728 -0.0325 -0.0428 -0.2151
22479W        W38288  17.069   7.279  12.565 -0.1308 -0.1259  0.2465
22480W        W38289  18.424  13.574   4.063  0.2854  0.0890 -0.0190
22481W        W38290  14.624  12.834  10.891 -0.1494  0.1705 -0.2818
22482W        W38291  15.366   8.858  15.408 -0.0461  0.1751 -0.3667
22483W        W38292  11.111  17.576  11.253 -0.1923  0.1314 -0.1133
22484W        W38293   4.907   6.714   4.323 -0.0609  0.0869  0.3133
22485W        W38294   5.276   9.451   1.438  0.0045  0.0092 -0.0989
22486W        W38295   9.574  12.694   0.099 -0.0053  0.1972  0.0713
22487W        W38296  11.374  12.438   4.348 -0.3425  0.0363  0.4438
22488W        W38297  13.216  17.237   5.727  0.4035  0.1135 -0.2935
22489W        W38298   8.584   3.993   2.767  0.3199 -0.0028  0.2621
22490W        W38299   5.642  15.172   1.430  0.1240 -0.2416 -0.0364
22491W        W38300  10.783   8.312  15.302  0.2685  0.0167 -0.1674
22492W        W38301   6.325  14.122   0.839 -0.0738  0.1076 -0.0161
22493W        W38302  14.840   8.684  11.222  0.1222 -0.0368 -0.1625
22494W        W38303  17.688   3.056   5.254 -0.1126 -0.0030  0.0823
22495W        W38304  14.746  11.455  12.720 -0.2352  0.0297  0.2809
22496W        W38305  15.978   1.638   4.988  0.0102  0.1361 -0.1303
22497W        W38306  16.400  11.697  12.578 -0.1980 -0.0344 -0.0523
22498W        W38307  13.947  18.474   1.860 -0.0755  0.3130  0.0048
22499W        W38308   2.199   1.933   4.188 -0.0405  0.0060 -0.3968
22500W        W38309   3.447   7.580   3.479 -0.1788 -0.0287 -0.1451
22501W        W38310  14.331  15.971  13.112 -0.1926 -0.0244 -0.0194
22502W        W38311   3.421   8.893   3.665 -0.1165  0.4521 -0.2524
22503W        W38312   0.737   5.382   3.419  0.3543  0.3168 -0.0317
22504W        W38313  17.039  14.668  10.588  0.0677 -0.1735  0.2274
22505W        W38314  13.329   6.222   2.742 -0.0163 -0.2345  0.1473
22506W        W38315   3.757  17.977   1.039  0.0552  0.3010  0.0415
22507W        W38316  11.142   9.947   2.547 -0.2448 -0.0134  0.0006
22508W        W38317  16.600   2.556  13.244 -0.1308  0.2922 -0.0718
22509W        W38318   2.048  10.223   4.499 -0.0520  0.0355  0.4909
22510W        W38319   4.323   2.680   2.657 -0.0686 -0.1716  0.1462
22511W        W38320   3.318  14.360  12.507  0.0819 -0.1332  0.0228
22512W        W38321   0.516  12.896   0.836 -0.0632 -0.0456 -0.0121
22513W        W38322   5.858   2.014  14.603  0.0408 -0.2058 -0.2023
22514W        W38323   9.429   0.047   5.441  0.2206  0.1312  0.2416
22515W        W38324   3.461  14.525  15.204  0.0512  0.1580  0.1189
22516W        W38325   5.387  12.265  12.349  0.2586 -0.1893  0.4854
22517W        W38326   2.691   3.760   0.674 -0.3306 -0.3683 -0.1219
22518W        W38327   1.123   5.091   5.059 -0.0967  0.1627  0.3902
22519W        W38328   1.550   9.671   3.192 -0.0125  0.0899 -0.1684
22520W        W38329  18.758   5.684  12.976  0.2497 -0.3063  0.0920
22521W        W38330  18.667  16.629   5.644  0.1365 -0.1816  0.1795
22522W        W38331  12.936   8.200  14.255  0.0166  0.2336 -0.1650
22523W        W38332  10.227   4.586  15.168 -0.0889  0.2685  0.0794
22524W        W38333   3.351  15.019  15.271 -0.0646  0.0859  0.0505
22525W        W38334   2.938  10.153  12.326  0.2043 -0.4964  0.0599
22526W        W38335   8.933  16.996  12.496 -0.2041  0.0517 -0.1999
22527W        W38336  11.789  12.403   9.883  0.1471 -0.0531 -0.5670
22528W        W38337  12.783   3.933  13.713 -0.0362 -0.0505  0.0299
22529W        W38338   4.429   1.104   2.880  0.1766  0.1939 -0.2707
22530W        W38339  13.211  16.137   4.696 -0.0381  0.3055 -0.2616
22531W        W38340   4.352  18.188  14.278  0.2931  0.3476  0.0877
22532W        W38341   0.410   2.756   3.307  0.0914 -0.0900  0.1783
22533W        W38342  18.704   1.936   4.665 -0.2290  0.2667 -0.0266
22534W        W38343   7.983  16.460   1.143 -0.2267 -0.1171  0.1533
22535W        W38344   9.832  13.572   0.603  0.1048 -0.0619  0.0785
22536W        W38345  13.998   2.000  12.655  0.0567 -0.0201  0.0571
22537W        W38346   4.391  11.886  15.370  0.2810 -0.0055 -0.0122
22538W        W38347  10.036   9.321   4.306  0.1139 -0.2184  0.4316
22539W        W38348   5.593  14.693   0.045 -0.0419 -0.0171 -0.1243
22540W        W38349  17.995   1.317  13.625 -0.0648 -0.3063  0.1380
22541W        W38350  16.128   8.993  13.217 -0.1941 -0.0743 -0.2623
22542W        W38351  11.166   6.236   0.048 -0.2135 -0.2045 -0.0320
22543W        W38352  18.646   5.801  14.459 -0.0155 -0.0425 -0.0243
22544W        W38353   7.559   1.726   4.537  0.0083 -0.0392  0.0236
22545W        W38354  18.537  11.742  10.560 -0.0360 -0.0630  0.0912
22546W        W38355   4.699  18.243  11.301  0.2140  0.5502 -0.3116
22547W        W38356   6.006  10.931   1.671 -0.1990  0.0848  0.0391
22548W        W38357  13.178  15.809  11.110 -0.0483  0.0193  0.1737
22549W        W38358   5.114   4.626  12.801  0.0619 -0.1294 -0.1073
22550W        W38359  13.235  15.365  13.881 -0.2493  0.1078 -0.1218
22551W        W38360  10.190   0.666   4.693  0.5252 -0.1048 -0.0421
22552W        W38361   4.398  15.546  13.431 -0.3550  0.2074 -0.2745
22553W        W38362  13.815  11.825  11.581  0.1156  0.2798  0.4134
22554W        W38363   4.494   6.687  11.325 -0.1221 -0.1533 -0.3685
22555W        W38364   2.898   4.108   2.673  0.1692  0.2488  0.1291
22556W        W38365  10.410   3.717  11.923  0.0809  0.1551  0.3500
22557W        W38366   4.912  11.671  10.443 -0.0627 -0.0551 -0.3335
22558W        W38367   0.544   5.449   4.333 -0.2213  0.1378  0.1841
22559W        W38368  10.594   7.396   2.289  0.1856  0.2047  0.2394
22560W        W38369  14.920   3.284   0.946 -0.2666  0.2863  0.3551
22561W        W38370  13.274   8.775  11.790 -0.3340  0.0866  0.0536
22562W        W38371  10.011  18.626   0.701 -0.0198 -0.1404 -0.0756
22563W        W38372   4.993  15.788  13.395 -0.0018 -0.4201 -0.0142
22564W        W38373  12.975   4.318   5.352 -0.3225  0.0679  0.2841
22565W        W38374   1.536  16.890   0.889  0.1466  0.2204  0.1694
22566W        W38375   3.766  12.282   1.804  0.1302 -0.0186  0.0670
22567W        W38376   3.010  14.866   1.831 -0.0440  0.0859  0.0636
22568W        W38377  11.269  16.756   3.556 -0.0767 -0.1888 -0.3654
22569W        W38378  13.442  18.810  11.984 -0.4232 -0.0804  0.2829
22570W        W38379   1.682  13.163   3.532  0.0960 -0.0502  0.2995
22571W        W38380  13.513   2.854   0.379  0.0294 -0.0884 -0.2395
22572W        W38381  10.225   6.423   4.034  0.3652  0.0234 -0.0993
22573W        W38382   4.664  10.434  10.990 -0.1371 -0.0909 -0.1199
22574W        W38383   6.867  15.692   5.063 -0.1016  0.1689  0.1580
22575W        W38384   0.500   6.192  10.535 -0.0028 -0.2423 -0.3646
22576W        W38385   7.816  18.773   1.414 -0.1955  0.1340  0.1430
22577W        W38386  13.488  17.665   0.731  0.0166  0.1698  0.1469
22578W        W38387   5.195   1.203   9.857  0.1982  0.0147 -0.0742
22579W        W38388  11.050  10.534  14.238  0.1250  0.1368  0.1153
22580W        W38389   7.612  17.485  11.073  0.4065 -0.1178  0.1821
22581W        W38390   7.687   4.646   1.770 -0.0954 -0.0444 -0.3411
22582W        W38391   2.329   3.655  11.351  0.0990  0.0105  0.3429
22583W        W38392   4.225  17.432   2.552 -0.0467  0.1778  0.1641
22584W        W38393  18.668  17.755  10.605  0.1344 -0.1386 -0.0872
22585W        W38394   8.385  15.211   4.270 -0.1578  0.0186  0.1454
22586W        W38395  13.811   1.919  12.155  0.0682 -0.3137  0.0786
22587W        W38396  18.886   7.972   1.620  0.0186 -0.0852 -0.0933
22588W        W38397   0.557   7.404   1.283  0.1564 -0.0786  0.3993
22589W        W38398   9.432  14.816  13.334 -0.0575  0.1479  0.5078
22590W        W38399   0.554   5.058  11.317  0.0150  0.0795  0.1162
22591W        W38400  18.576   4.133   1.029 -0.0511  0.0338 -0.1850
22592W        W38401  14.016  10.545  11.923 -0.1359 -0.0101  0.2503
22593W        W38402  14.076   5.343   0.198 -0.2488 -0.1434  0.0897
22594W        W38403   6.857  17.620  12.462  0.1288  0.0413 -0.1518
22595W        W38404   7.064  18.877   4.269  0.1184  0.0134  0.3090
22596W        W38405   8.481   2.510  11.708 -0.1782 -0.1615 -0.1047
22597W        W38406  14.896  18.092  11.274  0.0394  0.1285 -0.5255
22598W        W38407   2.648  13.205  11.910 -0.2107 -0.2212 -0.0671
22599W        W38408  16.354  16.134   5.112  0.2055  0.2265 -0.3352
22600W        W38409   3.497   1.310  10.191  0.0679  0.0588 -0.0147
22601W        W38410   2.789   7.062   3.491 -0.2416 -0.3833  0.0235
22602W        W38411   2.202   1.891   1.651 -0.1981  0.1424 -0.2365
22603W        W38412  13.877  18.912  14.591 -0.2697 -0.1067 -0.3179
22604W        W38413   0.910   7.395  14.133 -0.2252 -0.2751 -0.0698
22605W        W38414   6.884   9.638  15.255 -0.3152 -0.2649 -0.0848
22606W        W38415  10.411   6.487  15.130  0.1635  0.0226 -0.2343
22607W        W38416  15.700  12.814  14.920  0.0355 -0.0698 -0.0049
22608W        W38417   3.280  17.001   3.281  0.2811 -0.2608 -0.2104
22609W        W38418   9.303   5.875  11.011  0.0124  0.3288  0.0028
22610W        W38419   5.142   1.059   2.332 -0.3000  0.1799 -0.1943
22611W        W38420  18.163  17.490  13.826 -0.1951 -0.4040  0.1812
22612W        W38421   9.908   1.103  11.399  0.4906 -0.2717  0.1358
22613W        W38422  10.098  10.619   4.077  0.0001  0.0215 -0.0492
22614W        W38423   8.829   2.671   2.654 -0.2408  0.1127 -0.0297
22615W        W38424  15.601  15.540   2.561 -0.0632 -0.0665 -0.2028
22616W        W38425  11.024  11.319  12.863 -0.1198  0.1061  0.0151
22617W        W38426   5.577   5.577  13.516  0.0618  0.1227  0.2997
22618W        W38427  14.822   9.331   2.894 -0.1153 -0.1738  0.1769
22619W        W38428  17.833   4.314   1.361 -0.0020 -0.1106 -0.6529
22620W        W38429   1.725   5.816   1.711 -0.0303  0.1840  0.1026
22621W        W38430   8.062  17.331  12.373  0.0547 -0.1000  0.3045
22622W        W38431   0.530   0.382   2.384 -0.5431 -0.0726 -0.1037
22623W        W38432  15.677  11.989  14.702  0.2742 -0.4018  0.1290
22624W        W38433  13.575  14.532  12.304  0.4222  0.2782  0.1879
22625W        W38434   9.710   5.242   1.965 -0.1014 -0.0915 -0.2156
22626W        W38435   8.509  15.383   4.741  0.0476  0.1962 -0.1844
22627W        W38436   6.263   2.015  13.536  0.0347  0.4758 -0.0252
22628W        W38437   1.124  18.697   0.147 -0.0032  0.1170 -0.0806
22629W        W38438   8.338   4.407  10.905 -0.2225  0.2969 -0.0605
22630W        W38439   5.659  12.313  15.386  0.0740  0.0680  0.1008
22631W        W38440  12.593   8.313   1.871  0.1511  0.1373  0.0888
22632W        W38441  18.021   8.820   2.503  0.0931  0.2836  0.3290
22633W        W38442   6.355  11.748  13.161  0.0182 -0.2831  0.1850
22634W        W38443  15.604  10.952   1.486  0.0411 -0.1819 -0.2339
22635W        W38444  15.195  10.671   2.739 -0.1136  0.0868 -0.0885
22636W        W38445   9.944   6.826  11.600  0.1177 -0.4605  0.0195
22637W        W38446   5.744  12.822  14.423 -0.3950  0.0208 -0.2563
22638W        W38447  11.565   4.962   2.622 -0.1072  0.0062 -0.0450
22639W        W38448  18.684   3.866  13.007 -0.1966 -0.1663 -0.5025
22640W        W38449  10.517  10.172  14.993  0.0613  0.4530  0.5040
22641W        W38450  17.029  17.647   4.078  0.0740 -0.0246  0.0640
22642W        W38451  10.383   4.906  13.413 -0.2226  0.1394  0.1805
22643W        W38452   2.673   9.474  13.118 -0.1788  0.0803  0.0525
22644W        W38453   3.514  14.508  13.027  0.0013 -0.1003 -0.1978
22645W        W38454   8.684  14.749  12.343 -0.0878 -0.1193 -0.1462
22646W        W38455   0.421  15.049   4.287 -0.0842  0.1758  0.0741
22647W        W38456  11.727  15.430   2.448 -0.2073  0.2490 -0.1123
22648W        W38457   9.409  18.043  14.569  0.1543 -0.4453  0.2464
22649W        W38458   7.937   8.025  12.163  0.0476  0.0632  0.2415
22650W        W38459   3.203   5.222   4.412 -0.1585 -0.2333  0.0650
22651W        W38460   2.232   9.407  12.144  0.1088  0.4441 -0.2920
22652W        W38461   8.641   4.344  14.901 -0.1965 -0.1959 -0.3647
22653W        W38462   7.634  17.270  10.624  0.1000  0.1131 -0.0072
22654W        W38463  12.916  16.047  13.392  0.2198  0.0490  0.1495
22655W        W38464   7.689  18.701  11.552  0.1238 -0.2825 -0.1234
22656W        W38465   4.519  14.453   1.169 -0.1228 -0.0164 -0.1450
22657W        W38466   4.552   1.569  15.336 -0.1168  0.1361 -0.0195
22658W        W38467  13.828  18.662  12.903  0.0106 -0.0603 -0.2601
22659W        W38468  11.102   7.482  14.970  0.1064  0.4660 -0.1328
22660W        W38469   5.735  18.696  11.515  0.0848  0.2160  0.0189
22661W        W38470   8.622   6.253  12.854  0.3534  0.1844  0.1202
22662W        W38471  11.520   3.782   1.418 -0.2665 -0.1059 -0.4930
22663W        W38472  10.574  16.419   1.853  0.2579  0.0479 -0.0553
22664W        W38473   4.875   6.706   0.758  0.1125 -0.0398 -0.2045
22665W        W38474  16.100  11.438   4.192  0.1937  0.0395  0.0120
22666W        W38475  10.013   0.553  11.265  0.1649 -0.1232  0.0377
22667W        W38476   0.920   9.562  10.731 -0.1038 -0.0782 -0.0169
22668W        W38477  14.934  12.324  12.759 -0.0258  0.1234 -0.0064
22669W        W38478   5.691   9.812   1.179 -0.3217 -0.1005  0.1443
22670W        W38479  15.755  18.096   4.387  0.0404  0.0547  0.0217
22671W        W38480   0.663   6.567   1.746 -0.1603 -0.0907  0.0303
22672W        W38481  17.080  14.359   0.275  0.0166 -0.0354 -0.1556
22673W        W38482   4.614   7.527  13.460  0.3292  0.3929 -0.2942
22674W        W38483  18.839  13.270   4.137  0.0019  0.2619 -0.1685
22675W        W38484   4.825  10.826   2.124 -0.1214  0.0099 -0.3011
22676W        W38485   3.669  10.789   2.304  0.2657 -0.1577  0.4622
22677W        W38486  17.943  12.306   3.054  0.0620 -0.3683  0.0756
22678W        W38487  18.550  18.040  11.919 -0.0496 -0.0913  0.0697
22679W        W38488  13.723   2.484   0.740 -0.0966 -0.0395 -0.1762
22680W        W38489  11.516  10.477   5.248  0.0897  0.1935 -0.1361
22681W        W38490   9.378  14.177  14.938 -0.1660 -0.0712  0.4751
22682W        W38491   5.363  13.222  12.301 -0.1374  0.0443 -0.1869
22683W        W38492  10.144   1.547   3.217 -0.2570  0.1861  0.0801
22684W        W38493   3.074  17.834   3.954  0.0324  0.3194 -0.2310
22685W        W38494   1.881   7.767  11.242  0.0824  0.2640 -0.0586
22686W        W38495  15.400   8.365   2.539 -0.2213  0.0361 -0.0077
22687W        W38496  14.800  12.116  14.083  0.0174 -0.1074 -0.1267
22688W        W38497   1.537   7.045   4.791 -0.2577 -0.1339 -0.1559
22689W        W38498   5.989  12.034  12.277  0.0885  0.0065 -0.2147
22690W        W38499   6.313  15.068   0.752 -0.0377 -0.0811  0.0766
22691W        W38500   1.265   6.757  10.835  0.3135  0.2733 -0.0316
22692W        W38501  10.182  18.281  13.803  0.2016 -0.1785  0.0815
22693W        W38502  17.889   5.636   6.088 -0.2267  0.2721 -0.2843
22694W        W38503  10.075   9.395  11.055 -0.0873  0.0861  0.3946
22695W        W38504   2.806   9.763  15.276 -0.2085  0.1942 -0.0428
22696W        W38505   8.732   4.482  12.112 -0.0272 -0.0975  0.1987
22697W        W38506   8.653   7.233   4.272  0.0169  0.4346 -0.1665
22698W        W38507   2.516  17.100   0.375 -0.0403  0.2081 -0.2024
22699W        W38508   2.012  15.384  12.333  0.3500  0.3062 -0.2692
22700W        W38509   4.580  16.452  15.158 -0.0710 -0.1420  0.1523
22701W        W38510   0.203  13.484   2.796  0.2025  0.1392  0.0378
22702W        W38511  18.129   1.398  11.168 -0.0279  0.0205  0.0314
22703W        W38512   8.084  18.779  15.306 -0.0691 -0.1250 -0.2001
22704W        W38513   8.964  17.150  12.026  0.1068  0.2938  0.2243
22705W        W38514  12.144  18.899   1.833  0.0665 -0.1906 -0.1153
22706W        W38515  11.968   2.743   0.381 -0.0281  0.0521  0.0756
22707W        W38516   1.237  18.574  10.527  0.1770  0.1578  0.1340
22708W        W38517  17.913   8.754  11.675  0.2798  0.1209 -0.1757
22709W        W38518   6.773   9.893   1.836  0.2202 -0.2486 -0.0026
22710W        W38519   1.604   8.818   0.524 -0.0462 -0.0497 -0.1838
22711W        W38520   6.910  13.819   2.062 -0.0698 -0.0200 -0.0360
22712W        W38521  10.620   7.268  11.002  0.0433 -0.0902 -0.1072
22713W        W38522  18.704  16.339   3.444 -0.0032 -0.0593  0.1458
22714W        W38523   7.250   6.230  12.053 -0.1237 -0.1446  0.0153
22715W        W38524  16.867  12.984   5.363 -0.0669  0.2778  0.0411
22716W        W38525  12.761   9.836  14.835  0.2588  0.1749 -0.0685
22717W        W38526   9.299  13.946   3.336  0.0280 -0.0639  0.2357
22718W        W38527   9.919   6.616   0.184  0.1433 -0.1678  0.2398
22719W        W38528   5.210  17.669  13.058  0.1100 -0.6254 -0.0430
22720W        W38529   1.157   8.944   4.829 -0.2816  0.1760 -0.1863
22721W        W38530  13.368   8.424  14.416 -0.3157 -0.2137  0.5007
22722W        W38531  15.062  17.724   1.963 -0.0240  0.0353 -0.0890
22723W        W38532   2.049   8.340  13.040  0.0486  0.1358  0.1494
22724W        W38533  14.754   1.384   5.276 -0.0685  0.1595 -0.0869
22725W        W38534  14.927   5.273  10.711  0.3506  0.3258 -0.1556
22726W        W38535   1.924   8.842  13.259 -0.1732  0.2296  0.0008
22727W        W38536   8.397  15.705  10.966 -0.1597  0.2358  0.1158
22728W        W38537   8.914  18.140   4.552  0.2847 -0.0413  0.3860
22729W        W38538   5.999   0.735  12.685 -0.1586  0.0324 -0.0321
22730W        W38539   6.418   5.970   3.710  0.3773 -0.1807  0.1445
22731W        W38540   8.045   9.407   1.024  0.1709 -0.1151  0.1086
22732W        W38541   4.745   8.029   3.223 -0.2282 -0.3138  0.2560
22733W        W38542  10.691   5.996  13.106  0.2534 -0.1936  0.0621
22734W        W38543   1.762   7.794  11.784  0.1171  0.1754 -0.3191
22735W        W38544   8.914   3.381   1.033 -0.2099 -0.0789 -0.0902
22736W        W38545  13.412  13.857   3.668 -0.0697  0.4661  0.0200
22737W        W38546   3.291   7.720  11.471 -0.1291 -0.0303  0.2234
22738W        W38547  16.938   6.975  14.515 -0.2279  0.1308 -0.0718
22739W        W38548  14.097   4.272   4.028 -0.1721  0.1934 -0.2343
22740W        W38549  12.123  14.696   2.391 -0.2358  0.1045 -0.2167
22741W        W38550  17.533  14.034   0.066 -0.2285  0.2852  0.0569
22742W        W38551   2.320  13.246  10.814  0.0736 -0.0855  0.1693
22743W        W38552   1.574   9.840   3.761 -0.7007 -0.2181 -0.0698
22744W        W38553  16.459  11.039   0.916 -0.2514 -0.0711 -0.1536
22745W        W38554  11.643   9.538   5.046  0.3369  0.0259  0.2663
22746W        W38555   5.413   1.968  11.936 -0.3539  0.3023  0.2907
22747W        W38556  10.960  17.371   1.539  0.2835 -0.0766 -0.0667
22748W        W38557  11.573   9.672   2.690  0.1358  0.1643 -0.2315
22749W        W38558   4.224   7.156  12.260 -0.0966 -0.0974  0.1103
22750W        W38559  18.253   4.348  11.263 -0.1825  0.1798  0.2159
22751W        W38560  18.347  15.185  12.517  0.2394 -0.0507  0.3685
22752W        W38561  15.420  15.889   2.929  0.0283  0.2967  0.1285
22753W        W38562   0.015  16.938  12.446  0.1351 -0.1144 -0.0921
22754W        W38563  18.732   6.694   1.372 -0.2304 -0.1679 -0.0757
22755W        W38564   6.620   0.382  10.812 -0.2259 -0.2582 -0.4729
22756W        W38565   1.935   4.000   1.184  0.1036  0.0397  0.4326
22757W        W38566   9.282   5.315   0.464 -0.0247 -0.0896 -0.0953
22758W        W38567  13.947  16.268  13.988  0.1163 -0.0796 -0.0549
22759W        W38568   9.818  15.699   1.897  0.1232  0.1755 -0.1597
22760W        W38569  15.796  11.573   1.168 -0.2082 -0.1204 -0.2706
22761W        W38570  12.546  13.827  12.124  0.0274  0.4480  0.0376
22762W        W38571   1.402   8.337  12.615 -0.3504  0.1055  0.2440
22763W        W38572  17.031   9.259  11.596  0.1298 -0.0270  0.0116
22764W        W38573  13.311  10.864  10.809  0.2113 -0.0992  0.0251
22765W        W38574   3.270  17.545  14.268 -0.0730 -0.1231  0.1338
22766W        W38575  18.130  11.323   3.349 -0.2041 -0.0354  0.1728
22767W        W38576  18.502   3.504  14.554  0.1524  0.0882  0.0076
22768W        W38577  13.458   6.705   0.294 -0.3615  0.0391  0.2564
22769W        W38578  11.225   5.877  14.267  0.1468  0.2456  0.1541
22770W        W38579   5.750  15.208   2.550 -0.1235  0.1272 -0.0146
22771W        W38580   3.528   3.008  13.929 -0.3558  0.0747  0.0823
22772W        W38581  11.383  16.826   4.967  0.4255  0.4823 -0.0751
22773W        W38582   7.992  17.466  14.323 -0.0996 -0.1410 -0.4032
22774W        W38583  18.554  15.907  12.559 -0.1638  0.2348  0.1646
22775W        W38584   4.590  13.748  13.086 -0.4264 -0.1293 -0.0465
22776W        W38585  17.074  17.440  13.095 -0.2906 -0.0482 -0.2093
22777W        W38586  11.177   2.274  11.445 -0.1206 -0.1837  0.1285
22778W        W38587   7.089   5.285  12.361 -0.5390  0.1449 -0.5736
22779W        W38588  10.308  15.521   0.444 -0.3026 -0.0007  0.1724
22780W        W38589   6.449   0.871   9.822  0.3024  0.2787 -0.2462
22781W        W38590  18.461   9.650   2.075  0.1323 -0.2965  0.0308
22782W        W38591   9.900  13.317   4.826 -0.1576 -0.1313 -0.2231
22783W        W38592  13.810   3.686  14.233  0.0892  0.3015  0.0077
22784W        W38593  17.189  14.310  11.175  0.0546  0.0633  0.1469
22785W        W38594   1.368  10.506   3.293  0.1778  0.0386  0.2891
22786W        W38595   1.200  14.770   2.633  0.2916  0.2102  0.1685
22787W        W38596  18.568   6.449   2.587  0.0963  0.1600  0.0061
22788W        W38597   9.113  13.119   3.740 -0.0427  0.0659 -0.1321
22789W        W38598   6.984  13.908  14.353 -0.1481  0.0812  0.1547
22790W        W38599   5.803  18.889   3.999  0.0643  0.2289  0.1773
22791W        W38600  11.185   7.917   1.368  0.0063  0.1705 -0.2151
22792W        W38601  18.041  17.362  12.645 -0.2318  0.2007  0.2004
22793W        W38602   5.138  17.789  12.503  0.0920 -0.0208 -0.2517
22794W        W38603   3.482   3.966  14.350  0.0235 -0.2567 -0.1622
22795W        W38604   5.824  17.613   3.342 -0.1850 -0.3839 -0.0825
22796W        W38605   3.511  12.677   2.643  0.1282 -0.1054 -0.0287
22797W        W38606   6.601  17.092   2.551 -0.0781  0.0745  0.1616
22798W        W38607   0.359  11.156  12.129  0.0670  0.3668 -0.0810
22799W        W38608   3.102   6.579  14.607 -0.2560 -0.0131 -0.1231
22800W        W38609   6.248   7.165  10.021  0.0779 -0.0775 -0.0160
22801W        W38610   8.583  13.706   2.258 -0.2357 -0.0813 -0.0105
22802W        W38611  17.708  15.629  14.793 -0.0662 -0.1179 -0.1459
22803W        W38612   9.428  17.406  12.638 -0.3475 -0.1761 -0.0806
22804W        W38613   8.212  15.844   5.600 -0.0723 -0.1221  0.1716
22805W        W38614   1.280  11.442  11.152  0.0180 -0.0254  0.0412
22806W        W38615   5.610   8.935  11.306 -0.1769 -0.2123  0.0936
22807W        W38616   9.223   7.891   4.974  0.2651  0.0817 -0.1818
22808W        W38617   0.383   9.600   0.349  0.1268 -0.0158 -0.2704
22809W        W38618  14.180  15.892  13.851 -0.1453 -0.3689 -0.1640
22810W        W38619  14.286  17.285  13.454 -0.3350 -0.3952 -0.3229
22811W        W38620  18.222   9.046   0.536  0.1656  0.0337 -0.3733
22812W        W38621   9.160   3.321   3.615 -0.0560 -0.2355 -0.1859
22813W        W38622   8.475   4.177   0.278 -0.1069 -0.2285  0.3158
22814W        W38623   1.217   6.707   0.732  0.0521  0.2411 -0.2587
22815W        W38624   0.098  15.697  12.672 -0.0376  0.1340 -0.0748
22816W        W38625   5.400  17.833   5.551  0.2221  0.1663 -0.3310
22817W        W38626   3.053  13.577  11.100  0.0162  0.0018  0.2819
22818W        W38627   2.046  13.360  12.637 -0.2468 -0.1741  0.3599
22819W        W38628  15.256   2.817   5.582 -0.0196 -0.1029  0.0124
22820W        W38629   1.529   0.245   0.236 -0.4139  0.0033 -0.2261
22821W        W38630   5.016   0.262   3.432  0.0479 -0.4427  0.0163
22822W        W38631  15.732   2.323  14.425 -0.1557  0.2469 -0.3041
22823W        W38632  16.991  13.048   5.902 -0.1944 -0.1526  0.1946
22824W        W38633  10.612   8.731   2.243  0.2476  0.3652  0.2708
22825W        W38634  18.431  12.962   2.287  0.3908  0.1624  0.0560
22826W        W38635  16.584   7.366   5.280 -0.2061 -0.0498  0.1102
22827W        W38636   8.392  11.867  11.744  0.2046  0.0507  0.1961
22828W        W38637   3.479  12.949   3.840 -0.0323  0.3491  0.0093
22829W        W38638   9.006  16.973   1.389  0.0449 -0.1069  0.1258
22830W        W38639  10.751   3.854   1.302 -0.1738 -0.1221  0.2107
22831W        W38640   5.540   0.822  13.550  0.1637  0.0260  0.0228
22832W        W38641  18.683   3.962  14.789  0.0065  0.1640 -0.2280
22833W        W38642   1.917  14.011  11.472 -0.0589  0.0647 -0.2080
22834W        W38643   5.309  14.598  13.220  0.2203 -0.1797 -0.0261
22835W        W38644   2.655  14.505   9.365  0.4093 -0.0296  0.0883
22836W        W38645  12.868   8.884   2.682 -0.2615  0.2600  0.1745
22837W        W38646  12.917   4.713  15.346 -0.3567  0.2625  0.2264
22838W        W38647  15.893  11.736  10.575  0.2571  0.0429  0.0981
22839W        W38648   1.157   3.791   2.420  0.0323 -0.1234 -0.2166
22840W        W38649   1.398  10.508  14.173  0.0243  0.4102 -0.2921
22841W        W38650   7.729   8.635   3.368 -0.1256  0.3402 -0.1785
22842W        W38651   1.416  12.137  13.515  0.0643  0.0976  0.2085
22843W        W38652  12.355   7.132   3.351  0.1428 -0.0608  0.0920
22844W        W38653  17.853   0.564  10.852 -0.1991 -0.1587  0.0562
22845W        W38654  15.211   6.480  11.637  0.1512 -0.1700 -0.0196
22846W        W38655   0.972   1.862   5.602  0.0407  0.0775  0.1436
22847W        W38656   8.244   4.969   4.411  0.0256 -0.0913  0.1182
22848W        W38657   0.256  10.638   4.734  0.2138  0.1002 -0.3579
22849W        W38658  18.208   9.382   5.263 -0.1314 -0.2048  0.0541
22850W        W38659   5.684   3.591  12.500 -0.1180  0.1101 -0.1298
22851W        W38660  17.682   8.322  11.310  0.1492  0.0461 -0.1548
22852W        W38661  16.137   8.927   1.344 -0.1995 -0.1286 -0.0647
22853W        W38662   5.153   2.693  14.612  0.5117 -0.0737 -0.0836
22854W        W38663   7.257  13.187  11.385  0.1077 -0.0296 -0.3682
22855W        W38664  11.036   2.220   6.210 -0.1170 -0.3354  0.0928
22856W        W38665   0.797  14.709   3.603 -0.1124  0.1993  0.0595
22857W        W38666  16.334   5.207   0.210  0.1588  0.0131 -0.1094
22858W        W38667   6.896  18.005   0.010  0.0792 -0.2712 -0.0020
22859W        W38668   3.764   1.445  11.806  0.1743  0.1623 -0.2150
22860W        W38669   8.853   1.043   4.651 -0.1309  0.0235 -0.1671
22861W        W38670   0.290  13.422  12.234 -0.1481 -0.0939 -0.2748
22862W        W38671  11.925   2.576   2.728 -0.1961  0.1358  0.0706
22863W        W38672  16.010  11.384  12.352 -0.4804  0.3450  0.1768
22864W        W38673   6.117  17.955  14.286  0.2013  0.0876 -0.2848
22865W        W38674  10.384   4.815  11.997 -0.2266 -0.0143  0.2304
22866W        W38675   2.920   2.797  11.786 -0.1995 -0.2270 -0.2648
22867W        W38676  12.162   3.846   3.780  0.2097 -0.1174  0.0051
22868W        W38677   6.404  12.374  15.064 -0.1456 -0.2641 -0.0569
22869W        W38678   1.142  12.415  15.140  0.1488  0.2513 -0.0128
22870W        W38679  14.482   4.394   0.077  0.2241 -0.2249 -0.2624
22871W        W38680   9.347  16.465   1.632 -0.2952 -0.1002  0.4009
22872W        W38681   8.498   6.452   3.644  0.0033 -0.2022  0.1455
22873W        W38682  17.365  11.467   6.106 -0.0314  0.0951 -0.1961
22874W        W38683  13.327  10.412  13.816 -0.1545 -0.1083  0.0229
22875W        W38684   9.494  14.014  11.741  0.2564  0.1687  0.2485
22876W        W38685   1.606  10.962   0.443 -0.0646 -0.0729 -0.2331
22877W        W38686   8.104   9.890   1.244 -0.0551 -0.1881  0.0620
22878W        W38687   2.620   8.320  14.010  0.0058  0.1180 -0.1024
22879W        W38688  18.616   4.757   1.957 -0.0888  0.1763 -0.1478
22880W        W38689   3.056   3.910  13.296 -0.2293 -0.4253  0.2447
22881W        W38690   2.196  10.675  12.912  0.0512 -0.2218  0.2334
22882W        W38691   3.049   6.500  11.895  0.2520 -0.2817  0.0294
22883W        W38692  18.511  15.643  12.185  0.3280  0.4001  0.1356
22884W        W38693  15.356  13.507  12.894  0.2376 -0.2534  0.4197
22885W        W38694  11.833  12.130   0.198  0.3252 -0.0382 -0.0307
22886W        W38695  14.726   2.634   3.836  0.1435 -0.1319  0.1360
22887W        W38696  17.031   4.024  11.334 -0.0395 -0.4639 -0.1685
22888W        W38697   8.873  14.058   0.122 -0.0857 -0.2225  0.0622
22889W        W38698   0.569   7.470  14.487 -0.2122 -0.0283 -0.1963
22890W        W38699  16.860  12.483  14.444  0.0306 -0.0876 -0.4288
22891W        W38700  10.833   2.241  13.374 -0.0658 -0.1518 -0.1911
22892W        W38701   3.391  15.862   3.953  0.1682 -0.0647 -0.0643
22893W        W38702   2.986   0.711  10.865 -0.1702  0.0370  0.1298
22894W        W38703   4.760  12.839   3.331  0.1171  0.0007 -0.1377
22895W        W38704   0.209   6.539   3.386  0.2929 -0.1464  0.1915
22896W        W38705  17.133   1.001  15.043  0.8073  0.3708 -0.3411
22897W        W38706   8.159   8.654  12.240 -0.0223 -0.1576  0.3268
22898W        W38707  16.333  12.567  15.176 -0.0333 -0.3139  0.4564
22899W        W38708  17.994   7.402   0.614 -0.1592 -0.2771 -0.1508
22900W        W38709  10.209  18.909  13.584 -0.0802  0.1839 -0.2473
22901W        W38710  13.315  18.199  14.408  0.0478  0.0811 -0.0292
22902W        W38711   8.570  17.255   1.625  0.0688  0.0450  0.3009
22903W        W38712  10.462  11.475  11.410  0.4437  0.3341  0.1144
22904W        W38713   7.686  15.819   2.002  0.0400  0.3072 -0.2724
22905W        W38714  14.219  15.085   2.060 -0.0098  0.0307  0.1546
22906W        W38715   9.111  14.238  14.512 -0.1753  0.1445  0.3578
22907W        W38716   3.720   8.845   3.197 -0.0818 -0.2878 -0.2817
22908W        W38717  13.157   9.739  12.088  0.1365 -0.1122 -0.1448
22909W        W38718   4.419  16.849   5.876 -0.0977  0.3357 -0.1484
22910W        W38719   6.396   8.192  14.472  0.2655  0.3310  0.0846
22911W        W38720   2.050   6.811   2.474  0.2163  0.1439 -0.1234
22912W        W38721   6.538   5.125  12.499  0.2779 -0.2033  0.3171
22913W        W38722  16.782   7.608  13.290 -0.1349 -0.3112  0.0500
22914W        W38723  15.899   4.063  14.614  0.2830 -0.1097 -0.3010
22915W        W38724   1.821   7.586   0.279 -0.2335 -0.2498 -0.3717
22916W        W38725   1.386   2.052  13.832 -0.1190 -0.2277 -0.1011
22917W        W38726   6.110   5.796   1.810 -0.5859  0.0105 -0.0239
22918W        W38727  10.310  15.267   3.736 -0.0305 -0.3857  0.1884
22919W        W38728   7.377  16.167   0.341 -0.0450  0.3472 -0.3826
22920W        W38729   2.115   6.070  10.678 -0.2447  0.1456 -0.1844
22921W        W38730   2.196  10.784  10.318 -0.0267 -0.1299 -0.0332
22922W        W38731  15.861   6.051  14.582  0.0438 -0.1156  0.0351
22923W        W38732   7.355  11.503  14.353 -0.0214 -0.0151  0.0602
22924W        W38733   2.949  13.866   4.155 -0.2204  0.0253  0.2655
22925W        W38734  10.535   9.370   3.477 -0.0874 -0.1004  0.2470
22926W        W38735  11.688   9.421  15.143 -0.0795 -0.2864  0.2905
22927W        W38736   9.435   4.707   9.695 -0.1649 -0.1110 -0.1302
22928W        W38737   6.615   3.443  14.144 -0.1104  0.0343  0.0416
22929W        W38738   1.729  18.857  13.219  0.0186 -0.0600  0.1317
22930W        W38739  13.533  12.599   2.174 -0.1760  0.0595  0.0413
22931W        W38740   8.815   5.489   9.354 -0.0796  0.3173  0.3912
22932W        W38741  14.211   0.674   3.692  0.0368  0.0350 -0.0614
22933W        W38742   0.950   3.785   0.215  0.0042 -0.2498  0.0010
22934W        W38743   1.600  11.638  13.894 -0.3394  0.2498  0.2025
22935W        W38744  15.056   8.943   0.835  0.0902  0.0969  0.2288
22936W        W38745  12.569   4.839  11.221 -0.1721  0.3467  0.0997
22937W        W38746  11.310   3.796  13.384  0.0787 -0.0657 -0.2547
22938W        W38747   2.805   1.285   4.104 -0.1132 -0.2481  0.0357
22939W        W38748  11.545   7.452   0.201 -0.0851 -0.3490  0.2247
22940W        W38749  10.261  16.468  15.010  0.2394 -0.1421 -0.2329
22941W        W38750  12.946  11.592   5.032 -0.0053 -0.1764 -0.1180
22942W        W38751   8.686   9.003   0.641 -0.1655 -0.3543  0.3218
22943W        W38752  17.469  10.050  11.461 -0.2099 -0.0690 -0.1886
22944W        W38753  13.130   3.188   0.210 -0.2876  0.2055 -0.2299
22945W        W38754   5.722  17.054  14.663 -0.1241  0.1412 -0.0979
22946W        W38755   0.952   5.219  11.602  0.0656 -0.0037 -0.4133
22947W        W38756   6.472   9.185  13.720 -0.1174  0.0633  0.3256
22948W        W38757  13.788   3.530   1.947  0.1184 -0.0817  0.1352
22949W        W38758   7.345   9.890  10.654  0.3352 -0.1080  0.3257
22950W        W38759  14.587   7.164   4.515 -0.0620 -0.0370  0.2770
22951W        W38760  12.032   2.220   3.961 -0.2054 -0.1285 -0.0073
22952W        W38761   3.854   5.912  11.966  0.0525  0.0064 -0.0875
22953W        W38762  14.404   8.684   0.086 -0.1023  0.0222  0.0116
22954W        W38763   2.458   4.488   5.314 -0.4252 -0.2814  0.4595
22955W        W38764  13.935  13.959  11.971 -0.1727  0.2013 -0.0628
22956W        W38765  10.344   1.416  13.650 -0.0678  0.0133 -0.2002
22957W        W38766   2.878  11.454   2.548 -0.2042  0.0430  0.1482
22958W        W38767  15.522  17.602   0.666 -0.0583 -0.3351  0.0291
22959W        W38768   6.437   7.760  14.773  0.3324  0.2679  0.0844
22960W        W38769  18.800  10.270  13.612 -0.2856  0.1745  0.1292
22961W        W38770  14.543   5.911  11.380 -0.2439  0.0431 -0.0529
22962W        W38771   8.776  11.090   0.943  0.0163 -0.1625  0.1273
22963W        W38772   3.167  17.792  10.617 -0.4495  0.0677 -0.1402
22964W        W38773   0.899   3.680  14.300  0.0257  0.2718 -0.1224
22965W        W38774   1.600  16.498   4.044 -0.2923  0.2943  0.1490
22966W        W38775   0.277  12.956   1.662 -0.2980 -0.1296  0.2739
22967W        W38776   8.387   7.002   3.027 -0.2206  0.2981 -0.2855
22968W        W38777   5.191  11.925   1.439 -0.3912  0.1226  0.2674
22969W        W38778  14.398  17.788   3.510  0.3066  0.2716  0.3730
22970W        W38779  16.279  10.562   5.209 -0.2171  0.2471  0.0924
22971W        W38780  17.379   1.957  11.000  0.0430  0.1224  0.0708
22972W        W38781   6.605  13.949  13.516 -0.0105 -0.0262 -0.0805
22973W        W38782   1.400  14.376  15.005 -0.1422 -0.1186 -0.0250
22974W        W38783   8.245  10.970   3.636  0.1301  0.1210  0.1370
22975W        W38784   2.666   9.312  13.576 -0.0553  0.2612 -0.1264
22976W        W38785   4.263   2.027  15.343 -0.2559 -0.0282  0.2381
22977W        W38786  14.113  12.706  11.100  0.0621 -0.0953  0.2684
22978W        W38787  17.890  15.337   3.455 -0.3031 -0.1632 -0.0170
22979W        W38788   2.480  14.707   9.842  0.1171 -0.0649  0.1413
22980W        W38789  11.081   8.622   0.281 -0.1886 -0.2330  0.2235
22981W        W38790  15.668  18.597   0.808 -0.1268  0.0769 -0.3473
22982W        W38791   2.994   8.953  10.487  0.2593  0.0284 -0.2209
22983W        W38792   7.465  11.473   4.819  0.1977 -0.1553  0.1535
22984W        W38793   8.257   8.457  10.826 -0.2156 -0.2531  0.0526
22985W        W38794   0.699  12.959  12.520 -0.3356  0.1227 -0.0491
22986W        W38795   5.859  12.477   1.423 -0.2462  0.0397 -0.0532
22987W        W38796   2.410   4.619  10.895  0.1111 -0.1661 -0.0637
22988W        W38797  16.358  13.931  10.961  0.1060 -0.0461  0.2795
22989W        W38798  17.286  13.312   0.515  0.0708 -0.1670 -0.2040
22990W        W38799  14.526  14.468  12.664 -0.0184  0.1413  0.3542
22991W        W38800  13.921  16.617   9.802 -0.0027  0.2902  0.1149
22992W        W38801  15.766  16.535   1.699  0.0659  0.0298  0.0036
22993W        W38802   1.944  10.849   5.714  0.0904 -0.0392 -0.0058
22994W        W38803   3.990   3.200  12.001 -0.2928 -0.0739  0.0304
22995W        W38804  16.637   1.382   9.845  0.0489  0.0073  0.2307
22996W        W38805  12.057   5.186  13.885  0.0812 -0.1543 -0.3860
22997W        W38806  15.891  11.821   3.151 -0.3381 -0.0953  0.1479
22998W        W38807  14.349  11.388   1.342  0.0454 -0.2675  0.0748
22999W        W38808  18.290  17.130   2.287  0.1345 -0.0942 -0.0751
23000W        W38809  11.582  11.827   1.163 -0.0016  0.1214 -0.0221
23001W        W38810  18.668   4.603  13.728  0.0478 -0.3227 -0.0039
23002W        W38811  15.071  13.347   3.859 -0.2865 -0.0942  0.0235
23003W        W38812  11.096   2.544  11.933  0.2468  0.0004 -0.0032
23004W        W38813   5.916   8.223   2.108  0.1226  0.2091  0.1248
23005W        W38814  17.814  10.880  14.491  0.0741 -0.3498  0.1667
23006W        W38815   4.397   9.937   0.032  0.0293 -0.3077  0.1830
23007W        W38816   5.661   8.959  12.875 -0.1244 -0.0032 -0.3353
23008W        W38817   2.993  12.701  14.639  0.0419  0.0509  0.2142
23009W        W38818   6.401   2.800   5.117 -0.0838 -0.0520  0.0786
23010W        W38819   5.342  12.077  14.109  0.0287 -0.3304 -0.0715
23011W        W38820  14.760   4.771  15.239  0.0721 -0.0553  0.0834
23012W        W38821   6.938   9.149  13.468 -0.1024  0.1330  0.2489
23013W        W38822  15.382  11.705  11.246 -0.0327  0.0350  0.1840
23014W        W38823   3.404   6.670  11.457 -0.1141 -0.1391  0.1491
23015W        W38824   4.929  17.106  10.598 -0.0865 -0.1228  0.0114
23016W        W38825  12.093   9.409   0.053  0.1933 -0.1255 -0.0727
23017W        W38826  14.777  18.771   4.794  0.0992  0.0431  0.2283
23018W        W38827  16.165   3.868  11.159  0.2897 -0.0235  0.3110
23019W        W38828   9.832   1.479   2.311  0.0500 -0.0451  0.0721
23020W        W38829   9.211   7.184  12.032 -0.3319 -0.1406  0.1000
23021W        W38830   7.487   6.886  14.248 -0.1956  0.1850  0.0313
23022W        W38831  13.458  17.096  15.294  0.2539  0.2444  0.0711
23023W        W38832  16.800  17.569   2.663  0.1618 -0.0193 -0.2212
23024W        W38833   5.679  12.188  11.538  0.3069 -0.1385 -0.2412
23025W        W38834   3.585  12.246  11.081 -0.0401  0.2291 -0.2170
23026W        W38835   5.333  14.999   4.420 -0.2324  0.0742 -0.1302
23027W        W38836  10.781   8.748   3.098 -0.3116  0.1678  0.1583
23028W        W38837   1.399  15.942  12.845 -0.0531  0.1919  0.2444
23029W        W38838  18.593   2.908   3.303  0.1938 -0.2567  0.2499
23030W        W38839  14.595   3.302  10.242  0.1352 -0.1217 -0.3574
23031W        W38840   6.064  14.572  14.544  0.2931  0.1298 -0.0541
23032W        W38841   4.878  18.650   4.289  0.1169 -0.1304  0.2012
23033W        W38842   5.196   8.400   1.319  0.0794  0.3948 -0.1485
23034W        W38843  16.792   1.957   2.396 -0.2392  0.0440 -0.2581
23035W        W38844   8.918   4.872  14.134  0.0643  0.2124  0.0825
23036W        W38845   0.244   9.270   0.943  0.1177  0.0835 -0.0285
23037W        W38846   4.836  12.684   0.001  0.0081  0.2144 -0.1142
23038W        W38847   9.378  11.597   5.392  0.0698  0.1568 -0.0068
23039W        W38848  12.075   9.097   4.612  0.0727 -0.0884 -0.2639
23040W        W38849  14.282  18.679   3.638  0.3575  0.3458 -0.1907
23041W        W38850  13.259   1.090   1.944 -0.4512  0.1589  0.2913
23042W        W38851   5.915   8.540   0.119 -0.0640 -0.0026 -0.1402
23043W        W38852  18.164  16.977  13.653 -0.2783 -0.5458  0.1107
23044W        W38853  14.836   3.269   5.463  0.0243  0.1144 -0.1116
23045W        W38854   8.574  17.575  15.282 -0.0254  0.1366 -0.0807
23046W        W38855  14.139  17.217   0.326  0.1324  0.0404  0.0661
23047W        W38856   6.269   7.561  15.179 -0.2536 -0.3053  0.3199
23048W        W38857   0.379  14.046  14.678 -0.3215  0.3295 -0.1720
23049W        W38858   7.658  15.925  15.342  0.2563  0.1762 -0.1589
23050W        W38859   7.242  18.541   2.989 -0.1776  0.2383  0.0243
23051W        W38860  11.033   9.023   2.228  0.0533 -0.0802  0.0802
23052W        W38861   1.516  16.051   2.846 -0.1146 -0.0950  0.2904
23053W        W38862   0.802   6.012  12.870  0.0405 -0.0743  0.0152
23054W        W38863   5.283  13.642   1.062  0.2210  0.2327  0.0370
23055W        W38864   7.914   4.281  12.768 -0.0392 -0.0166  0.1178
23056W        W38865   1.617  14.967   0.444 -0.1987 -0.0518  0.1775
23057W        W38866  15.485   7.288  13.513 -0.1607  0.1703 -0.2129
23058W        W38867  13.863   8.587   4.731 -0.1419  0.1378 -0.3139
23059W        W38868  16.683  14.195   4.883  0.0873 -0.0390  0.0604
23060W        W38869   3.163  15.367  14.906 -0.0731  0.3752 -0.0691
23061W        W38870  14.389   2.231   3.796 -0.1156 -0.1187 -0.3220
23062W        W38871   9.780  14.708   0.073  0.2394  0.1991  0.0818
23063W        W38872  11.034   1.669  15.330 -0.2358  0.1668  0.0047
23064W        W38873   0.155   1.074  11.733  0.1149 -0.0298  0.2684
23065W        W38874  10.321  14.027   3.625  0.1232 -0.1780  0.3068
23066W        W38875  13.607   6.664   0.774 -0.0256 -0.0766  0.1057
23067W        W38876   7.013   2.992  12.921 -0.0047 -0.0940 -0.3766
23068W        W38877   8.450   8.536  11.365 -0.0122  0.0780 -0.1089
23069W        W38878  14.151   6.190   3.403 -0.0512 -0.1484 -0.2887
23070W        W38879  16.451   1.618   4.852 -0.0496  0.0966  0.1593
23071W        W38880  16.525  12.425  11.676 -0.1257  0.0258 -0.0265
23072W        W38881   1.048  10.851   2.300  0.0697  0.2181  0.0450
23073W        W38882  18.632   9.840  12.228 -0.1501  0.1129 -0.1225
23074W        W38883  13.795   0.868   4.534  0.1092 -0.2041 -0.0513
23075W        W38884  15.216  16.441  14.836 -0.0542  0.0059  0.0964
23076W        W38885  15.208  13.626  11.497 -0.2283 -0.2522 -0.2488
23077W        W38886  17.109   0.112   1.166 -0.2257 -0.3823 -0.0007
23078W        W38887  17.929  11.359  14.209 -0.0771  0.4472 -0.0163
23079W        W38888  12.309   3.970  13.290  0.0269 -0.0491  0.0520
23080W        W38889  15.436   7.231   0.490 -0.0568 -0.2063  0.1594
23081W        W38890  13.766  11.429  11.237  0.3582 -0.2576 -0.0806
23082W        W38891  10.642  10.190   1.668 -0.0357 -0.1101  0.0332
23083W        W38892   8.575  12.117   4.543 -0.2189  0.1950  0.4809
23084W        W38893  17.048   5.192   1.946  0.1223  0.0649 -0.0637
23085W        W38894   3.370  11.552  10.650  0.1988 -0.1010 -0.0810
23086W        W38895   5.605  11.625   4.053  0.1041  0.0862 -0.0701
23087W        W38896  15.240  15.114   2.527  0.5193 -0.1989 -0.1168
23088W        W38897   1.081   8.073   1.959  0.5309  0.2534  0.2889
23089W        W38898  11.803   5.763  15.020 -0.1138  0.0368 -0.1614
23090W        W38899   7.517  14.463  14.668 -0.3700  0.0459  0.0693
23091W        W38900  18.496  10.579   4.677  0.0229  0.0369 -0.6214
23092W        W38901   7.769  10.573   0.522 -0.0967 -0.0180  0.1799
23093W        W38902   6.506   8.230  13.426 -0.1338 -0.0418 -0.0698
23094W        W38903  12.191  18.448  11.634 -0.3736  0.3235 -0.0210
23095W        W38904  16.583  14.050   5.443  0.0164  0.0104 -0.1427
23096W        W38905   2.082   6.954   0.426  0.0490  0.0349  0.2885
23097W        W38906  10.346  15.731  13.219 -0.2142  0.3405 -0.1069
23098W        W38907   6.751  15.974  11.332  0.0713 -0.1803 -0.1033
23099W        W38908   8.280   3.470  15.390  0.0649  0.1469 -0.1585
23100W        W38909  14.097  13.608  15.217  0.1668 -0.0371 -0.2029
23101W        W38910   3.759  14.742  12.039  0.0472 -0.0896  0.0324
23102W        W38911  14.090  11.651   0.301 -0.3226  0.3537 -0.2001
23103W        W38912  10.896   1.321  13.729  0.3544 -0.1504  0.1109
23104W        W38913  12.622  16.441   2.965  0.0159  0.2149  0.0509
23105W        W38914  12.559   2.782  11.987 -0.1150 -0.1219 -0.1227
23106W        W38915  18.569  11.999   4.682  0.0416  0.1753  0.3377
23107W        W38916  15.277   0.828  12.880  0.2297  0.1662 -0.3168
23108W        W38917  16.664  14.001  13.288 -0.5168 -0.2205  0.2686
23109W        W38918   0.683  13.594   2.906  0.2171  0.0267  0.1321
23110W        W38919  14.391  14.240  13.100 -0.1723  0.2425  0.2439
23111W        W38920  13.162   9.646  11.004 -0.1001  0.1282  0.0075
23112W        W38921   0.714   2.882   4.873  0.1429 -0.0316  0.0651
23113W        W38922   3.618   1.020   1.958  0.0058  0.0461 -0.2260
23114W        W38923   7.242   3.985   5.205 -0.0625  0.1074 -0.0006
23115W        W38924   0.740  12.364  11.096 -0.0889 -0.2428 -0.1042
23116W        W38925  17.460   6.794   1.108  0.2083 -0.4561  0.0108
23117W        W38926   2.424  11.121   0.398  0.1284  0.1191  0.0978
23118W        W38927  17.492  16.324   2.479 -0.3032  0.1775 -0.0420
23119W        W38928  15.635  15.719  12.291  0.2024 -0.0201 -0.4034
23120W        W38929   5.263   8.479   0.667  0.2242 -0.1555  0.0526
23121W        W38930   5.088   0.143   1.376  0.1545 -0.1521 -0.2710
23122W        W38931  10.475   0.958  12.597 -0.2288 -0.1265  0.2087
23123W        W38932  13.239   8.516   2.661  0.0218  0.2456  0.1360
23124W        W38933   1.208  10.862   3.681  0.1415  0.2064  0.0609
23125W        W38934  12.955  12.038  12.131  0.0788  0.2680 -0.2284
23126W        W38935  17.893  13.172   4.563  0.0495  0.2292 -0.0095
23127W        W38936  14.967   0.000   3.026 -0.1980  0.1317 -0.0123
23128W        W38937   7.570  16.496   2.256  0.2634  0.2830  0.1099
23129W        W38938   0.802  16.311   1.373 -0.0142 -0.0534 -0.0234
23130W        W38939  13.780   4.275   0.776 -0.1760 -0.1112  0.2889
23131W        W38940  18.283  11.800   4.278  0.0410 -0.0356  0.1516
23132W        W38941   1.279  14.741   4.961  0.1154  0.1149 -0.2674
23133W        W38942   2.847  15.709   3.417 -0.2113 -0.3109 -0.1195
23134W        W38943  13.543  17.721  11.409  0.3631 -0.0607  0.0227
23135W        W38944   1.776   2.208   3.973 -0.1020  0.2312  0.0370
23136W        W38945  17.951  16.172   5.099 -0.0738 -0.1079 -0.1228
23137W        W38946   0.031   6.548   5.276 -0.3435  0.3024 -0.2362
23138W        W38947  18.303  11.659  11.918  0.1632  0.0595  0.0165
23139W        W38948  10.406   9.700  11.378  0.1697 -0.0077  0.0579
23140W        W38949  11.222  11.726  10.998 -0.1886 -0.0077  0.0005
23141W        W38950  14.918  10.228   1.628  0.1372  0.0939  0.0202
23142W        W38951   8.293   4.246   1.893 -0.1460 -0.4068 -0.1652
23143W        W38952  14.717  12.879  10.002  0.1239  0.1740 -0.0010
23144W        W38953   0.300   1.558   2.662 -0.2044 -0.2254  0.0306
23145W        W38954   9.191   3.923  12.508 -0.2992 -0.3174  0.1652
23146W        W38955  14.460   4.412  13.096  0.1745 -0.0387 -0.1488
23147W        W38956  12.469  18.472  12.244  0.2065 -0.4211 -0.3187
23148W        W38957   7.313   0.376   3.271  0.1305  0.0297  0.1094
23149W        W38958  10.145   4.164   0.508 -0.0009  0.2154 -0.1435
23150W        W38959   7.757   6.415   3.274 -0.0212  0.0165 -0.0504
23151W        W38960  12.507   2.641   4.004 -0.3928  0.1658 -0.0646
23152W        W38961   8.685  18.775  14.977  0.1479  0.2563 -0.3001
23153W        W38962   4.485   0.536   2.174  0.1852 -0.0696 -0.0190
23154W        W38963   6.914   1.067   1.605 -0.0004  0.3289 -0.1259
23155W        W38964   1.705   9.781   4.345  0.2677 -0.0108 -0.2308
23156W        W38965  14.273   6.236  10.355 -0.0221 -0.0341 -0.1036
23157W        W38966   0.862   5.386   3.920 -0.2651  0.1023  0.0066
23158W        W38967   3.479   3.785   0.376  0.2985 -0.2238 -0.0766
23159W        W38968   0.779   3.942  13.418 -0.2129 -0.0993 -0.1071
23160W        W38969   8.836  12.324  14.666  0.0161  0.1536  0.0533
23161W        W38970   7.694   6.043  11.824 -0.0341 -0.0712  0.1263
23162W        W38971  17.048  13.870   2.104 -0.2046 -0.0389 -0.1124
23163W        W38972  13.127  10.031   1.055 -0.1049 -0.0699 -0.2796
23164W        W38973  17.929   1.747  11.384 -0.1549 -0.0160 -0.1070
23165W        W38974   8.617  14.150   1.463  0.1468 -0.0300 -0.0840
23166W        W38975   6.242   4.046  10.674 -0.0785  0.1343 -0.2112
23167W        W38976  12.646   2.315   4.882  0.2361 -0.1290  0.1370
23168W        W38977   0.450   7.305   2.459 -0.3167 -0.1789 -0.1841
23169W        W38978   7.428  15.117   3.006 -0.0379 -0.0680 -0.2016
23170W        W38979  18.000  17.690   4.956  0.1554 -0.0835 -0.1425
23171W        W38980  18.506  12.766   0.707 -0.0666 -0.0426 -0.3427
23172W        W38981  18.248  13.166  14.951  0.1291  0.2599 -0.3159
23173W        W38982  11.636  10.951   3.868 -0.1120  0.0125 -0.0372
23174W        W38983   1.377   5.331   2.896 -0.2955 -0.3561 -0.1464
23175W        W38984   5.313  13.699  10.860  0.0183  0.3462 -0.0129
23176W        W38985  13.178  11.529  10.395  0.2523  0.2091  0.1163
23177W        W38986   9.497  14.363   3.577  0.3390 -0.0082 -0.0389
23178W        W38987  15.871   9.529   4.254  0.0866 -0.0631 -0.0673
23179W        W38988  11.387   4.350  10.857  0.1367  0.3767 -0.1577
23180W        W38989  15.390  11.755   0.343  0.2850 -0.3263 -0.0128
23181W        W38990  10.864  11.154  11.094  0.0264 -0.0131 -0.2183
23182W        W38991  10.696   8.745  14.862  0.1149  0.0196  0.1018
23183W        W38992  18.864  10.440  11.636  0.2167  0.3417  0.2766
23184W        W38993  12.348  13.686   4.408  0.0619  0.2975  0.1525
23185W        W38994  11.175  17.420   4.929  0.0962 -0.3468  0.3049
23186W        W38995   6.958  16.923  14.341 -0.2518 -0.0654  0.0550
23187W        W38996   4.120   3.466  14.523  0.0523 -0.0492  0.0685
23188W        W38997   9.044   4.191   5.684 -0.1058 -0.0431 -0.1591
23189W        W38998  11.883  13.479   4.001  0.1607 -0.1870  0.1436
23190W        W38999  17.421   7.951  14.248  0.0483  0.3971 -0.0550
23191W        W39000   1.785   4.725  12.167 -0.0566  0.0835 -0.0566
23192W        W39001   0.437   3.843  14.160  0.0523  0.1422  0.1730
23193W        W39002   1.461  15.882  10.738 -0.0009  0.0846 -0.1013
23194W        W39003   6.333   9.037   4.468 -0.0615 -0.0966 -0.0463
23195W        W39004  10.982  14.570  14.703  0.0042 -0.2354  0.0519
23196W        W39005   7.912  13.840  10.866 -0.2019 -0.0811  0.2231
23197W        W39006  12.885   5.534  12.009  0.1053 -0.0462 -0.0429
23198W        W39007   1.986  10.899   9.862  0.0208 -0.2189 -0.0431
23199W        W39008  13.582   0.390   0.066 -0.0498  0.0931 -0.2546
23200W        W39009   4.979  16.231   3.451  0.0191 -0.0145  0.2358
23201W        W39010   9.777  13.475  14.635  0.3710  0.1259 -0.3485
23202W        W39011  16.460   9.000  14.726 -0.0656  0.3560  0.1572
23203W        W39012  12.491   2.920  14.035  0.0718 -0.0872 -0.0462
23204W        W39013   5.613   8.501  13.817  0.0267  0.0328  0.0211
23205W        W39014   7.403   4.169  14.772  0.1422  0.0437 -0.1337
23206W        W39015  13.737  17.495   3.873  0.0407  0.1409 -0.1541
23207W        W39016  15.936   5.293  11.973  0.0974 -0.3730 -0.2171
23208W        W39017   7.409  13.786   3.815 -0.1109  0.0787 -0.0039
23209W        W39018  16.854  11.825  12.866 -0.1629 -0.1540 -0.0134
23210W        W39019  12.839   0.540  14.699 -0.2339  0.0876  0.0678
23211W        W39020   7.805  17.222  14.880 -0.1144  0.2047  0.3024
23212W        W39021  13.542  16.354  10.046  0.0385  0.0057 -0.1014
23213W        W39022   0.347   0.589   1.922 -0.1548 -0.1439 -0.0093
23214W        W39023   7.934   3.745   3.814  0.2927 -0.3841  0.0591
23215W        W39024  18.821  12.551   5.099  0.1660 -0.1952 -0.0049
23216W        W39025  15.486   2.265   3.571  0.1431  0.1916 -0.1890
23217W        W39026   1.750  18.427   1.519  0.0277  0.0540 -0.2298
23218W        W39027  12.159  12.696  14.178  0.0410  0.2407  0.2167
23219W        W39028   8.371   4.501  13.560  0.0887  0.1573  0.3874
23220W        W39029  11.830  16.874  13.350  0.2090 -0.0119  0.1474
23221W        W39030  12.649   1.567   4.327  0.0038 -0.2244 -0.2242
23222W        W39031   8.237   0.799   0.035 -0.2987  0.2687  0.1714
23223W        W39032  10.775  15.309   0.656  0.1419  0.1638 -0.0756
23224W        W39033  17.809  11.601   0.807  0.1207 -0.1925 -0.1706
23225W        W39034   5.869   5.461  14.322 -0.0265  0.2068 -0.2173
23226W        W39035   8.373   8.948  12.675  0.3335 -0.5703 -0.0727
23227W        W39036  14.011  12.144  13.930 -0.1976  0.1323  0.2953
23228W        W39037  12.422  17.660   4.238 -0.2589 -0.1501 -0.4378
23229W        W39038  17.694   2.348  14.212  0.1431  0.0853  0.1029
23230W        W39039  10.434   3.676   2.070 -0.2500  0.2859 -0.0590
23231W        W39040   0.783   9.379  12.864  0.2952  0.1663  0.2029
23232W        W39041   2.530  10.027   4.300  0.0827 -0.1190 -0.2608
23233W        W39042  13.129   0.099  12.321  0.2463  0.0535 -0.0808
23234W        W39043  15.761  12.687   4.125  0.2598  0.0465 -0.3109
23235W        W39044  12.669   7.032   4.694  0.3796  0.0717 -0.0358
23236W        W39045  17.229   9.679   0.398 -0.3657 -0.1123 -0.0067
23237W        W39046   6.265  11.618  12.628 -0.3655 -0.1521  0.1122
23238W        W39047  12.789  12.139  12.633  0.0208 -0.1755  0.4271
23239W        W39048   0.540  11.482  11.603 -0.3628  0.0359  0.2162
23240W        W39049  17.305  13.301  11.560 -0.0495  0.2469  0.4698
23241W        W39050  12.321  18.776   3.899  0.0313 -0.0333 -0.2708
23242W        W39051   1.746  13.395   4.545  0.0314  0.2123  0.1294
23243W        W39052  15.733   9.064  13.666  0.2560  0.1360  0.0286
23244W        W39053  14.077  15.185   2.933  0.0504  0.2767 -0.2114
23245W        W39054  14.651   3.876  13.323 -0.2399  0.0170 -0.1253
23246W        W39055  11.170   5.715   2.882 -0.0682  0.2236 -0.1868
23247W        W39056   9.747  10.322   2.076  0.2944  0.2981  0.0377
23248W        W39057  15.674  16.285  15.095  0.0859 -0.1358 -0.1157
23249W        W39058   1.180  10.730  11.661  0.2601 -0.1208 -0.0046
23250W        W39059  11.317   1.337  11.868  0.0762 -0.0171  0.2100
23251W        W39060   3.486   0.722  14.725  0.0286  0.2680 -0.0094
23252W        W39061   7.212   3.112   1.171  0.0860 -0.2307 -0.3638
23253W        W39062  11.499  12.019  13.739 -0.1871 -0.1309  0.0033
23254W        W39063  18.212  11.027  13.585 -0.2454  0.0674  0.0964
23255W        W39064   9.229  17.737  12.271  0.0957 -0.2064 -0.2026
23256W        W39065   8.498  11.361   4.885 -0.1968 -0.2523 -0.4194
23257W        W39066   5.383  12.507   2.178  0.1963  0.0702 -0.2993
23258W        W39067   6.349  16.500   3.992  0.1582 -0.2597  0.1742
23259W        W39068   5.519   9.098  11.748 -0.2508 -0.0665  0.2620
23260W        W39069  10.075   5.576   0.630  0.1524 -0.2720 -0.0765
23261W        W39070  11.358  13.277  13.000  0.0122  0.1540 -0.0262
23262W        W39071   5.901  14.797   2.248  0.0560  0.0817  0.3724
23263W        W39072   7.090   8.337   0.801 -0.0390 -0.3252 -0.2062
23264W        W39073   0.165  14.841  15.178  0.0346  0.3037  0.0677
23265W        W39074   4.238   3.827  13.264 -0.4137 -0.0717  0.0584
23266W        W39075   3.764   1.024  14.397 -0.2563 -0.2463 -0.1480
23267W        W39076   6.027   4.001  12.248  0.1437  0.1215  0.0816
23268W        W39077   1.688  18.786  13.743 -0.0293  0.1495  0.1434
23269W        W39078   8.869   1.987  13.739 -0.2305 -0.3184 -0.1215
23270W        W39079  14.310  10.980   3.484 -0.3303  0.1410  0.0177
23271W        W39080   6.016   7.275   3.641 -0.1109 -0.0229  0.3383
23272W        W39081  18.469   6.023   9.776 -0.3687 -0.2013  0.1734
23273W        W39082   4.609   3.039  13.824 -0.0240  0.0280 -0.1512
23274W        W39083   8.407  13.821   2.757 -0.0798 -0.0254 -0.0286
23275W        W39084   0.002   0.532  14.918 -0.1083 -0.0080 -0.0596
23276W        W39085   5.253  12.575   4.011 -0.1528  0.1511  0.1047
23277W        W39086  13.062   8.749  11.298 -0.0087 -0.0851 -0.0625
23278W        W39087   9.602  11.363  10.490  0.0472  0.2801  0.2355
23279W        W39088  11.878  14.439   0.474  0.0072 -0.0002  0.0963
23280W        W39089  13.696  18.402   4.283  0.0378 -0.1606 -0.2216
23281W        W39090  13.847   4.405  11.202  0.1589  0.2532 -0.0465
23282W        W39091   2.234   6.317  13.031  0.5208  0.1085  0.2051
23283W        W39092  10.926  12.999  10.796 -0.0120 -0.1163 -0.1002
23284W        W39093  14.621   2.082  11.302 -0.0357  0.0189  0.0370
23285W        W39094   5.966  17.441  11.797  0.2635  0.0294 -0.0197
23286W        W39095   1.412   1.850   5.323  0.2247 -0.2282  0.0147
23287W        W39096   4.181  13.498  10.394  0.1003 -0.0143 -0.0133
23288W        W39097   5.639  15.174  12.065 -0.4141  0.0407 -0.0702
23289W        W39098  13.454  10.069  12.532  0.0840  0.1145  0.1005
23290W        W39099   2.210   7.950  12.489  0.1199  0.1417  0.2013
23291W        W39100   7.919   6.999  12.981  0.2684  0.4533 -0.2722
23292W        W39101   5.405   0.662   3.527  0.1096 -0.2093 -0.1140
23293W        W39102   6.367  10.708   2.690 -0.0287  0.1790 -0.3572
23294W        W39103  17.393   9.188   2.129 -0.1116  0.1628  0.1617
23295W        W39104   6.619  18.075  14.586 -0.4144 -0.1192 -0.0147
23296W        W39105  10.003   4.208  14.961 -0.0360  0.3376 -0.0694
23297W        W39106  16.821  14.891  14.883 -0.0282  0.2025  0.1780
23298W        W39107  10.461   3.137   3.813  0.0776 -0.1592  0.0853
23299W        W39108  16.411   4.985  12.006  0.1575 -0.1394  0.1217
23300W        W39109  18.037  18.825   1.047 -0.4449 -0.0582 -0.0464
23301W        W39110   1.024  12.924   0.890  0.2008 -0.1412  0.0674
23302W        W39111   6.072   7.533   5.235 -0.0066  0.0833  0.2954
23303W        W39112  16.050   0.730   3.619 -0.0537  0.1346 -0.0258
23304W        W39113  12.787   8.003   0.380 -0.3565  0.0270  0.1739
23305W        W39114  17.024  16.545   2.326  0.0547  0.1862  0.1891
23306W        W39115  14.719   9.697  13.654  0.1997  0.1105  0.1995
23307W        W39116   4.443   8.905   2.320 -0.4351  0.1178  0.1710
23308W        W39117   4.038   9.675   3.780  0.0585 -0.0049 -0.1037
23309W        W39118   2.429   1.066   3.223  0.0365  0.2388  0.2312
23310W        W39119   8.060  14.260   1.423 -0.1836 -0.0517 -0.1968
23311W        W39120  11.700  13.451  11.885  0.0415 -0.4164 -0.3653
23312W        W39121   5.673   2.960  11.948 -0.3154  0.0681 -0.2187
23313W        W39122   8.972   1.162   2.067  0.4946 -0.1075 -0.0225
23314W        W39123  12.634   7.894  11.217  0.3955  0.0352 -0.2380
23315W        W39124  13.166   3.462   3.661 -0.0256 -0.2481 -0.1682
23316W        W39125   4.521   2.469  15.311  0.1842 -0.1678 -0.0382
23317W        W39126   1.625  11.067  15.229  0.0600  0.0522 -0.0176
23318W        W39127  14.789   3.086   1.938 -0.2686  0.0872 -0.2791
23319W        W39128  18.722  14.866   4.431 -0.0494  0.2412  0.5248
23320W        W39129   9.811   1.035  12.132  0.1212 -0.0989 -0.1360
23321W        W39130   3.929   8.733   2.740  0.2180  0.0820 -0.3510
23322W        W39131  18.343  15.804  14.356  0.5343  0.1802 -0.0338
23323W        W39132   4.680   3.943  13.856 -0.1358 -0.0541  0.0595
23324W        W39133   8.714  16.353  13.941 -0.1690  0.1587  0.0327
23325W        W39134   3.343   7.903   2.240 -0.2141 -0.0690 -0.1978
23326W        W39135  16.255   7.891  12.590 -0.1354 -0.1875  0.1972
23327W        W39136   5.683  17.368   4.087 -0.2189 -0.1706 -0.1656
23328W        W39137  16.547  18.029   1.863  0.0237  0.1462 -0.2375
23329W        W39138   4.956   4.418   2.042  0.0862 -0.1396 -0.1867
23330W        W39139  10.833   5.658   5.695 -0.1233 -0.0773  0.1952
23331W        W39140  11.983   3.272  11.900 -0.3478  0.0589  0.2071
23332W        W39141  18.148  18.437  15.379 -0.0885 -0.0248  0.0287
23333W        W39142  12.903  14.227   5.002 -0.1620 -0.1421  0.3586
23334W        W39143  13.058  11.558   3.294 -0.0959  0.0537  0.1516
23335W        W39144   8.372   8.180   1.668 -0.0575 -0.0995 -0.1095
23336W        W39145   5.308  10.226   5.652 -0.1645  0.3945  0.0629
23337W        W39146   4.905   8.928   2.769 -0.0648  0.0919  0.1449
23338W        W39147   9.703   9.815   1.767  0.1568  0.2886 -0.2276
23339W        W39148  17.291   7.802   4.705  0.2703  0.0461  0.0949
23340W        W39149  16.034  10.710   9.671 -0.0854 -0.4787  0.0389
23341W        W39150   8.229   2.670  10.707 -0.1126 -0.2696  0.1293
23342W        W39151   8.951  18.440   1.086 -0.3785 -0.0838  0.1292
23343W        W39152  13.418  10.314   5.040  0.3961  0.0175 -0.0742
23344W        W39153  10.663   8.965  12.782  0.1591  0.1350 -0.3239
23345W        W39154  13.766   8.293   1.324 -0.0835 -0.2824 -0.3020
23346W        W39155  12.458  16.225  12.976  0.2504  0.0474  0.0082
23347W        W39156  17.273  11.884   4.406 -0.2223 -0.0879  0.3396
23348W        W39157   7.288   7.645   1.597 -0.2215 -0.0605 -0.1872
23349W        W39158   9.880   1.562   4.522 -0.0225 -0.1880  0.3686
23350W        W39159   3.123   0.277   2.496 -0.1001  0.0423 -0.1756
23351W        W39160  12.165   3.664  15.212 -0.2182  0.1199 -0.0477
23352W        W39161   4.911  15.630  11.027 -0.2501 -0.0437 -0.1057
23353W        W39162   3.541  14.224  14.696 -0.0830  0.2115  0.1374
23354W        W39163   7.368   5.478  11.683  0.3041  0.0615  0.1563
23355W        W39164  18.725   8.635   0.526 -0.0721  0.0814 -0.0083
23356W        W39165  17.217  15.305   2.467  0.4232 -0.1974  0.1256
23357W        W39166   5.512  12.207  13.649 -0.1122 -0.2641  0.2479
23358W        W39167  11.683  14.623   2.833 -0.0270  0.2138  0.0217
23359W        W39168   0.071  15.942  12.150  0.0562 -0.2857 -0.0815
23360W        W39169   5.020   2.629  10.581 -0.1218 -0.0835 -0.1092
23361W        W39170   5.924  11.034  11.461  0.0591  0.2259 -0.2413
23362W        W39171   1.023  18.808   3.595 -0.0892  0.1002 -0.1429
23363W        W39172   3.054  17.478   3.607 -0.2465 -0.0545  0.1491
23364W        W39173  16.657   5.732   3.336 -0.2388 -0.2557  0.0223
23365W        W39174   2.549   6.213   3.378  0.0049  0.0606 -0.0300
23366W        W39175   3.438  18.665  14.974  0.2150 -0.0577  0.0429
23367W        W39176   9.668  16.814   3.287  0.3282 -0.3362  0.1267
23368W        W39177   8.234   0.219   3.359  0.1639 -0.1556  0.1080
23369W        W39178  10.183   0.157   4.294  0.0612  0.0874  0.1121
23370W        W39179   7.638  12.781   0.870 -0.0783  0.1500  0.1770
23371W        W39180   7.177   6.380  12.910 -0.0638  0.1562 -0.1187
23372W        W39181  11.169  14.073  12.344  0.0355  0.3095 -0.1029
23373W        W39182   4.979  10.543   2.559  0.2207 -0.2122 -0.0442
23374W        W39183   7.494   2.151   4.943  0.1822  0.0935 -0.0527
23375W        W39184  18.893  17.188   9.927  0.0878  0.2674  0.2391
23376W        W39185   3.097   2.371  14.475  0.0091  0.0702  0.2862
23377W        W39186   9.553   9.574   1.225 -0.0957  0.0973  0.0348
23378W        W39187   9.256   7.755  15.283  0.1326 -0.2365  0.2363
23379W        W39188  13.485  10.094   0.514  0.1863 -0.0277 -0.1292
23380W        W39189  17.198   8.047   5.240 -0.1541 -0.0627  0.1771
23381W        W39190  10.011  11.655  10.953 -0.0276  0.1111 -0.0806
23382W        W39191   9.442  10.053   2.983 -0.1964  0.0262  0.1626
23383W        W39192   5.282  15.208   3.846  0.2765 -0.0038  0.0302
23384W        W39193   4.332   5.832   2.660 -0.0476 -0.0843 -0.0572
23385W        W39194   2.875   6.947  14.273 -0.1866 -0.3093  0.1099
23386W        W39195   2.337  12.564   3.363 -0.1331  0.0061  0.2986
23387W        W39196   9.335   2.344   1.026 -0.0894 -0.0789 -0.2713
23388W        W39197  14.370  16.014  10.918  0.0011 -0.2011 -0.0328
23389W        W39198   3.143   6.177  11.395  0.3130 -0.0527  0.2972
23390W        W39199  14.364  11.627   2.004  0.4090 -0.4992  0.1103
23391W        W39200  18.231   0.816  11.872  0.2742  0.1345 -0.0056
23392W        W39201  10.322  17.392   1.231 -0.0447  0.1672 -0.2846
23393W        W39202   4.781   0.274  15.044  0.1383 -0.0758  0.3939
23394W        W39203  15.021   1.622   2.423 -0.2122 -0.1078 -0.0056
23395W        W39204   9.250   9.572   1.717 -0.1295 -0.0545 -0.1628
23396W        W39205   5.057  10.390  14.710 -0.0225  0.1968 -0.3418
23397W        W39206   7.036   3.047   0.632  0.1668  0.0872  0.1390
23398W        W39207   6.116  12.607   4.685  0.2758  0.3506 -0.0483
23399W        W39208   5.222   2.713   2.181  0.1078 -0.1220 -0.2737
23400W        W39209  12.954   6.922   0.294  0.2051 -0.3651 -0.1826
23401W        W39210   7.015   0.096  13.531 -0.0517  0.0357  0.2799
23402W        W39211   3.586  18.050   1.502 -0.1457 -0.5077 -0.0792
23403W        W39212  12.179  12.044  11.744  0.0660  0.0395 -0.0383
23404W        W39213  12.158  12.887   3.546 -0.2889 -0.0038  0.0798
23405W        W39214   1.303  13.284   0.715 -0.1567 -0.1159  0.0566
23406W        W39215   6.388   4.018   5.160  0.1388 -0.2199 -0.4319
23407W        W39216   9.330  17.069  13.137 -0.3294  0.1768 -0.2521
23408W        W39217   1.567  13.650   3.311  0.3765  0.0725  0.0273
23409W        W39218   1.620  13.254  12.117 -0.2973 -0.1481  0.0239
23410W        W39219   4.148  10.508  14.231 -0.0493 -0.1044  0.2460
23411W        W39220  16.592  10.947   3.366 -0.2891  0.1072 -0.1062
23412W        W39221  12.983  16.272  11.008  0.1074 -0.0927 -0.0700
23413W        W39222   7.023  10.535   3.794 -0.0642 -0.1589  0.2407
23414W        W39223   1.730   6.115  14.155 -0.1961  0.1065 -0.0334
23415W        W39224   4.210   5.707   0.340  0.2323 -0.1625  0.0444
23416W        W39225  13.705  13.288   3.105 -0.0720  0.1194  0.3315
23417W        W39226   4.992   1.303   0.190 -0.0625  0.0407  0.2268
23418W        W39227  13.124   7.079   4.885 -0.1045 -0.2069 -0.2016
23419W        W39228   0.541  12.745  12.044  0.2713  0.0793 -0.2148
23420W        W39229  10.118  13.442  14.100 -0.1327  0.1419 -0.0142
23421W        W39230   8.411   3.617  11.925  0.0038 -0.0741  0.2269
23422W        W39231   7.256  16.587  14.607 -0.3842  0.0328  0.0867
23423W        W39232  13.215  15.066  13.181 -0.2175  0.1264 -0.0316
23424W        W39233   0.153   9.032   2.634 -0.5580  0.1119 -0.0392
23425W        W39234  12.389   8.644   2.735 -0.1398 -0.4435  0.0930
23426W        W39235   9.945   3.463   4.081  0.3934 -0.0102  0.1443
23427W        W39236  13.665   5.145   2.149  0.1532  0.1244 -0.1301
23428W        W39237  13.691   8.134  13.909  0.0742  0.0178  0.4231
23429W        W39238  16.175   6.545   0.533 -0.0192  0.0870  0.1676
23430W        W39239  10.723  11.070  12.233 -0.1714  0.0438 -0.1250
23431W        W39240   9.062   1.466  14.572  0.0201  0.0991 -0.0512
23432W        W39241   8.147   0.472  14.554  0.4515  0.0390  0.1370
23433W        W39242   0.182   3.487  13.886  0.2195 -0.1489  0.0673
23434W        W39243  18.703   6.375  13.699  0.0022 -0.2907 -0.4737
23435W        W39244  12.283  14.741  15.262  0.1673 -0.2036 -0.0520
23436W        W39245   4.052  13.312  15.353  0.5067  0.0186 -0.1124
23437W        W39246   2.532  11.451  12.861  0.0848 -0.0518  0.2736
23438W        W39247   9.680  18.009   1.641  0.0858  0.0781 -0.5243
23439W        W39248  10.633   8.071   3.789  0.1670 -0.1866  0.1607
23440W        W39249   3.232  14.459  10.104  0.0067 -0.0195 -0.0247
23441W        W39250   3.858   9.109  12.224  0.0811 -0.1318  0.1565
23442W        W39251  16.020   0.605  12.307 -0.1204  0.3032 -0.1808
23443W        W39252  10.658   4.989   3.484  0.0080  0.0193 -0.2768
23444W        W39253   9.393  15.280  15.412 -0.0270 -0.3288 -0.0816
23445W        W39254   5.498  14.829   3.508 -0.2073 -0.0028 -0.0349
23446W        W39255   4.501   1.609  11.542 -0.1403  0.0262  0.3974
23447W        W39256  15.763  14.700   0.954 -0.1940  0.0980 -0.1586
23448W        W39257  15.371  16.516  10.953 -0.2173  0.3260 -0.3541
23449W        W39258  11.685  10.141   0.709 -0.2842 -0.1627 -0.4211
23450W        W39259  17.319  16.649  13.887 -0.2771  0.0842  0.0980
23451W        W39260  18.125   7.694  13.047  0.0859  0.4179 -0.1002
23452W        W39261  11.361  12.466   9.546  0.0602  0.1889  0.0126
23453W        W39262   4.013  16.813  14.531  0.0190 -0.0742  0.0225
23454W        W39263   3.474  13.036   5.167  0.1222 -0.1336 -0.6259
23455W        W39264  14.758  11.313  14.593  0.1403  0.1609  0.2929
23456W        W39265  12.329   1.615  13.888  0.2015  0.3769 -0.2343
23457W        W39266  18.127  11.982  13.492  0.0404  0.1183 -0.2589
23458W        W39267  11.149  16.033  12.977  0.1994 -0.1605  0.2203
23459W        W39268  16.696   2.225   1.135  0.2527  0.1393  0.2492
23460W        W39269  14.666  17.026  15.271  0.2281 -0.1871 -0.2417
23461W        W39270  10.296   2.390   5.061 -0.2570 -0.0378  0.1178
23462W        W39271   4.903  14.154  15.383 -0.1807  0.1503  0.2220
23463W        W39272  10.762  16.489  14.129  0.0189 -0.1087  0.0510
23464W        W39273   7.925   9.703   3.206 -0.1099 -0.0171  0.1121
23465W        W39274   6.624   7.656  12.713  0.0117  0.1201  0.0328
23466W        W39275   1.093  14.651  14.695 -0.1218  0.0624  0.2191
23467W        W39276  14.049  10.982   0.391  0.0880 -0.0707 -0.1145
23468W        W39277   0.171  10.276   3.056 -0.0338  0.1404 -0.1761
23469W        W39278  17.430  10.709   2.745 -0.2761 -0.0280 -0.2755
23470W        W39279  16.176   4.664   3.943 -0.0431 -0.1663 -0.1680
23471W        W39280   1.834   4.411  14.376  0.0700 -0.0442 -0.2666
23472W        W39281  18.355  12.115   3.860  0.1728 -0.2963 -0.0059
23473W        W39282  14.296   4.603  11.584 -0.2852  0.5528  0.0135
23474W        W39283  12.808   2.799   4.831  0.0874 -0.2217  0.0946
23475W        W39284  15.777  15.779   4.594 -0.0890  0.2022  0.0236
23476W        W39285  14.673   5.537   1.624  0.3552  0.0084  0.6328
23477W        W39286  18.252   2.035   2.889 -0.0585 -0.0400 -0.1350
23478W        W39287  14.947  18.349   4.625 -0.2443 -0.2848 -0.1206
23479W        W39288  12.996  13.247   2.122 -0.0549 -0.0943  0.0917
23480W        W39289  17.716   3.116   0.143 -0.2969  0.2704 -0.1726
23481W        W39290   5.341   8.511  14.221 -0.1406 -0.0297  0.1519
23482W        W39291  14.007  14.599   0.359  0.1548  0.1552  0.1074
23483W        W39292   8.326   8.442   3.619 -0.1609 -0.0784 -0.0505
23484W        W39293   0.237   6.689  10.837  0.0383 -0.1996  0.2840
23485W        W39294  18.769   8.395   1.872 -0.2537 -0.2304 -0.0587
23486W        W39295  17.059   1.021   3.508 -0.1762  0.0802  0.0982
23487W        W39296  17.360   5.970   2.043  0.1180  0.0545  0.2167
23488W        W39297  16.947  13.147  14.481 -0.2929 -0.1575 -0.0762
23489W        W39298  12.647  11.678   9.737 -0.0500  0.2592  0.0767
23490W        W39299  17.262  10.741  11.820  0.1957 -0.3739  0.1262
23491W        W39300  17.940  13.109  13.985  0.1331 -0.0986 -0.2817
23492W        W39301   0.734   0.647   2.823  0.2016  0.1159  0.3242
23493W        W39302   8.000  10.013  14.265 -0.0422  0.1382 -0.1483
23494W        W39303   4.595   1.048  15.427 -0.2064  0.1544 -0.0971
23495W        W39304  17.313   9.246  11.145 -0.3240  0.2462 -0.0947
23496W        W39305  16.663  15.625  13.045  0.0898 -0.0161  0.0872
23497W        W39306   2.052  13.123  11.884  0.2925 -0.1726  0.1897
23498W        W39307   7.271   7.367   3.083  0.1110  0.1769  0.1957
23499W        W39308   4.581   2.388   3.164  0.0683 -0.0703 -0.1785
23500W        W39309  18.018  16.971   1.866 -0.0740  0.1980  0.1917
23501W        W39310   3.238   1.416  12.712  0.3312  0.3477 -0.0437
23502W        W39311  13.158  18.725   3.663  0.3560  0.0210  0.2139
23503W        W39312   5.706   4.130  11.577  0.2166 -0.2796  0.0554
23504W        W39313   9.794   9.369  12.554 -0.2231 -0.2736  0.1169
23505W        W39314  10.175  12.451  14.652  0.0518  0.0128  0.4114
23506W        W39315  10.930   3.769   9.684  0.2392 -0.0483  0.3311
23507W        W39316  18.713  14.654   2.473 -0.0343 -0.2464  0.1445
23508W        W39317   7.054  16.545  15.034  0.1316 -0.0618  0.0037
23509W        W39318  18.615   9.780  12.825 -0.0780  0.0677 -0.0665
23510W        W39319  11.117  17.871   4.581 -0.1358 -0.0898  0.0927
23511W        W39320   5.855   6.298   1.950  0.3052 -0.0983 -0.5009
23512W        W39321   6.568  14.771  13.174  0.6000 -0.0699  0.2379
23513W        W39322   5.851  17.140  12.320  0.0909  0.1769 -0.1575
23514W        W39323   2.988   7.933   4.623  0.1140 -0.1596 -0.0576
23515W        W39324  15.165   7.867   2.522 -0.0866  0.2451  0.2231
23516W        W39325  13.194  15.876   2.717 -0.0837 -0.2213 -0.0565
23517W        W39326   6.944   7.881   4.410  0.1371  0.1235  0.0427
23518W        W39327   3.942   0.959   5.435  0.2157 -0.0019 -0.0356
23519W        W39328   1.139  13.043  14.046 -0.1473  0.0212 -0.0032
23520W        W39329   8.414  12.962  14.871  0.1835  0.1828 -0.1319
23521W        W39330  11.458   4.385   4.037 -0.3249  0.0938 -0.0639
23522W        W39331  12.986   1.983   3.978  0.2907 -0.0621  0.1325
23523W        W39332   1.691   1.693  15.318 -0.3072  0.0530 -0.0586
23524W        W39333   2.320   2.557   9.646 -0.0223  0.1960 -0.0081
23525W        W39334  14.816   5.662  12.681 -0.0605  0.0469 -0.0015
23526W        W39335  16.785   9.486  12.345  0.1402 -0.3493  0.0731
23527W        W39336   3.382  14.816  10.488  0.1643 -0.1448  0.0580
23528W        W39337   3.660  14.522   1.522  0.2276 -0.2505 -0.2036
23529W        W39338   5.283  11.545  15.296 -0.0530  0.0474  0.1420
23530W        W39339  17.138   4.938  14.477 -0.1808 -0.0035 -0.3856
23531W        W39340  13.483  16.307   2.537 -0.0283 -0.0333 -0.1322
23532W        W39341   0.720  17.842  13.188 -0.1525 -0.3453 -0.3616
23533W        W39342   2.799   3.767  12.553 -0.1357 -0.1503  0.0884
23534W        W39343  11.015  13.433  13.452  0.3168 -0.2292 -0.0350
23535W        W39344  16.225  15.890  13.254 -0.3658  0.1318  0.2208
23536W        W39345  11.568   0.817  12.734 -0.0539  0.1461  0.1463
23537W        W39346  14.744  12.708  12.327  0.0197 -0.3410 -0.3070
23538W        W39347   9.073  10.408   4.760 -0.0590 -0.0670  0.0602
23539W        W39348   8.521   8.898   3.786 -0.3444 -0.0976  0.0463
23540W        W39349   6.585  17.278  14.649 -0.1798 -0.0684 -0.1317
23541W        W39350   4.451  16.476   3.034  0.3126 -0.0159  0.2450
23542W        W39351   4.476  15.586   4.033  0.0934  0.0511  0.1084
23543W        W39352   2.247  18.261   1.204 -0.3073  0.2046 -0.0156
23544W        W39353  13.202   8.674   3.630  0.0035  0.0546 -0.1911
23545W        W39354  11.814   0.018  13.620  0.0368  0.0932 -0.0533
23546W        W39355  16.585  16.671   5.249  0.0524  0.1722 -0.0713
23547W        W39356  10.424  15.004   0.308  0.0325  0.3295  0.1564
23548W        W39357  11.885   8.791   3.607 -0.3044 -0.0988  0.3484
23549W        W39358  17.777   1.647  11.896  0.1159 -0.0017  0.3111
23550W        W39359   6.490  12.445  14.521 -0.2059  0.1449 -0.1649
23551W        W39360   6.035  10.539  11.562 -0.2915 -0.2025  0.2267
23552W        W39361   2.699   4.765  10.570 -0.0741  0.0988  0.2619
23553W        W39362   9.242   2.855   3.577 -0.3355 -0.0516 -0.1054
23554W        W39363  15.488  16.010  12.756  0.4294 -0.0977 -0.1092
23555W        W39364  12.903   4.956  10.837 -0.0989 -0.2907 -0.0432
23556W        W39365  17.364  10.206  14.604 -0.4063  0.0869  0.1108
23557W        W39366   3.740  14.200  14.189 -0.1619 -0.2153  0.1755
23558W        W39367   3.983   0.673   3.602  0.0075  0.0525  0.2158
23559W        W39368  12.221   1.319  14.256  0.0215  0.0727  0.2175
23560W        W39369  17.597  18.670   0.315  0.1978  0.1152 -0.1288
23561W        W39370   9.221   1.559   1.044  0.4868 -0.2587 -0.3539
23562W        W39371   9.574  18.258   2.921  0.1334 -0.1814 -0.0445
23563W        W39372  12.531  13.968  11.610 -0.1062 -0.0845 -0.0450
23564W        W39373   8.745  16.752  14.281  0.2103  0.1506  0.0681
23565W        W39374   0.407   8.167  13.352  0.2431  0.1297 -0.1852
23566W        W39375  16.038  14.707   3.584  0.0334  0.1342  0.2381
23567W        W39376   2.885  16.856   1.124  0.1315  0.0947  0.0684
23568W        W39377   6.472  12.956   0.278 -0.0822 -0.1342 -0.2019
23569W        W39378   2.964   2.941   3.057  0.3057 -0.1359 -0.0534
23570W        W39379   3.026   1.076  14.933 -0.1943 -0.0909 -0.2055
23571W        W39380   7.290  14.226  12.877  0.1699  0.3216 -0.0872
23572W        W39381  14.854   6.337  12.031 -0.1082 -0.0147 -0.1383
23573W        W39382   6.346  11.003   5.443  0.2767  0.2849 -0.0097
23574W        W39383   7.367  15.618  14.560  0.1143  0.0895 -0.4408
23575W        W39384   7.195   5.838   3.439  0.4610 -0.2420 -0.0373
23576W        W39385   1.437   1.874  12.944 -0.0037  0.4532  0.0162
23577W        W39386  17.160   1.390   2.861  0.4650  0.0915  0.0861
23578W        W39387  13.142   2.792  14.784  0.2323  0.2873  0.0555
23579W        W39388  11.921   0.791  14.994  0.1993  0.2833 -0.0607
23580W        W39389   7.024  17.876  14.101 -0.2161 -0.0148 -0.2406
23581W        W39390  18.460  18.739  13.582  0.0679  0.3912 -0.0730
23582W        W39391  16.688   1.650   0.001  0.0195 -0.1477 -0.0226
23583W        W39392  13.955  11.737   3.811 -0.2081 -0.1262  0.0977
23584W        W39393   8.997  12.464  11.306 -0.0095 -0.1164 -0.1988
23585W        W39394   7.082   7.058  11.534 -0.0703 -0.0727  0.0834
23586W        W39395  10.895   7.113  11.397 -0.0023 -0.0295  0.2119
23587W        W39396   8.328   0.140  13.961  0.0693  0.1353  0.2016
23588W        W39397  11.257   9.154   3.258  0.2261 -0.1752  0.1540
23589W        W39398   2.172   8.194   1.171 -0.1712 -0.0696 -0.1006
23590W        W39399  14.025   0.264   3.421 -0.1846 -0.0282  0.1503
23591W        W39400   8.693   3.991  15.270  0.5150  0.3444 -0.1921
23592W        W39401   0.913   6.505   4.204 -0.0542 -0.1354 -0.0546
23593W        W39402   2.475   0.133  13.993  0.0554 -0.2937  0.1915
23594W        W39403  14.326   1.699  12.307  0.0722  0.2435 -0.2604
23595W        W39404   4.387   8.828  10.526  0.4308  0.0699  0.2234
23596W        W39405  14.279   9.184   2.286 -0.1835 -0.1442  0.2607
23597W        W39406   8.470   8.598   0.337 -0.1099 -0.2358 -0.0688
23598W        W39407   6.153   3.905   1.516 -0.0469  0.0330  0.0505
23599W        W39408  14.733  13.952   0.470 -0.1085 -0.1961  0.0009
23600W        W39409   0.829  14.076   3.203  0.1948  0.1818 -0.0761
23601W        W39410   9.950   7.067  13.683  0.3418 -0.2290  0.2663
23602W        W39411  14.039   6.980  12.429 -0.0375 -0.3846 -0.4487
23603W        W39412   1.262   0.805   2.792 -0.2319  0.0624  0.0322
23604W        W39413  17.533   9.655  13.930 -0.1582  0.3058 -0.1055
23605W        W39414  18.513   8.507  14.578  0.0249 -0.0274 -0.1995
23606W        W39415   2.564  17.976   3.932  0.2394  0.0210  0.1714
23607W        W39416   8.278  16.678  12.766 -0.1638 -0.2281  0.0191
23608W        W39417  17.989  12.241  11.252  0.1024  0.1981  0.2884
23609W        W39418  13.077   3.392  13.046 -0.1775  0.0953  0.0554
23610W        W39419   4.771  15.432   4.991 -0.0952 -0.1908 -0.2199
23611W        W39420   8.760   3.735   0.279 -0.3771 -0.1363 -0.1654
23612W        W39421   2.404   0.058  12.350 -0.0407  0.0613 -0.1311
23613W        W39422   7.221   3.817  12.902 -0.0598 -0.2050 -0.2210
23614W        W39423  12.766  12.750   3.840  0.3304  0.1167 -0.1138
23615W        W39424  12.684   5.212  11.716 -0.1670  0.2001  0.0078
23616W        W39425  14.833   5.627   3.362  0.2844 -0.1259  0.1381
23617W        W39426  11.661  17.913   0.006 -0.2371 -0.0007 -0.1308
23618W        W39427  16.753   9.259   3.817  0.0267  0.0478  0.0284
23619W        W39428   0.970  10.028  10.642  0.0253  0.0627 -0.4376
23620W        W39429  17.535   6.220   2.471 -0.3526  0.0702 -0.1594
23621W        W39430  17.772  18.663   1.449  0.0436  0.1048 -0.1363
23622W        W39431   9.168   4.428   3.424 -0.0991 -0.1003  0.1336
23623W        W39432   9.776   4.922  14.299 -0.1131 -0.1675  0.1121
23624W        W39433   8.789   1.514  11.101  0.1040  0.0577 -0.0823
23625W        W39434   2.523   2.286   2.521  0.0875  0.0620 -0.1980
23626W        W39435   8.021  12.327   0.250  0.4601 -0.3022 -0.2344
23627W        W39436   4.105   7.359   1.097 -0.2324  0.0934  0.0859
23628W        W39437   9.479   1.904  11.980 -0.0333  0.0795  0.2982
23629W        W39438   1.391   8.157   3.843  0.0244  0.2649 -0.1782
23630W        W39439   1.880   9.743  13.281 -0.0931 -0.1025  0.1485
23631W        W39440  16.849   3.858   1.166 -0.2895  0.1903  0.0973
23632W        W39441  14.677  10.846  13.759 -0.0638  0.2735  0.3495
23633W        W39442   5.414  18.551  13.086 -0.0588  0.0183 -0.2026
23634W        W39443  10.888  13.059  11.328 -0.1047  0.1651  0.1262
23635W        W39444  12.266   0.989   4.721  0.2679  0.0375  0.2967
23636W        W39445  12.379   8.349   1.191 -0.0247 -0.0206 -0.2022
23637W        W39446   3.872   3.922   0.074 -0.1800 -0.1751  0.1299
23638W        W39447   1.548   2.732  13.231  0.0862 -0.1337  0.2031
23639W        W39448   6.413  13.811  14.994 -0.2371  0.1418 -0.0979
23640W        W39449  17.751  17.102  13.017  0.0049  0.1549  0.3541
23641W        W39450  17.921   6.488  14.361  0.3868  0.0544 -0.3932
23642W        W39451  14.120  14.883   1.089 -0.1592  0.0588  0.0184
23643W        W39452  17.347   0.225   4.872 -0.0173 -0.0589  0.1712
23644W        W39453   2.512   0.046  10.999  0.2241  0.0855  0.1250
23645W        W39454   2.048   2.350   2.797  0.2631  0.0580 -0.2516
23646W        W39455  14.715  13.146   0.850 -0.2919 -0.2224 -0.0410
23647W        W39456   0.068  12.077  11.403 -0.1362  0.0747 -0.1813
23648W        W39457   9.696   4.017  12.525  0.2177  0.3493 -0.2347
23649W        W39458  12.512  16.530  14.435  0.0344  0.0943  0.3415
23650W        W39459  17.922   9.386  13.683 -0.1166 -0.0818  0.2092
23651W        W39460  16.781   2.741   0.850  0.1504 -0.2618  0.4836
23652W        W39461   2.792   1.494  14.245  0.1482  0.0746 -0.1109
23653W        W39462  11.126  11.496   0.112  0.0107 -0.0496 -0.2557
23654W        W39463   0.882  13.552  13.263  0.3316 -0.2964 -0.0514
23655W        W39464  13.265  10.513   6.062  0.4225 -0.0536  0.0091
23656W        W39465  12.352  16.714   3.229  0.1132 -0.1707 -0.1242
23657W        W39466   9.397  12.495   3.032 -0.0914  0.1760 -0.3169
23658W        W39467  12.984  10.387   2.904  0.1380 -0.5191  0.0631
23659W        W39468   1.380  18.131   1.339  0.1848  0.3619 -0.2324
23660W        W39469  13.492  17.702   1.523 -0.2055 -0.3376 -0.1729
23661W        W39470  17.485   1.356  12.308  0.1627  0.0533 -0.2385
23662W        W39471  18.183   6.082  15.345 -0.1485  0.3173  0.0612
23663W        W39472  14.194  10.035   5.054  0.0439  0.0289 -0.0602
23664W        W39473  17.553   1.780   4.074  0.3396  0.1326  0.0399
23665W        W39474   5.605  11.061  12.281  0.0805 -0.0364  0.1163
23666W        W39475  15.030  15.276   3.390  0.2362 -0.0849  0.0946
23667W        W39476   6.445  12.910   4.472 -0.0315  0.0015 -0.1923
23668W        W39477  11.734   3.492   0.943 -0.1564 -0.2598  0.1200
23669W        W39478   1.020  10.870   0.973  0.2192  0.2095 -0.1008
23670W        W39479   4.097   6.301  14.860 -0.0032 -0.0447 -0.2939
23671W        W39480  15.566   3.853   0.085 -0.0257 -0.0837 -0.4414
23672W        W39481   1.925  14.069  10.143  0.0929 -0.1082  0.1279
23673W        W39482   4.052  13.835  15.395  0.0428 -0.0594  0.0137
23674W        W39483   7.062  13.746  12.709  0.1510 -0.0646 -0.3340
23675W        W39484   7.157   8.337  12.875 -0.2082  0.1769 -0.1950
23676W        W39485   0.707   3.440   3.987 -0.1172 -0.1526  0.5324
23677W        W39486   0.449   6.843   3.072 -0.0991 -0.0167  0.2539
23678W        W39487  18.222   4.694   0.644 -0.0185  0.0053  0.0173
23679W        W39488   3.119  13.765   0.859  0.0985 -0.2324 -0.0331
23680W        W39489   7.635  10.929  11.296  0.0139 -0.1600  0.0753
23681W        W39490   5.291   1.746   1.852 -0.0117  0.3375  0.2380
23682W        W39491   0.910  11.159   1.870 -0.1931  0.2044  0.0651
23683W        W39492  17.467  11.261  13.150 -0.1152  0.1119 -0.2916
23684W        W39493   5.656  15.132   1.995  0.0000 -0.1907 -0.0650
23685W        W39494  11.622   5.368  12.520 -0.2550 -0.0602 -0.0833
23686W        W39495   3.162   3.194   1.162 -0.0266 -0.0266 -0.0793
23687W        W39496   2.060  10.668  12.424  0.2886 -0.1920 -0.2671
23688W        W39497   4.265  13.869   1.861  0.1974 -0.1265 -0.1987
23689W        W39498  14.926  16.271   3.655  0.1665 -0.0287  0.1933
23690W        W39499  13.683   0.964  12.227  0.0829 -0.0559  0.2003
23691W        W39500  15.196  12.068  11.637 -0.0428 -0.0023  0.0601
23692W        W39501   7.867  12.933   2.418 -0.0274  0.1485 -0.0396
23693W        W39502   6.804  12.485  14.024  0.1265  0.0766 -0.1137
23694W        W39503  17.886   1.229   0.827  0.2409  0.0009  0.2951
23695W        W39504   4.727   5.639  15.084  0.0894  0.2128  0.2464
23696W        W39505   0.438  18.638   1.860  0.0142 -0.0432 -0.0496
23697W        W39506   5.996  16.483  11.610  0.1445  0.2567 -0.1545
23698W        W39507  10.228   9.916   1.783  0.1294 -0.0571 -0.1066
23699W        W39508  16.625  13.342   2.233 -0.2282 -0.0500 -0.0709
23700W        W39509   2.937   9.825   1.305  0.1623  0.4211 -0.0483
23701W        W39510  16.275   9.739  14.220 -0.2567 -0.4006 -0.0071
23702W        W39511   2.191   6.011   0.772 -0.1012 -0.1885  0.1522
23703W        W39512  10.028   7.732   1.779 -0.0194  0.0653  0.0554
23704W        W39513   5.053   5.665   4.331  0.0378  0.0070 -0.1919
23705W        W39514   5.182   5.556  10.539 -0.3197 -0.3988  0.0225
23706W        W39515   6.528  12.675  11.782  0.1196  0.0201 -0.1507
23707W        W39516   8.258  14.733   3.234  0.0411 -0.0487 -0.1813
23708W        W39517  18.433  13.768   0.279  0.0605 -0.2105 -0.1381
23709W        W39518   2.838   2.954   2.550 -0.0033 -0.3420 -0.0722
23710W        W39519  15.553  16.308   3.849 -0.1513  0.0220 -0.2699
23711W        W39520   7.071  11.353   1.348  0.0618  0.0268  0.3754
23712W        W39521  12.221   7.114   3.829 -0.2232  0.0092  0.0822
23713W        W39522   9.342   8.493   2.835  0.1597  0.2695  0.0506
23714W        W39523  15.672   8.128  14.005  0.0995  0.0194  0.0588
23715W        W39524  12.149   8.090  12.572  0.0004 -0.1758 -0.3359
23716W        W39525   6.309   5.361   3.800  0.0680 -0.2856 -0.1290
23717W        W39526  15.156  13.864  13.240  0.1007  0.2788 -0.1746
23718W        W39527  16.988   5.429   3.631  0.1505  0.0583  0.0753
23719W        W39528   1.169   7.674  14.579 -0.0111 -0.2487 -0.1221
23720W        W39529  11.263  14.172  11.467 -0.2565  0.2419 -0.0758
23721W        W39530   0.767  13.118   1.406 -0.1940  0.3763  0.0613
23722W        W39531   4.582   2.863  13.274 -0.1772 -0.2735 -0.2448
23723W        W39532   2.385  11.114  12.522 -0.0069 -0.5081  0.2694
23724W        W39533  12.025   9.822   2.421  0.0034 -0.0670 -0.4453
23725W        W39534   4.268  12.629   3.257  0.1370  0.2960  0.1971
23726W        W39535  12.551   3.415  13.997  0.1335 -0.2127  0.2465
23727W        W39536   6.767   4.273   5.253 -0.0922 -0.0889 -0.0119
23728W        W39537  14.161  11.920  15.342 -0.1650  0.0888  0.4129
23729W        W39538   3.358  15.390  14.098  0.1833 -0.1617 -0.1740
23730W        W39539  11.532  16.458  13.471 -0.3110 -0.1479 -0.1233
23731W        W39540  18.610  14.732  12.174  0.0206 -0.0043 -0.1278
23732W        W39541   7.685  13.412  11.292  0.0560  0.0561 -0.5330
23733W        W39542   8.466   7.137  13.270  0.0185 -0.1366  0.2459
23734W        W39543  10.688   7.388   0.138  0.1570  0.0774  0.3087
23735W        W39544  12.271  13.007   4.150 -0.1030 -0.0296 -0.1727
23736W        W39545  14.979  17.020  12.773 -0.0926 -0.2131 -0.2064
23737W        W39546  18.538  16.609  13.859  0.1378  0.1028 -0.2578
23738W        W39547  10.857   4.260  12.512  0.0112 -0.1556 -0.1885
23739W        W39548  14.848   2.056  13.014  0.1236  0.1041  0.1181
23740W        W39549  14.998   8.207  13.783 -0.0728 -0.1327 -0.0000
23741W        W39550   9.923   5.650   2.152  0.1358  0.3717 -0.0858
23742W        W39551  16.448   1.066  13.174  0.3116 -0.1539  0.0517
23743W        W39552   6.459  15.182   0.281 -0.2343  0.0161  0.1085
23744W        W39553   6.637  18.388   2.689  0.1793  0.0130 -0.0910
23745W        W39554   3.988  14.184  12.116 -0.1398  0.2571  0.0698
23746W        W39555  11.359  15.749   0.158  0.3903  0.3752 -0.1514
23747W        W39556   1.178  11.376   0.680  0.0732 -0.0458 -0.0301
23748W        W39557  17.274   4.759   5.066 -0.1973  0.1023 -0.1682
23749W        W39558   2.226  18.788  15.285  0.2968  0.1738 -0.1361
23750W        W39559  18.446   8.621  10.919 -0.0819 -0.2271 -0.0262
23751W        W39560   1.298   3.094  11.573  0.1904 -0.1908 -0.1066
23752W        W39561   8.632   6.842  11.116 -0.2352 -0.3455 -0.1722
23753W        W39562  15.006  18.000  13.147 -0.0613  0.2254  0.2236
23754W        W39563   6.287   7.661  14.281  0.2482  0.1041 -0.2047
23755W        W39564   7.741  10.504  11.553  0.0317 -0.1973  0.0820
23756W        W39565   5.111   5.087  12.624 -0.1394  0.1120 -0.2611
23757W        W39566  13.708   4.869  13.375 -0.2483  0.2053  0.1424
23758W        W39567  16.245   4.445   4.625 -0.1919 -0.0550 -0.2404
23759W        W39568   5.131  12.199  10.147  0.1876 -0.2180  0.0968
23760W        W39569   0.462  10.822  14.080  0.0568 -0.1558 -0.0633
23761W        W39570  18.012  12.650   0.974  0.4044  0.1365  0.1896
23762W        W39571  13.134  18.460   2.558 -0.1620 -0.0646 -0.1993
23763W        W39572   0.815  15.440  10.938 -0.0381 -0.2298  0.5986
23764W        W39573  16.155  11.233  12.844  0.1207 -0.4838 -0.0722
23765W        W39574  13.767  14.214   1.914  0.3127 -0.1653 -0.0045
23766W        W39575   4.731  11.469   9.643 -0.2523 -0.1849 -0.0034
23767W        W39576   8.159   1.356   3.922  0.2003 -0.2724 -0.1184
23768W        W39577  17.272  10.936   3.396 -0.2704 -0.0170  0.1292
23769W        W39578  13.842  15.942  11.222  0.1438  0.2851  0.0735
23770W        W39579   4.609  11.322  10.591 -0.1334 -0.2643  0.2896
23771W        W39580   4.956  11.334  12.975  0.0649  0.1572 -0.0087
23772W        W39581  13.433  18.347  13.437 -0.2590 -0.1120  0.1478
23773W        W39582   6.619   6.763  14.449  0.1453 -0.3208 -0.3288
23774W        W39583   9.806   7.283  14.721 -0.1816  0.1987 -0.0388
23775W        W39584  16.797  16.958   0.079  0.0699  0.1021  0.0245
23776W        W39585   6.262   0.766   1.556 -0.0632  0.1769  0.2152
23777W        W39586   4.521   6.376  14.577  0.0896 -0.0340 -0.1577
23778W        W39587   9.713   6.684  13.420 -0.1387  0.1542 -0.0489
23779W        W39588   7.605   8.993  14.301 -0.5149 -0.0397 -0.2298
23780W        W39589   3.605  17.986  11.305 -0.0672 -0.1118  0.0704
23781W        W39590   4.100   8.529   0.044  0.0666  0.1423  0.0133
23782W        W39591   7.228   6.265   0.920 -0.1294 -0.0517 -0.1184
23783W        W39592  18.209   3.155   3.538  0.1335 -0.1603 -0.0719
23784W        W39593   4.859  18.337   0.024 -0.2496 -0.2070 -0.3944
23785W        W39594   2.764   8.295  10.897 -0.1971  0.2606  0.4888
23786W        W39595  15.710   2.105  12.481  0.0123 -0.1460  0.0344
23787W        W39596  17.855  17.188  14.064  0.0611 -0.0430 -0.0018
23788W        W39597  18.400  12.143   0.120 -0.1040 -0.2822  0.3385
23789W        W39598  10.845   7.838   4.097  0.1320  0.4366  0.0468
23790W        W39599   2.201  16.723  10.360 -0.0222 -0.0197  0.1398
23791W        W39600  17.034   1.013   2.419  0.3177 -0.0495 -0.0463
23792W        W39601   5.162   1.315   5.248  0.1837  0.0968  0.1885
23793W        W39602   7.685  16.735  12.164 -0.1747 -0.2582  0.0975
23794W        W39603  13.919   9.889  15.304  0.0776 -0.1839  0.2625
23795W        W39604   4.095   7.829  11.597  0.3554  0.0967 -0.1615
23796W        W39605   0.182   1.063   1.589 -0.1333 -0.0471 -0.0715
23797W        W39606  11.236  11.019   4.075 -0.0352  0.0788 -0.2608
23798W        W39607  16.933   1.306  11.467  0.0793 -0.0234  0.3966
23799W        W39608   6.362   5.963   1.352 -0.0425  0.0844  0.4165
23800W        W39609  10.755  10.863   5.027 -0.1987 -0.0727  0.0900
23801W        W39610   6.072   1.197   1.429  0.5561 -0.0581  0.2571
23802W        W39611   2.597   9.258  10.697  0.1836  0.0900  0.0051
23803W        W39612  11.762  13.127   0.869  0.2329 -0.1909 -0.0201
23804W        W39613   8.134   1.906   0.585 -0.0730  0.0570 -0.2306
23805W        W39614  13.750   0.223  10.486  0.5599  0.0062 -0.1340
23806W        W39615  17.556   4.410   0.764 -0.1242  0.0759  0.2508
23807W        W39616   0.263   2.258  13.424 -0.1847  0.2385  0.1774
23808W        W39617   0.710   1.196  15.143  0.0847 -0.0272  0.3173
23809W        W39618  13.092  14.271   9.618 -0.0110 -0.2571  0.0008
23810W        W39619   6.696   1.694  14.416 -0.1782  0.0279  0.3569
23811W        W39620  16.633   3.959   1.968 -0.0100  0.2581  0.0390
23812W        W39621   5.742  14.521  11.079 -0.3433 -0.2383 -0.0135
23813W        W39622   7.302  11.848  10.124 -0.0643 -0.0482 -0.1243
23814W        W39623  15.841   5.999  11.115  0.0335  0.0317  0.3153
23815W        W39624  13.379  13.753  10.705  0.0384 -0.2767 -0.1253
23816W        W39625   8.244  15.430  14.743  0.1103  0.1564 -0.3689
23817W        W39626  11.666   8.746   3.152 -0.1428 -0.1301  0.0989
23818W        W39627   8.059  15.715   4.274  0.3507 -0.0226 -0.0907
23819W        W39628   6.959   6.590  11.304 -0.0781 -0.3144 -0.0163
23820W        W39629  13.835  13.562  10.823 -0.1217 -0.1286 -0.0448
23821W        W39630  15.333   2.111  12.839  0.1176 -0.2113 -0.2090
23822W        W39631  10.732   2.790   0.919  0.1607 -0.3308  0.2404
23823W        W39632   6.105  13.479  14.843 -0.0254 -0.1767 -0.0386
23824W        W39633  13.094  14.261  14.642  0.0367  0.1912 -0.0624
23825W        W39634  11.484  17.470   0.833 -0.0412 -0.1393 -0.1378
23826W        W39635   2.774   0.405  13.217  0.1938 -0.0899  0.0783
23827W        W39636   9.651  10.868  11.394  0.1844  0.1469  0.0526
23828W        W39637  14.667   5.437   2.428 -0.2698  0.3430 -0.0441
23829W        W39638  15.127  11.790  12.479  0.0586  0.1902 -0.1244
23830W        W39639  15.195   7.042  10.872  0.0014 -0.0373 -0.0053
23831W        W39640   4.811   9.246  12.047 -0.1713 -0.0903 -0.0913
23832W        W39641   7.443   1.826   3.742 -0.1409 -0.0551  0.2449
23833W        W39642  17.108   9.153  13.213  0.2287  0.0737 -0.0408
23834W        W39643   3.680  14.356  10.662 -0.2139  0.0198  0.4530
23835W        W39644  15.266  12.950  12.170 -0.1783 -0.1089 -0.0570
23836W        W39645  14.790  18.858  15.147 -0.1455  0.0086  0.3302
23837W        W39646   9.620   2.719   3.923 -0.0889 -0.1867 -0.0070
23838W        W39647  17.202   7.009  10.596 -0.0876 -0.0645  0.0687
23839W        W39648   7.297   7.400  12.187  0.0756  0.2451 -0.0826
23840W        W39649  11.032  16.249  11.739  0.0851  0.2523  0.1540
23841W        W39650   5.476  14.018  10.523  0.2857 -0.4049 -0.2942
23842W        W39651  14.441   4.444   3.728 -0.0702 -0.2156  0.0717
23843W        W39652   4.173  10.533  11.154 -0.0190  0.1475  0.4192
23844W        W39653  14.021   6.616  11.449  0.2596  0.0548  0.1812
23845W        W39654   3.025  11.947   4.306 -0.2448 -0.1857  0.1905
23846W        W39655  13.408   5.958  13.766 -0.2293 -0.0052 -0.2617
23847W        W39656  13.640   2.645  11.048  0.1642 -0.1929  0.1766
23848W        W39657   0.611  11.690  10.685  0.0961 -0.1368  0.3084
23849W        W39658  15.641   7.319   2.656  0.0425  0.0454 -0.2563
23850W        W39659   7.036  17.580  10.972 -0.0044  0.1390 -0.1626
23851W        W39660   2.416  14.106   2.812 -0.0930  0.1151 -0.1595
23852W        W39661   2.503   8.429  15.424 -0.4573  0.2345  0.0450
23853W        W39662  12.044  15.225  15.317  0.1457 -0.1918 -0.1561
23854W        W39663  18.069   0.985   3.891 -0.0755  0.3714  0.0660
23855W        W39664  16.871   1.774  11.707 -0.1373 -0.2628 -0.0740
23856W        W39665   4.887  10.775  11.360 -0.1123 -0.1223  0.0995
23857W        W39666   9.094  14.559  10.853  0.2658  0.1174  0.1933
23858W        W39667   3.306   4.444  12.634  0.0648 -0.0333 -0.1144
23859W        W39668  11.639   8.059   1.137  0.1689  0.0801  0.0726
23860W        W39669   0.114  11.191   1.435 -0.1682 -0.2934  0.0043
23861W        W39670  15.692   8.923  10.826  0.4751 -0.0623 -0.1169
23862W        W39671   1.080  12.330   2.197  0.1162 -0.0215 -0.3146
23863W        W39672  11.631   5.998  13.310  0.0692 -0.0280  0.2649
23864W        W39673  11.624  11.347  15.256 -0.2018  0.4517 -0.0566
23865W        W39674   0.461   2.426  10.591 -0.3496 -0.0148 -0.0172
23866W        W39675   3.854   8.405   4.882 -0.0767  0.1922  0.0625
23867W        W39676   0.390  16.769   2.019  0.1516  0.0731  0.2067
23868W        W39677   1.637   0.159  11.258 -0.3690 -0.1157 -0.0585
23869W        W39678   9.217  10.486   2.782 -0.3528  0.1023 -0.0722
23870W        W39679   0.423   5.702   5.627  0.0112 -0.3533  0.0883
23871W        W39680   3.746  13.040   1.751  0.0303 -0.0562 -0.2170
23872W        W39681  18.746   0.216  13.434  0.0488  0.0971  0.0406
23873W        W39682  12.516   5.623   0.833 -0.2579 -0.3174  0.3025
23874W        W39683   2.000  11.259   0.097  0.0998 -0.0211 -0.1623
23875W        W39684   2.846  10.120   3.914  0.1242  0.0552 -0.2693
23876W        W39685  13.508   7.843  12.253 -0.1007  0.2074 -0.1431
23877W        W39686  12.611  18.667   4.848  0.1655  0.2133 -0.3496
23878W        W39687   2.497  12.857  14.788 -0.0515  0.0295  0.0337
23879W        W39688  14.482  13.871  12.567  0.0186 -0.1125 -0.0174
23880W        W39689   2.900   1.229  10.721  0.1322 -0.1073 -0.0886
23881W        W39690  13.221   3.953   0.993 -0.2207 -0.2944 -0.1979
23882W        W39691   2.604  18.310   0.099 -0.0347  0.1468 -0.0382
23883W        W39692  10.340   8.045  12.996  0.0663  0.3582  0.0314
23884W        W39693  15.253   9.614   2.818  0.1876 -0.2141 -0.0083
23885W        W39694   3.528  12.384  13.430  0.2972 -0.1719  0.2380
23886W        W39695   5.082   5.957   1.464 -0.0183 -0.0588 -0.1399
23887W        W39696  11.516  11.434   0.358 -0.0919  0.1440  0.3891
23888W        W39697  17.742  12.421   1.891  0.2054  0.2560  0.2820
23889W        W39698   5.153   4.211  13.150 -0.1217  0.1400 -0.2986
23890W        W39699   5.889   8.158  12.615  0.1348 -0.3359  0.2339
23891W        W39700   2.752   4.144   5.097 -0.1395 -0.0561  0.1196
23892W        W39701   8.475   4.433  12.677  0.3804 -0.3222  0.0194
23893W        W39702   8.972   3.645   4.807 -0.1496 -0.0482  0.0508
23894W        W39703   9.465  10.577   2.381 -0.2270  0.1538  0.0633
23895W        W39704  11.867   2.235   0.484  0.1534 -0.0292 -0.0234
23896W        W39705  12.048   1.695   1.006 -0.1635 -0.0209  0.0817
23897W        W39706   1.875   5.222   5.574  0.1738  0.0851  0.1108
23898W        W39707  15.107   7.267   4.335 -0.1820 -0.1396 -0.3083
23899W        W39708  12.125   7.505   1.801 -0.3044 -0.1044  0.1126
23900W        W39709   2.324  15.854   3.451  0.3293 -0.1855 -0.0467
23901W        W39710  11.492  13.862   4.863  0.0608 -0.0286  0.1505
23902W        W39711  18.482   1.505   4.520 -0.0820 -0.0725  0.1604
23903W        W39712   0.545  11.495   4.872 -0.0005  0.2357 -0.1952
23904W        W39713   9.544   6.606  12.545 -0.0560 -0.0585 -0.3126
23905W        W39714   0.693  17.623  12.464 -0.1695  0.1393  0.2021
23906W        W39715   3.464  12.224   2.285 -0.1736  0.3448  0.0400
23907W        W39716   5.979  11.498  12.026  0.0057 -0.1469  0.0249
23908W        W39717  11.034   5.519  12.240 -0.1052  0.2484 -0.0204
23909W        W39718   3.147  14.729   0.176  0.0702  0.4579  0.2125
23910W        W39719  12.525  11.966  13.092  0.2503  0.1866  0.0264
23911W        W39720   3.779   3.097   3.452  0.0362 -0.0817 -0.1493
23912W        W39721  14.632   5.683  10.561  0.0333  0.0332 -0.0521
23913W        W39722  17.438   3.141  11.293  0.0044  0.3503  0.2171
23914W        W39723   3.484   2.556   0.614 -0.2455 -0.1757  0.0062
23915W        W39724  15.281   0.611  10.196  0.2608  0.2549  0.2864
23916W        W39725   8.539  15.485  11.392 -0.1754  0.1057  0.0743
23917W        W39726   8.357   1.631  15.420 -0.0046  0.0269 -0.0320
23918W        W39727  16.122   5.347   1.558 -0.1240 -0.1684  0.0103
23919W        W39728   2.204   6.540   5.040  0.1093 -0.0192 -0.0220
23920W        W39729  13.532   9.931   6.009 -0.2678  0.2776 -0.1386
23921W        W39730  14.943   2.104   2.697  0.6627 -0.2493 -0.1489
23922W        W39731  18.791  11.609  12.926 -0.1514 -0.0713 -0.2566
23923W        W39732  10.466   5.217  11.434  0.1776  0.0701  0.1518
23924W        W39733  17.926   9.830  10.742  0.0181 -0.3648  0.1005
23925W        W39734  17.520   7.060  12.724  0.0756  0.0382 -0.0355
23926W        W39735  10.351   6.319  13.925  0.1937 -0.1818  0.1949
23927W        W39736  16.365  18.340  14.652  0.0049 -0.1038  0.1081
23928W        W39737   3.797  10.350  12.943 -0.3709  0.0213  0.0070
23929W        W39738  10.639  14.338   0.183 -0.0088  0.2893 -0.1730
23930W        W39739   4.024  18.026  12.017  0.0808 -0.0031 -0.5293
23931W        W39740  11.302  12.122  10.698 -0.0071 -0.0995 -0.1017
23932W        W39741  11.823  13.760   4.468 -0.0034  0.0872 -0.2561
23933W        W39742   8.311  10.958  12.246  0.3068  0.0651  0.0550
23934W        W39743  16.429   1.229   0.257  0.0072 -0.2074 -0.1154
23935W        W39744   2.795   4.959  13.216 -0.0277 -0.2217 -0.2807
23936W        W39745  15.069   1.372  14.327  0.1010 -0.0200 -0.1082
23937W        W39746   3.116  16.562  11.284  0.2611  0.0509 -0.1245
23938W        W39747   3.616   5.773   4.649  0.1828  0.1253  0.2854
23939W        W39748  11.718   2.546  10.652 -0.0840  0.3345  0.0175
23940W        W39749  12.371  12.135   2.824  0.2193 -0.1715  0.3252
23941W        W39750  15.648  10.417   5.895 -0.2332 -0.2564  0.0882
23942W        W39751   9.395  13.217   5.445 -0.0608  0.0005 -0.1568
23943W        W39752   4.329   0.755  12.153 -0.0803  0.0178  0.0766
23944W        W39753   1.163   3.162   2.415 -0.0198  0.1583  0.1461
23945W        W39754  16.109  12.843   1.468 -0.1287 -0.0556  0.2166
23946W        W39755   4.050   8.140   5.348  0.2812  0.0353 -0.2048
23947W        W39756  18.541   2.816   1.840  0.0074 -0.1624  0.2169
23948W        W39757   4.435  18.857  15.256 -0.1033 -0.1102 -0.1536
23949W        W39758  16.443   0.002   2.279 -0.1412  0.0822  0.3874
23950W        W39759  17.021   7.638   5.519 -0.0073 -0.0713  0.2225
23951W        W39760   5.984  17.087   3.195  0.3266 -0.0410  0.0265
23952W        W39761   5.661   0.690  15.332  0.0814  0.1169 -0.0341
23953W        W39762   5.016   3.906   3.349 -0.0669 -0.0966 -0.4103
23954W        W39763   0.088  15.381  14.931 -0.1676  0.1666 -0.1675
23955W        W39764  17.715   9.777   4.935  0.0094  0.0558  0.0155
23956W        W39765   9.781  18.740   4.515  0.2802 -0.0298 -0.1629
23957W        W39766   8.593  14.404   5.216 -0.0274 -0.1460 -0.1599
23958W        W39767   0.292   9.970   5.351  0.4092  0.2241 -0.0898
23959W        W39768  17.558   4.478  15.219  0.1852 -0.1083 -0.2004
23960W        W39769  12.930   6.800  11.531  0.0550 -0.0456  0.3601
23961W        W39770  13.578   8.186   4.568  0.2482 -0.0209  0.0680
23962W        W39771   6.929  15.317  13.995  0.2006  0.0101  0.0144
23963W        W39772   3.344  12.159  11.523 -0.0123  0.2401  0.0292
23964W        W39773   1.259  15.239   1.842 -0.2248 -0.0048  0.1287
23965W        W39774   3.435  18.884   5.422  0.0734 -0.0651 -0.1322
23966W        W39775  12.899   1.376   2.095 -0.0627 -0.1750  0.0915
23967W        W39776   1.250   3.072  10.811 -0.1656 -0.0209  0.3277
23968W        W39777   0.046  11.638   3.874  0.1863 -0.3708 -0.1071
23969W        W39778   6.629  13.653   1.075  0.1759  0.1837  0.0453
23970W        W39779  17.731   0.047  13.058 -0.2792  0.2017  0.0777
23971W        W39780  17.351   2.136  14.807 -0.2070  0.0744 -0.0693
23972W        W39781  16.241  11.282  11.126 -0.1040  0.1272 -0.1998
23973W        W39782  14.801   1.588  12.952  0.0194  0.2267  0.2252
23974W        W39783  13.799   6.172  14.308  0.1499 -0.1857  0.0952
23975W        W39784  12.732   9.932   4.676  0.2166  0.1154  0.3029
23976W        W39785   4.402  15.709  10.908  0.1091 -0.2648  0.1593
23977W        W39786  14.639  18.479   3.206  0.0538  0.1022 -0.0328
23978W        W39787   3.489  12.179  10.617 -0.0187 -0.0768 -0.2179
23979W        W39788   2.731  16.166   3.202 -0.0322  0.2957  0.0517
23980W        W39789   2.649   7.128  14.711 -0.0855 -0.0488 -0.0586
23981W        W39790   2.684  12.873  11.017  0.3666  0.0837 -0.1450
23982W        W39791  10.402  11.449   4.719 -0.0204  0.1898  0.1065
23983W        W39792   9.643   4.872   4.604 -0.1410  0.2560  0.2251
23984W        W39793   5.287  18.260  14.924 -0.0557 -0.2456 -0.1452
23985W        W39794  10.589  15.461  14.985 -0.2413  0.0169  0.0937
23986W        W39795  12.540  10.600   2.778  0.0106  0.4004 -0.2251
23987W        W39796  11.788  17.288   2.100 -0.0013  0.1773  0.0487
23988W        W39797  16.672  17.271  14.345 -0.2298  0.5675 -0.4156
23989W        W39798   1.914   2.369   1.474 -0.0227  0.1456  0.2692
23990W        W39799   9.491  16.150  11.069  0.1774  0.0981  0.0001
23991W        W39800   8.469   0.749   0.558 -0.1581  0.2489  0.2975
23992W        W39801  13.674  18.137  10.690  0.1146 -0.1353 -0.1078
23993W        W39802  15.660  10.533   2.451  0.0414 -0.2566 -0.1707
23994W        W39803  12.532   5.655  13.132 -0.3181 -0.3019  0.2691
23995W        W39804   8.363   5.448   2.432 -0.1144 -0.2201  0.2479
23996W        W39805  15.222  11.352  12.921 -0.2546 -0.0586  0.0636
23997W        W39806   5.447  14.969   2.966 -0.0031  0.2868  0.0390
23998W        W39807  12.256  15.897  11.739 -0.2366 -0.0360 -0.1658
23999W        W39808   4.538   8.143   1.831  0.2296 -0.0143 -0.3000
24000W        W39809  12.254  17.371   1.345 -0.0117  0.1017 -0.1842
24001W        W39810  17.924   1.214   2.982 -0.1535  0.1436 -0.0300
24002W        W39811   0.948  13.621  12.249 -0.1733  0.1415 -0.0922
24003W        W39812   0.483   1.198   2.927  0.0398 -0.1150  0.2688
24004W        W39813  16.813  16.167   5.267  0.3508 -0.0356  0.2300
24005W        W39814   0.162  17.956   1.029  0.1479  0.1257  0.2732
24006W        W39815  18.738   6.997   4.179 -0.0178 -0.2686 -0.0287
24007W        W39816   8.103   1.835   3.597 -0.5207 -0.4494 -0.0477
24008W        W39817   7.084   2.671  15.131  0.0036 -0.1738  0.0553
24009W        W39818  13.647   6.920   1.275  0.1037 -0.0192 -0.1112
24010W        W39819  15.841   1.310  12.446 -0.0226 -0.1923  0.3244
24011W        W39820  15.592  17.816  10.777  0.0734 -0.1555  0.0066
24012W        W39821   4.843   8.278   9.621 -0.0935  0.5382 -0.2095
24013W        W39822   3.452  11.264  11.666  0.0379 -0.3568 -0.4240
24014W        W39823   2.829   7.156  11.678  0.0069 -0.1717  0.4438
24015W        W39824   4.573   0.144  13.741 -0.3328 -0.4612  0.0526
24016W        W39825  10.698   7.236  13.157  0.1358  0.1041 -0.2247
24017W        W39826   9.805   4.497  14.577 -0.2789  0.1322 -0.2433
24018W        W39827   9.942  16.517  14.568 -0.1161  0.0802  0.0512
24019W        W39828   0.188   6.311   1.829 -0.0994  0.0292  0.0917
24020W        W39829  18.264   1.363  13.111  0.0432 -0.0318 -0.1677
24021W        W39830  10.018  15.138  15.426 -0.2277  0.2453  0.1161
24022W        W39831  10.803   7.628  10.620  0.2176 -0.0461 -0.2466
24023W        W39832  13.672   7.142   4.321 -0.1490 -0.2036  0.1539
24024W        W39833   5.437   4.684   4.629  0.0152  0.0229 -0.3154
24025W        W39834  15.885   7.494   4.880  0.0096  0.0008  0.0297
24026W        W39835  10.987  12.527   3.320  0.2065  0.0572 -0.1723
24027W        W39836  15.604  13.930   5.304 -0.1945 -0.0637  0.1368
24028W        W39837  10.053  12.813   0.798 -0.0077 -0.2444  0.1722
24029W        W39838  15.039   0.321   4.324  0.1204  0.0606 -0.1148
24030W        W39839  16.229   0.520  14.604 -0.1449  0.0788  0.0177
24031W        W39840  16.182   1.947  12.414  0.4239 -0.3827  0.0821
24032W        W39841   2.161  16.413   2.586 -0.1207 -0.4244  0.1651
24033W        W39842   6.665   9.574   2.292 -0.0252 -0.1801  0.4570
24034W        W39843  13.510  14.702   0.429  0.1988 -0.0396  0.1063
24035W        W39844  13.742   6.455   5.926  0.1402  0.2337  0.0055
24036W        W39845  10.811  14.909  13.999  0.1677 -0.3193 -0.3624
24037W        W39846  16.834   7.823   0.491 -0.0626  0.0206 -0.2840
24038W        W39847  10.092   4.079  12.166  0.1838  0.2196  0.0727
24039W        W39848   8.555   1.055   1.828 -0.0814  0.1940  0.0629
24040W        W39849  12.577  12.580   5.026  0.1652  0.1393  0.2011
24041W        W39850   8.868  10.846   2.585 -0.0659  0.3116 -0.0344
24042W        W39851  13.817   6.727  12.872 -0.2207  0.2194  0.3707
24043W        W39852   5.130   3.696   2.927  0.1847 -0.1173  0.3258
24044W        W39853   9.177   6.290   3.383  0.1061  0.3501  0.2722
24045W        W39854   7.509   1.517  15.068 -0.1928  0.0719 -0.5261
24046W        W39855   2.909   3.158   2.077 -0.1314 -0.1441 -0.0574
24047W        W39856  10.939   6.949   1.196 -0.0512  0.0253 -0.4555
24048W        W39857   5.515   5.817   1.868 -0.0973  0.0193  0.0104
24049W        W39858  16.219   4.609  15.022 -0.0533 -0.0535 -0.2300
24050W        W39859   4.695  18.333   0.778  0.2104  0.1546 -0.0058
24051W        W39860  10.313  15.898  15.007 -0.1009  0.1822 -0.2647
24052W        W39861  14.616  13.840   4.537  0.3585  0.4167  0.0765
24053W        W39862   3.774   0.296  14.438 -0.0454 -0.0647 -0.1202
24054W        W39863   0.057  17.241  14.208  0.3874 -0.2525  0.3046
24055W        W39864   4.453  11.419   2.627  0.3154  0.2274 -0.0435
24056W        W39865  16.347   6.685  12.952 -0.0506 -0.0913 -0.1913
24057W        W39866   0.576  17.392  13.095  0.2580 -0.2099  0.0576
24058W        W39867  16.953   3.916  11.980 -0.1973 -0.0777  0.0449
24059W        W39868  10.494   3.179  11.224  0.1724 -0.1882  0.3174
24060W        W39869   4.396   6.763  14.221  0.0393  0.0569  0.1979
24061W        W39870  15.171   8.255   4.650 -0.0415 -0.0406 -0.3046
24062W        W39871   6.369   1.444  15.220 -0.0823  0.2150  0.0023
24063W        W39872  12.757  14.409  15.025  0.2063  0.2751  0.3098
24064W        W39873  11.500   7.918  15.382 -0.2606 -0.0794 -0.1214
24065W        W39874   3.061   3.425  11.560  0.0611  0.0292  0.0293
24066W        W39875   7.411  15.922   3.455 -0.0806 -0.0383 -0.0980
24067W        W39876  11.726  10.773   4.952  0.2107 -0.4056 -0.1575
24068W        W39877   3.200  10.205   0.538  0.1107 -0.0478 -0.3426
24069W        W39878   6.355  12.504   2.375 -0.1195 -0.1660  0.0480
24070W        W39879   1.630  11.434  10.795  0.0509 -0.0966  0.0124
24071W        W39880   6.184  10.459   1.852  0.1609  0.2148  0.2038
24072W        W39881   0.895   8.340   2.333 -0.1345 -0.2273  0.0209
24073W        W39882  12.163  15.621  14.011  0.1495  0.1751  0.1768
24074W        W39883   8.638   9.573   1.972 -0.1496 -0.0331 -0.0841
24075W        W39884   7.951   4.762  14.086 -0.3078 -0.1937 -0.0798
24076W        W39885   6.104   2.879  11.226 -0.0798 -0.0522  0.2095
24077W        W39886   5.121  11.079   2.431  0.3071  0.2074  0.1532
24078W        W39887  13.367   3.321  14.219 -0.1580 -0.1546  0.1212
24079W        W39888  15.745   8.121  11.348 -0.1540  0.2411  0.3466
24080W        W39889   7.930   8.731   4.472 -0.1743 -0.0688 -0.1182
24081W        W39890   1.419   8.819   5.257  0.0780  0.0543 -0.3030
24082W        W39891   9.207   1.002   0.136  0.0318  0.1201 -0.0242
24083W        W39892   3.277   3.259   1.701 -0.1599 -0.0547  0.4302
24084W        W39893   6.058   2.561  14.251 -0.1571 -0.0327 -0.0088
24085W        W39894   3.857  17.234   1.162 -0.3510  0.2904  0.2207
24086W        W39895   9.253  15.181   2.805 -0.0427  0.2161 -0.1269
24087W        W39896  13.189   0.123   0.175  0.1351  0.0621 -0.0178
24088W        W39897   4.307  16.234  11.013 -0.0922 -0.1152  0.2564
24089W        W39898  14.129   3.817   3.840  0.3334 -0.1663 -0.0403
24090W        W39899   4.826  17.768  14.070  0.0670 -0.0823  0.0638
24091W        W39900  13.153   4.935   0.946 -0.1596 -0.1301  0.0784
24092W        W39901  11.675  10.780   1.118  0.0947 -0.3157  0.0659
24093W        W39902   7.986   2.339  14.831 -0.2895 -0.0312 -0.0086
24094W        W39903  11.913   8.429  12.277 -0.0451  0.3381 -0.0824
24095W        W39904   6.032   2.362  11.516 -0.1310 -0.0132  0.0535
24096W        W39905   9.915  10.487   0.774  0.2268 -0.1867 -0.0585
24097W        W39906  13.218  13.067  14.004  0.1562  0.0641  0.0041
24098W        W39907  10.885  16.804  12.300  0.2343  0.1305 -0.0220
24099W        W39908  17.610  10.653  13.557  0.0132  0.3983 -0.3435
24100W        W39909  10.988   0.299   5.208 -0.1922 -0.2557  0.0071
24101W        W39910   7.272   3.056  11.549  0.0403  0.0156 -0.0859
24102W        W39911  10.835   3.146   1.333 -0.3193  0.0852  0.1473
24103W        W39912  11.215  13.488  11.257 -0.0624 -0.1542  0.2140
24104W        W39913   9.660   0.420   2.838  0.3808  0.1003 -0.0131
24105W        W39914   0.884   7.481   4.014 -0.1498  0.3612 -0.3038
24106W        W39915   3.365  15.259   1.794  0.2331  0.0439 -0.0321
24107W        W39916  10.077   9.627   0.880  0.1452 -0.2471  0.0646
24108W        W39917   8.930   4.630  14.629  0.1337  0.0853  0.1419
24109W        W39918   2.473  16.818   5.243 -0.2910  0.2371  0.1241
24110W        W39919   9.131   8.162   0.768 -0.4151 -0.1661 -0.0688
24111W        W39920   9.720  12.281  12.483  0.2814 -0.0738  0.1540
24112W        W39921  12.659   3.332   0.101  0.1482  0.2001  0.1645
24113W        W39922   3.832  18.187   4.858 -0.3495 -0.2512  0.0921
24114W        W39923   6.160   4.803   0.060  0.2945 -0.3118  0.0741
24115W        W39924   0.487   4.509   1.181 -0.1284 -0.1807 -0.0368
24116W        W39925  12.010   3.826   1.253  0.4475  0.0667 -0.1401
24117W        W39926   7.076   5.718   1.968  0.0658 -0.1534  0.0445
24118W        W39927   8.818   1.071  14.214 -0.2299  0.0833  0.0086
24119W        W39928   2.085  11.539  13.714 -0.2385  0.1084  0.1224
24120W        W39929  10.653   7.616   1.799  0.2543  0.1732  0.0228
24121W        W39930   3.834   1.551  15.218 -0.0081  0.0071 -0.0457
24122W        W39931   4.027   0.202  14.014  0.0553  0.0667  0.3913
24123W        W39932   6.207   2.972   0.646  0.0109  0.2853  0.1278
24124W        W39933  16.437   8.122   2.570  0.3665  0.1370  0.0917
24125W        W39934   2.401   2.418  10.876 -0.0629 -0.3271 -0.2092
24126W        W39935   6.511   8.391  11.461 -0.1749  0.0576  0.2822
24127W        W39936   6.480  11.187  14.005  0.0745  0.0417 -0.1220
24128W        W39937  14.714  17.040   0.553 -0.1712 -0.1133  0.2723
24129W        W39938   3.010  18.085  12.552  0.0565  0.1186 -0.3421
24130W        W39939   4.591  12.341  13.996  0.1237  0.0425  0.1698
24131W        W39940  18.069  11.502  13.734 -0.5612 -0.3463  0.0846
24132W        W39941  17.836   7.408   4.702 -0.0287  0.0802 -0.0999
24133W        W39942  14.311   3.805  11.718  0.0635  0.2949  0.0691
24134W        W39943   9.220   7.482   0.328  0.0104  0.0518 -0.2573
24135W        W39944  15.656  11.546   2.369  0.0184 -0.0843 -0.0393
24136W        W39945  12.798   7.813  14.871  0.2365  0.2713 -0.0049
24137W        W39946  15.320   3.471   2.795  0.0446 -0.0504  0.1426
24138W        W39947   3.903   2.718   4.422  0.1196 -0.2929 -0.3018
24139W        W39948  12.536  17.981  12.397 -0.0013  0.1949  0.1596
24140W        W39949   7.263   0.126   0.475 -0.1870  0.1366 -0.0879
24141W        W39950  11.363   7.083   3.986 -0.1141  0.0679  0.2171
24142W        W39951   2.922   6.552   3.848 -0.1597  0.2167 -0.1074
24143W        W39952   6.641  12.921  14.273  0.1171 -0.1464 -0.0080
24144W        W39953  14.941  16.659   0.207 -0.0134 -0.0954 -0.0201
24145W        W39954   6.613   1.017  15.298 -0.2490 -0.2878 -0.0788
24146W        W39955   5.576   2.524  12.606  0.6455  0.0311  0.1538
24147W        W39956   9.496   7.730   5.373 -0.0353  0.2083 -0.1438
24148W        W39957   6.976  14.543   4.567  0.2887  0.0085  0.0692
24149W        W39958   1.426  16.121  14.498 -0.2627  0.0484 -0.1322
24150W        W39959   8.449  16.102   2.395 -0.0792 -0.4550  0.0183
24151W        W39960   8.512   4.791   0.278  0.1847  0.0293 -0.1472
24152W        W39961   2.800  14.434   1.995 -0.2016 -0.2062 -0.1011
24153W        W39962   0.772  11.373   2.985  0.1861 -0.1038 -0.0458
24154W        W39963  13.470   9.717   2.196 -0.1024  0.2212 -0.1834
24155W        W39964   3.495  10.413  15.353 -0.2075 -0.0941  0.0168
24156W        W39965   1.899  18.219  12.374  0.2937 -0.1219 -0.1965
24157W        W39966   5.910  10.296  12.476 -0.1888 -0.1681  0.3962
24158W        W39967  18.856  17.097  11.894  0.0243 -0.1722  0.0975
24159W        W39968  12.653   1.954  13.698 -0.0142  0.1048 -0.1416
24160W        W39969   6.184  17.294  13.002  0.0434  0.0765 -0.0794
24161W        W39970   3.525   9.318   3.409 -0.0879 -0.2577 -0.5216
24162W        W39971   1.129   7.470   1.122  0.1039  0.0386 -0.0342
24163W        W39972  17.739   0.651   2.190 -0.0278  0.2462 -0.1666
24164W        W39973  17.306  18.463  11.131 -0.1449  0.4275 -0.1992
24165W        W39974   9.063  13.614  13.403  0.0836  0.1431 -0.1580
24166W        W39975   1.214   5.839  15.349 -0.2358  0.2546  0.3146
24167W        W39976  11.323   4.508   5.241  0.0042 -0.0073  0.2768
24168W        W39977   9.897   7.854  12.714 -0.0550 -0.1843  0.1820
24169W        W39978   9.138   3.680  10.674  0.0491 -0.0674 -0.2902
24170W        W39979   7.886  10.824   5.550 -0.1511  0.2552 -0.2851
24171W        W39980  16.965   1.774   5.442  0.2481  0.3652  0.2293
24172W        W39981   7.205  13.020  12.324  0.1553 -0.2674 -0.0130
24173W        W39982  13.150  12.013   3.393  0.2001 -0.0808  0.0293
24174W        W39983  15.838   4.265   1.808  0.1779  0.1740  0.1326
24175W        W39984  13.231  13.277   1.598 -0.0268  0.0063 -0.1242
24176W        W39985   6.475   9.919  15.075 -0.1519  0.2437 -0.1991
24177W        W39986   6.202   2.910   2.480 -0.2812 -0.0749  0.2007
24178W        W39987   3.133   1.885  14.357  0.0480 -0.2780 -0.1065
24179W        W39988  17.304  15.843   3.767  0.0239 -0.2469  0.2301
24180W        W39989  13.848   1.759   4.426  0.1443 -0.3559  0.1290
24181W        W39990   1.680   3.872   3.474 -0.1715 -0.3311  0.1704
24182W        W39991  13.353   1.511   2.782 -0.1606  0.0877  0.3054
24183W        W39992   1.657   4.558   0.536  0.2866 -0.2595 -0.3117
24184W        W39993  11.448   6.366   1.711 -0.1401  0.0907 -0.0451
24185W        W39994  17.500   6.567  11.771 -0.0269 -0.0011  0.2169
24186W        W39995   3.324  12.660   9.442 -0.1267 -0.1192  0.3537
24187W        W39996  11.430   8.570   4.326 -0.4962  0.1355  0.3235
24188W        W39997   3.594  10.035   9.577 -0.1033 -0.0748  0.0725
24189W        W39998  14.856   0.861   2.878  0.1992 -0.0112  0.1457
24190W        W39999  11.988   5.599   2.187 -0.0419  0.2316  0.5469
24191W        W40000  13.085  12.395   2.181  0.0628  0.1206 -0.1054
24192W        W40001  15.908   1.402   0.798  0.0715 -0.1302 -0.1690
24193W        W40002   8.065   5.090  12.148  0.1164 -0.3582 -0.4056
24194W        W40003   1.456  13.007   1.141  0.1906 -0.3888 -0.1677
24195W        W40004  18.670   8.053   2.783  0.0688 -0.3406 -0.3290
24196W        W40005   2.411   6.999   3.137 -0.0445 -0.0412 -0.0539
24197W        W40006   1.616  10.457   5.409 -0.0201  0.0013  0.2082
24198W        W40007  10.576   0.413   4.558  0.1810  0.2080 -0.0480
24199W        W40008   6.060  11.210  11.014 -0.0495  0.2019 -0.2398
24200W        W40009   1.147   5.740   1.864 -0.2708  0.1513 -0.4459
24201W        W40010   2.704   6.186   1.600  0.1033 -0.0471 -0.1054
24202W        W40011   5.638  14.422   5.355 -0.0452 -0.2316  0.2023
24203W        W40012   8.750  11.014  10.829 -0.1834  0.1251 -0.1733
24204W        W40013   8.772  10.772  12.575 -0.3406  0.2996  0.0283
24205W        W40014   1.920  11.952  10.249  0.3326 -0.0692  0.1222
24206W        W40015  12.092   0.923  12.925 -0.3712  0.1725  0.1857
24207W        W40016  11.527   9.726   3.798 -0.0477 -0.0529 -0.1664
24208W        W40017  13.061   0.329  14.005  0.1819 -0.2253  0.0684
24209W        W40018   0.043  10.104  15.179 -0.0816 -0.1789 -0.0940
24210W        W40019   9.488   5.661   4.424  0.1392 -0.2793 -0.1231
24211W        W40020   6.412  18.846  10.404 -0.1418  0.0160 -0.1460
24212W        W40021  13.964  12.277   5.229 -0.1333 -0.0330 -0.0528
24213W        W40022  10.264   0.846   1.233 -0.1975  0.2284 -0.0213
24214W        W40023   5.561   5.027   0.643  0.1849  0.0346 -0.0610
24215W        W40024   6.756   8.619  10.613  0.1161  0.0179 -0.0984
24216W        W40025   1.032   5.211   1.118  0.0937  0.0446  0.0303
24217W        W40026   8.461   2.538  15.433 -0.4525 -0.0158  0.0284
24218W        W40027  17.419   6.892   2.079  0.0728  0.0493  0.1525
24219W        W40028   0.556   1.282   0.216 -0.0834  0.2980  0.1282
24220W        W40029   5.462   3.024   4.941  0.2679 -0.0636 -0.3724
24221W        W40030   3.328  11.590   3.470 -0.1936  0.1942  0.1545
24222W        W40031   3.782   4.335  14.237 -0.3631  0.1386 -0.0883
24223W        W40032   2.446  14.510  13.813  0.3069 -0.2797  0.1645
24224W        W40033   8.288   2.632   0.543  0.5730  0.0257  0.0120
24225W        W40034   0.531   7.449   4.870 -0.0189 -0.1322 -0.0006
24226W        W40035  11.514  13.317  13.995  0.1176  0.1030 -0.1973
24227W        W40036  18.400   9.974  13.591 -0.0809  0.3973 -0.1248
24228W        W40037  12.034  17.856  14.508  0.2079  0.1906 -0.2743
24229W        W40038  13.507   2.190  12.601  0.0886  0.0123 -0.2070
24230W        W40039  11.886  14.090  14.142 -0.2984 -0.3175 -0.0321
24231W        W40040  12.157   3.140   0.004  0.2963  0.1088 -0.1883
24232W        W40041   7.875  14.090   4.547 -0.4331  0.1323 -0.2632
24233W        W40042  18.851   3.372   4.253 -0.2181  0.1658  0.1342
24234W        W40043   8.045  17.688  13.642 -0.2009 -0.1464  0.2453
24235W        W40044   8.491   6.868   3.935 -0.2295 -0.0643 -0.0554
24236W        W40045  17.071  15.895   4.226 -0.0636 -0.2874 -0.1942
24237W        W40046   3.192  15.201  10.283  0.1469  0.0220  0.1092
24238W        W40047  14.423   2.758  12.445 -0.0722 -0.2291  0.4672
24239W        W40048   4.261   8.198  11.254 -0.2149 -0.0836 -0.2170
24240W        W40049   7.767  10.507  14.428  0.1464  0.0625  0.2741
24241W        W40050   1.270  16.190   1.166 -0.0297 -0.0620  0.2980
24242W        W40051  14.815  15.729   1.130 -0.1002  0.1450 -0.1070
24243W        W40052   1.800  16.472   3.005 -0.1845  0.1575 -0.0385
24244W        W40053  17.222   1.648  14.879 -0.1170  0.1517 -0.1152
24245W        W40054   9.605   8.134  10.786  0.0753  0.0070 -0.0412
24246W        W40055   9.273  16.447   5.950 -0.2323  0.3451  0.2065
24247W        W40056   3.816  13.022   0.377  0.1593 -0.0849  0.3629
24248W        W40057  18.291  17.104   4.763  0.3482 -0.2147 -0.1904
24249W        W40058   3.243   3.926  11.416 -0.2820  0.0976 -0.2037
24250W        W40059   9.484  14.331  14.030  0.0202 -0.0228  0.1932
24251W        W40060  17.719  18.124  13.176  0.0560 -0.0409  0.2236
24252W        W40061  16.464   4.548  12.717  0.1389 -0.0297  0.0950
24253W        W40062   7.007  18.716   0.063  0.1039 -0.0200  0.0341
24254W        W40063  17.184  17.204  14.424  0.1861 -0.3756  0.1649
24255W        W40064   9.627  15.474  11.327  0.1469 -0.0888 -0.2863
24256W        W40065   9.454  17.009  12.312  0.0675  0.0353  0.3487
24257W        W40066   1.946  13.237  14.394  0.1010 -0.2278 -0.0143
24258W        W40067   7.863   0.269   0.066  0.2680 -0.0830 -0.1143
24259W        W40068  16.489   7.598  13.789 -0.0522  0.1961  0.1477
24260W        W40069   2.437   8.744   3.783 -0.0478  0.1901  0.0636
24261W        W40070  10.198   3.831   0.894  0.3984  0.1345  0.0063
24262W        W40071   0.938  12.366   3.260  0.0533  0.3496  0.2226
24263W        W40072   9.097   7.938   2.121  0.0359  0.1213 -0.1963
24264W        W40073   6.559   3.615  10.630 -0.3072  0.0317 -0.2701
24265W        W40074   9.956   6.182  14.228 -0.0276  0.0537 -0.0044
24266W        W40075   8.797  17.281  11.488  0.0436 -0.0097  0.1164
24267W        W40076  12.068   0.270   3.720  0.1352 -0.2163  0.2538
24268W        W40077   8.465   8.788  14.914  0.2379 -0.2101  0.1898
24269W        W40078  17.852  10.398  14.647 -0.2662  0.1720 -0.1652
24270W        W40079   8.569   2.439   4.214  0.0068 -0.1021 -0.0350
24271W        W40080  15.923  10.325  12.528 -0.2424  0.3258  0.1488
24272W        W40081  14.253  11.382  13.211 -0.2277 -0.1230  0.2338
24273W        W40082   1.585   5.291   4.545 -0.0805 -0.0238  0.1470
24274W        W40083   3.359  12.567  14.289  0.1674 -0.1798  0.0326
24275W        W40084   6.075  15.990   2.333 -0.1764 -0.2776 -0.1839
24276W        W40085   6.869   1.370  13.133 -0.1325 -0.0943 -0.1448
24277W        W40086  14.188   0.637   4.694  0.0979  0.1771  0.1186
24278W        W40087   5.499   3.774  11.246 -0.2693 -0.0024 -0.2342
24279W        W40088   1.615  13.943  13.356  0.2096 -0.3090 -0.2226
24280W        W40089  18.642   6.470  15.431 -0.0067 -0.0175  0.1086
24281W        W40090  13.753  11.320   9.765  0.1572  0.0057 -0.0561
24282W        W40091   3.401  14.158   2.292  0.2011 -0.1088 -0.1462
24283W        W40092   8.784  18.032   2.093 -0.1964 -0.0238 -0.0470
24284W        W40093   8.137   4.528   1.492 -0.1052  0.1166 -0.0483
24285W        W40094  17.637  12.970   1.073  0.4042  0.0706 -0.0439
24286W        W40095   9.950  17.924   0.196  0.0425  0.0012  0.1585
24287W        W40096   2.506  17.168   3.074  0.0567  0.2661 -0.0423
24288W        W40097  17.772   8.429  13.421 -0.1641  0.5475  0.1929
24289W        W40098   4.601   1.878  14.598  0.2695 -0.2577  0.1792
24290W        W40099   1.100  17.394   3.427 -0.3597 -0.0368 -0.0269
24291W        W40100  14.094  14.521   2.086 -0.2198  0.0128 -0.2251
24292W        W40101   2.826  11.192  12.470 -0.3397  0.0413 -0.0581
24293W        W40102   5.595  17.393   2.993  0.0159  0.1968 -0.1928
24294W        W40103  14.737   5.049  11.789 -0.1543 -0.0401  0.0957
24295W        W40104  15.504  18.198   2.760  0.1550 -0.0137 -0.0006
24296W        W40105  10.400  10.371   2.123 -0.0716 -0.1251  0.1184
24297W        W40106  16.810   0.122   4.056  0.0528 -0.1424 -0.1999
24298W        W40107  17.989  17.428  14.917 -0.0521  0.2997  0.2351
24299W        W40108   6.337   0.875  12.157 -0.1705 -0.1411  0.3942
24300W        W40109  11.887  11.374  14.811 -0.1132 -0.0194 -0.0426
24301W        W40110   6.850   2.394   4.959  0.1891  0.1980  0.0835
24302W        W40111   5.407  17.823   2.645 -0.0195 -0.1001 -0.1551
24303W        W40112  17.461  13.037  11.118 -0.0139  0.1314  0.1656
24304W        W40113  12.517  10.265  12.414  0.0284 -0.1872  0.1986
24305W        W40114  12.100   6.146  14.752  0.2889 -0.3066 -0.1653
24306W        W40115  12.391   1.084  15.083  0.1344 -0.0559 -0.3104
24307W        W40116   4.488   0.002   0.834  0.1004 -0.1417  0.0355
24308W        W40117  13.627   3.321  11.680  0.2616 -0.0578  0.0339
24309W        W40118   1.926   7.600   4.850 -0.0676  0.1016 -0.1292
24310W        W40119   3.350   4.575  15.369  0.0115  0.4549 -0.1252
24311W        W40120   7.595   5.746   4.405  0.2126  0.4929 -0.4428
24312W        W40121   3.429  15.662  14.527  0.0660 -0.1883  0.0419
24313W        W40122   4.245   7.370  12.987  0.2925 -0.1490  0.0198
24314W        W40123   8.392  17.267  13.716  0.4640  0.3604 -0.0799
24315W        W40124   6.178   5.768  13.492  0.1685  0.3331  0.0293
24316W        W40125   1.099   9.966  13.404  0.0868  0.3048  0.0996
24317W        W40126   4.474  12.491  14.592 -0.0361  0.1066 -0.0588
24318W        W40127   8.835  17.057  13.394 -0.0053  0.0343  0.2317
24319W        W40128  13.306   5.009  14.162  0.0913  0.0481 -0.0595
24320W        W40129  12.306   9.156   2.612  0.1849  0.0944  0.4231
24321W        W40130  18.443  18.638   3.926  0.0687  0.1408  0.1801
24322W        W40131   0.028   3.437   3.005  0.0714  0.1528 -0.0239
24323W        W40132  12.211   7.630  12.332  0.3654  0.2239 -0.1598
24324W        W40133  14.516   8.339  11.385 -0.0195 -0.3620  0.1035
24325W        W40134   7.178  15.709  11.412  0.2472  0.1519  0.0563
24326W        W40135  15.140  14.347  13.379 -0.2213  0.1543  0.1122
24327W        W40136  18.344  10.833  12.951 -0.0141 -0.2976 -0.2148
24328W        W40137  10.384  16.799   2.595 -0.4760  0.0192  0.4194
24329W        W40138  13.343   7.290   0.283  0.0593 -0.4403 -0.3128
24330W        W40139  16.420   8.571   1.201  0.0152  0.1499  0.1350
24331W        W40140  14.379  11.668   4.517 -0.1718  0.0895  0.2628
24332W        W40141   4.007  12.548   3.760  0.2522  0.0265 -0.2936
24333W        W40142   6.570   5.551  13.118  0.0365 -0.1592 -0.1658
24334W        W40143   9.029   8.327   4.913  0.0859  0.1607  0.0334
24335W        W40144  15.670  14.255  14.145 -0.0798 -0.1298 -0.0590
24336W        W40145   8.302  16.914   3.686  0.2168 -0.2261  0.1393
24337W        W40146  11.197   6.386  15.033  0.0727  0.0015  0.2520
24338W        W40147  10.485  11.662   2.194 -0.0068 -0.0586  0.1137
24339W        W40148   9.418  17.641   3.224  0.1663 -0.2141  0.3903
24340W        W40149   1.197  11.174   0.174 -0.1511 -0.0524  0.1815
24341W        W40150   5.438  12.392  12.802  0.0239 -0.0460 -0.0109
24342W        W40151   6.525  10.007   3.256  0.0182 -0.0312 -0.0122
24343W        W40152  11.910   1.062   2.595  0.0280  0.0880 -0.0121
24344W        W40153  18.310   0.618   4.200  0.3153 -0.2344 -0.1048
24345W        W40154   2.086  15.654   2.108  0.0274 -0.0870  0.0909
24346W        W40155  13.679  11.086   3.517  0.1285 -0.0036  0.0271
24347W        W40156   3.570  15.501  15.183  0.1459  0.0359 -0.1236
24348W        W40157  17.280   6.224   0.163 -0.0572  0.0064 -0.1484
24349W        W40158   7.987  15.542   4.753 -0.1768 -0.1336 -0.0937
24350W        W40159  10.380  13.551   0.955  0.2166  0.1271 -0.1183
24351W        W40160  11.195   1.360   1.345 -0.0535  0.1177 -0.2105
24352W        W40161  16.744   8.294  10.356 -0.1483 -0.1821 -0.4106
24353W        W40162   1.432  17.198  14.992  0.3116  0.2424  0.0893
24354W        W40163   7.984  18.654  11.030 -0.1003  0.0356  0.1420
24355W        W40164   7.327  15.948  11.950  0.1849 -0.1483 -0.3985
24356W        W40165  16.044   5.132  15.248  0.1791  0.0680 -0.1761
24357W        W40166  16.640   9.061   1.363  0.3562 -0.0984 -0.1491
24358W        W40167   1.631   1.465   2.315 -0.0780 -0.3991 -0.1915
24359W        W40168  15.868   6.590   3.283 -0.1168  0.2393  0.0397
24360W        W40169  13.033   0.996  14.406  0.3097 -0.2059 -0.0453
24361W        W40170   9.676  16.410  13.105  0.2142 -0.1053 -0.0932
24362W        W40171   7.622  10.146  12.307 -0.0317 -0.2586 -0.1901
24363W        W40172   3.727   9.562   0.712  0.0648 -0.1051  0.1953
24364W        W40173   3.669   5.836  12.440 -0.1299 -0.1203  0.1279
24365W        W40174  15.789   7.035   5.128 -0.3319  0.1088 -0.2535
24366W        W40175   9.310  18.637   0.681  0.3541  0.1634  0.2333
24367W        W40176  16.457   2.536  15.000  0.0296  0.1240  0.1012
24368W        W40177   0.943   7.900  14.211  0.2128 -0.1534  0.1320
24369W        W40178  11.462   4.086   5.079  0.0550  0.0486 -0.3333
24370W        W40179  14.953   6.562  14.903  0.1896 -0.0626 -0.2199
24371W        W40180   9.610   3.123   4.207  0.2222  0.0290  0.2197
24372W        W40181   2.052  13.765   1.086  0.0265  0.0674 -0.0661
24373W        W40182  11.708  11.285   1.152 -0.1720 -0.3886  0.3868
24374W        W40183   3.370  11.953   1.188  0.4585 -0.1428  0.3435
24375W        W40184   1.896   4.531   4.203 -0.0286 -0.2258 -0.2893
24376W        W40185  15.333  12.504  12.996  0.0757  0.2450  0.3590
24377W        W40186   0.079   7.255   2.104 -0.1285  0.0135 -0.1034
24378W        W40187  17.510   1.464  13.739 -0.0096  0.1988  0.0775
24379W        W40188   4.294  13.347  14.891  0.0756  0.2719 -0.3312
24380W        W40189   8.307  11.828   2.809 -0.4220  0.0758  0.0871
24381W        W40190   4.194   6.133   4.049 -0.1263 -0.0064 -0.1803
24382W        W40191   2.331   5.637  14.832  0.4028  0.3281  0.1216
24383W        W40192  16.806   9.054  13.732 -0.1332 -0.2628 -0.1566
24384W        W40193  17.352   2.368   2.850  0.2301  0.0643  0.1178
24385W        W40194  15.019   9.699   0.094  0.0826  0.1663 -0.0264
24386W        W40195  15.288   5.378   4.118 -0.0109 -0.0786  0.2785
24387W        W40196  11.368  15.928  11.548 -0.1446  0.1777 -0.1646
24388W        W40197  12.916   3.639   1.461 -0.2000  0.2225 -0.0747
24389W        W40198  18.230   8.378  13.721  0.1029 -0.4223  0.0126
24390W        W40199   0.234  11.164   5.136 -0.2652  0.3418  0.1571
24391W        W40200   3.166   3.851  10.594 -0.0121  0.0458 -0.5181
24392W        W40201   5.647   3.723  15.033 -0.1718  0.1183 -0.0369
24393W        W40202  11.956   5.586  13.459  0.1882  0.0610 -0.0874
24394W        W40203  16.864   1.164   1.819  0.0785 -0.0480 -0.0281
24395W        W40204   2.181   2.802   0.664 -0.3016  0.0848 -0.0011
24396W        W40205  13.345  15.959  12.022  0.0408 -0.3273 -0.0823
24397W        W40206  17.476   4.961   2.421  0.2103  0.1542 -0.1000
24398W        W40207  13.325  17.742  14.147 -0.1789 -0.1365 -0.4326
24399W        W40208   9.441  10.293   0.038  0.0280  0.1164  0.0231
24400W        W40209  12.246  16.620  14.865  0.2255 -0.0742 -0.1461
24401W        W40210   2.515  10.608   2.452  0.2766 -0.1046 -0.2443
24402W        W40211   2.232   8.526   1.530  0.0170  0.0495  0.0042
24403W        W40212  16.998  13.684  12.367  0.1553 -0.1814 -0.0958
24404W        W40213   7.692  18.556  15.066  0.3575 -0.4052 -0.1312
24405W        W40214   6.631  15.315   3.908  0.0586 -0.1036 -0.0835
24406W        W40215  10.537  13.194   2.089  0.1397  0.0421 -0.2223
24407W        W40216   7.588  13.704  12.821 -0.2849 -0.3245 -0.2396
24408W        W40217  13.783  10.098   2.271 -0.0312 -0.1585 -0.2123
24409W        W40218   3.338  10.893   0.197  0.1176  0.1744 -0.2943
24410W        W40219   1.654  11.477   3.133  0.2237  0.2722  0.1646
24411W        W40220  14.504  14.976   2.464  0.0447 -0.0630  0.0252
24412W        W40221   1.599   8.817   3.228  0.0358  0.1148 -0.3184
24413W        W40222   9.097  17.883  15.149 -0.0947 -0.0189  0.2599
24414W        W40223   9.158  11.455  11.996 -0.2419 -0.3642 -0.0555
24415W        W40224   6.235   5.974  11.229  0.2739 -0.1382  0.0908
24416W        W40225   2.215  15.086   1.419  0.0454 -0.3772  0.0956
24417W        W40226  18.300  17.993   4.637  0.2095  0.1010  0.2302
24418W        W40227   4.911  13.795   0.343 -0.3719 -0.0427 -0.2823
24419W        W40228  13.839  12.991   0.992 -0.0237  0.0111 -0.3025
24420W        W40229   8.565  12.721  11.318 -0.2042 -0.1219  0.0655
24421W        W40230  10.734   4.540  14.290 -0.1343 -0.3399 -0.1410
24422W        W40231   3.991   9.190   3.530  0.1999 -0.0166 -0.0720
24423W        W40232   5.978  13.787   1.121  0.0457 -0.4212  0.1911
24424W        W40233  13.396  11.291  15.395  0.0788 -0.0470  0.2775
24425W        W40234  14.927  18.832   0.362 -0.1039 -0.1955 -0.1295
24426W        W40235   1.482  14.915   4.534  0.3645 -0.3638  0.0476
24427W        W40236   4.333  15.663  10.366 -0.1840  0.1384 -0.1830
24428W        W40237   3.415  17.234   3.790  0.2854 -0.1915 -0.3095
24429W        W40238   6.840   0.796  11.738 -0.0963 -0.0784  0.0864
24430W        W40239  16.760   0.152   0.383 -0.0572  0.1969 -0.1152
24431W        W40240   7.879   3.005   5.087 -0.0155  0.3769 -0.1127
24432W        W40241   6.248  10.977  14.421  0.0560 -0.2588  0.0223
24433W        W40242  12.999   3.785   4.075 -0.3043  0.0652  0.0135
24434W        W40243   7.159   0.408   0.077  0.1858 -0.0910 -0.0919
24435W        W40244   6.885   0.828   2.896  0.3103  0.0729 -0.2862
24436W        W40245   3.055  11.071   0.538 -0.1821 -0.1521 -0.4909
24437W        W40246  15.209  10.650  14.332  0.3709 -0.1687  0.0122
24438W        W40247  14.148   5.554   4.474 -0.3248  0.0276 -0.0676
24439W        W40248  14.037  11.428   3.314 -0.5274 -0.1567 -0.1975
24440W        W40249  14.448  16.534   2.319  0.3856 -0.1075  0.3535
24441W        W40250  18.720  12.565  11.507 -0.0922 -0.0267 -0.0144
24442W        W40251   4.734   3.496   2.154 -0.0027 -0.1217 -0.0707
24443W        W40252   4.276  16.421  14.322 -0.1212 -0.0962 -0.0864
24444W        W40253   9.726  16.439   5.620  0.1695  0.1722 -0.0464
24445W        W40254  16.950   4.971   3.510  0.1769  0.0677 -0.0020
24446W        W40255   3.409   6.236  14.306 -0.2884 -0.2033  0.2860
24447W        W40256  18.196   1.796   4.729 -0.0372  0.0874  0.0224
24448W        W40257   0.102   5.617  11.538  0.2222 -0.3424  0.0498
24449W        W40258   1.438   9.576  11.593 -0.2108  0.0821  0.3454
24450W        W40259   5.193   7.254  15.340  0.0731  0.0863  0.2471
24451W        W40260  18.860   2.255  10.670 -0.1279 -0.2063 -0.2421
24452W        W40261   4.159   1.141  15.150 -0.0955 -0.0143 -0.0577
24453W        W40262   8.764  18.494   3.869  0.1379 -0.0379 -0.2892
24454W        W40263  11.546   3.074  10.846 -0.5184 -0.1252  0.1504
24455W        W40264   3.348  14.781  11.625  0.2797 -0.1643 -0.1650
24456W        W40265   5.132   3.265   1.961  0.1983  0.0698 -0.0244
24457W        W40266  13.886  16.437  13.146  0.2956  0.0258 -0.1142
24458W        W40267   9.481  15.932   0.679 -0.1745  0.1145  0.0399
24459W        W40268   0.211   6.996   3.657 -0.4842 -0.1038 -0.0338
24460W        W40269   2.173   3.742   4.797  0.1497  0.2470  0.0483
24461W        W40270  15.526   0.082   4.443 -0.5573  0.0869  0.1819
24462W        W40271  12.199   9.955   4.873 -0.4306  0.1872 -0.1964
24463W        W40272  18.547  16.763  10.174  0.3364 -0.0425 -0.3281
24464W        W40273  13.590   8.522  11.356 -0.0597  0.1282  0.2120
24465W        W40274   1.745  10.473   4.173 -0.1013 -0.0514 -0.0268
24466W        W40275  18.276   5.354  11.543 -0.0257  0.2402  0.2974
24467W        W40276   0.462   9.049  13.352  0.3861  0.4749  0.1180
24468W        W40277  17.051  16.132   1.986 -0.2082 -0.0302  0.2021
24469W        W40278  12.016   0.917   0.005 -0.3572 -0.3746  0.0354
24470W        W40279  16.305  11.328  15.120  0.1731  0.0910 -0.1023
24471W        W40280  15.675  17.096   0.801  0.0066  0.2612  0.1069
24472W        W40281   6.542  16.848  13.141  0.2484 -0.3225  0.3882
24473W        W40282   8.491  16.932  10.554  0.1972 -0.0140 -0.1228
24474W        W40283   5.379   3.936   5.010 -0.0444 -0.0943  0.1214
24475W        W40284  13.801  15.336   2.544 -0.1579 -0.0380 -0.1253
24476W        W40285   9.972   8.680  13.050 -0.2681 -0.2297  0.2057
24477W        W40286   6.779  15.941   0.906 -0.0020  0.0541 -0.2935
24478W        W40287   5.661   1.263  13.767 -0.1522  0.0184 -0.2237
24479W        W40288   2.722  17.836   3.468  0.3667 -0.0723 -0.0958
24480W        W40289   6.716  17.696   1.461  0.1676 -0.0382 -0.0377
24481W        W40290  16.142   8.252   4.909  0.0591  0.0873  0.1510
24482W        W40291   8.495   1.152   4.289 -0.0183  0.3708  0.1475
24483W        W40292  14.276  16.270   0.389  0.0602  0.3259 -0.0956
24484W        W40293   2.487  16.823  15.102  0.1791 -0.1616  0.0907
24485W        W40294   8.772   4.874   3.219  0.0983 -0.3026 -0.0433
24486W        W40295   6.952  16.451   9.485  0.0171 -0.0104 -0.2240
24487W        W40296  17.713   7.501   1.519 -0.2433 -0.2441  0.1392
24488W        W40297  16.050   9.230  12.306  0.1406 -0.0211 -0.0929
24489W        W40298   1.834   0.818   2.788 -0.1366  0.0751  0.1695
24490W        W40299   7.184   7.931   2.171 -0.0099  0.0696  0.0685
24491W        W40300  10.509  10.257  13.500  0.1835  0.1603  0.0464
24492W        W40301  14.341   2.717   2.220 -0.3005  0.0532  0.0770
24493W        W40302   6.868  13.431  11.576  0.0111  0.2358  0.0039
24494W        W40303  16.896   7.332   1.304  0.0305 -0.1313 -0.0246
24495W        W40304   8.895  15.524   0.167  0.0793  0.0572 -0.0429
24496W        W40305   8.663  11.268   2.814  0.4137 -0.1691  0.2294
24497W        W40306  11.002   8.047   1.807 -0.1315 -0.1030  0.1811
24498W        W40307  12.796  11.139  14.735  0.1001 -0.0165  0.1661
24499W        W40308   7.925  11.107   4.006 -0.0996  0.3914 -0.0435
24500W        W40309   2.074  17.133  14.049  0.0378 -0.1023  0.0596
24501W        W40310   9.315  15.935  11.491  0.0088  0.1577 -0.2459
24502W        W40311   9.946  13.906  11.957 -0.3132 -0.2081  0.0249
24503W        W40312  11.106   1.752  14.851  0.3334 -0.1322 -0.0334
24504W        W40313   5.622   9.255  10.950 -0.0737 -0.3402  0.0069
24505W        W40314   6.835   3.267   2.270 -0.1472  0.1047 -0.3115
24506W        W40315  12.360  15.900  12.459  0.0967 -0.0214 -0.1251
24507W        W40316  12.347   6.260   2.185  0.3258  0.1137  0.0277
24508W        W40317  12.027  15.066  10.678 -0.1224  0.0637 -0.0209
24509W        W40318  16.713   7.372   0.765  0.1915  0.2798  0.0488
24510W        W40319   6.211  16.681  15.348 -0.1636  0.5714  0.5199
24511W        W40320   2.139  12.146   3.574  0.2706 -0.2963 -0.1066
24512W        W40321   6.459  13.361   4.683 -0.2530  0.1438 -0.1245
24513W        W40322   9.664  11.482   3.544 -0.1074  0.1566  0.0005
24514W        W40323   4.844   2.200  12.162  0.1520 -0.0921  0.0316
24515W        W40324   2.102   8.992  13.700 -0.1810  0.0732  0.0503
24516W        W40325   7.456   3.347  12.843 -0.2778  0.0254 -0.3914
24517W        W40326   4.503  15.606  11.532 -0.2600  0.1901  0.1726
24518W        W40327  12.468   1.980   1.051  0.2472 -0.1834 -0.2479
24519W        W40328  15.176   2.278   5.575  0.2061  0.0778 -0.0942
24520W        W40329  13.478  13.239   5.365  0.1995  0.0804 -0.0965
24521W        W40330  15.945   8.885  14.559 -0.0339 -0.1228 -0.1119
24522W        W40331   8.972   3.289   3.136 -0.2394  0.1269 -0.0905
24523W        W40332   2.860   7.468   4.704 -0.0736 -0.0253 -0.1204
24524W        W40333  17.311   2.631   5.509  0.1237  0.0070  0.0368
24525W        W40334   2.429  16.060   0.163  0.0626  0.0346  0.1480
24526W        W40335   7.949  11.930  12.363 -0.1607  0.1496  0.0166
24527W        W40336  18.683   5.529   2.453  0.0643  0.2604 -0.1402
24528W        W40337  17.985  17.136  14.548 -0.1619  0.2880  0.0440
24529W        W40338   2.736   7.973  12.725  0.1345 -0.1032  0.1001
24530W        W40339   5.930   8.590  14.182 -0.1494  0.0007  0.1791
24531W        W40340  11.517   0.008   3.100 -0.0391 -0.1293 -0.1364
24532W        W40341  18.477   7.822  13.372 -0.2118 -0.2182 -0.0307
24533W        W40342  11.600   5.148   0.995  0.0706 -0.0058  0.0584
24534W        W40343  14.986   0.370   0.531 -0.4813  0.1201 -0.1095
24535W        W40344   7.901  17.924  14.089 -0.0200  0.2666  0.0335
24536W        W40345   9.604   1.318   0.896 -0.0062  0.1042  0.0768
24537W        W40346   0.538  15.221  13.374  0.1310  0.1904 -0.0164
24538W        W40347   9.666   7.226   4.933 -0.1802 -0.0812 -0.1090
24539W        W40348  16.792  10.630  11.992  0.4476 -0.3715  0.0816
24540W        W40349  10.900   0.955  12.977 -0.0337  0.2162 -0.0433
24541W        W40350   7.208   7.398   4.261  0.1074 -0.0669  0.0501
24542W        W40351   8.900   9.383  14.285  0.1105  0.2660  0.0462
24543W        W40352   4.760  11.882  13.252  0.0992  0.0603  0.0665
24544W        W40353   5.777   6.158  13.291  0.2461 -0.2948  0.3700
24545W        W40354   8.371   1.872  12.919  0.2585 -0.1199 -0.7319
24546W        W40355   2.418  18.479   2.689 -0.0767  0.0233 -0.3407
24547W        W40356  16.647  15.193   3.972  0.0157 -0.0381  0.2392
24548W        W40357  12.475   7.277  13.315  0.3462  0.2745  0.0802
24549W        W40358   6.041  12.944  13.714 -0.1965  0.0841  0.2909
24550W        W40359  12.697  12.798   2.136 -0.2626 -0.0538  0.0251
24551W        W40360   4.213  15.887   1.018  0.0988 -0.0206 -0.0717
24552W        W40361   1.337  18.006  13.922  0.0721 -0.1348  0.1517
24553W        W40362  15.203   9.152   1.773 -0.1910  0.0188  0.1633
24554W        W40363  15.853   1.840   6.103 -0.0493 -0.3539 -0.2665
24555W        W40364  12.454  17.612  13.336 -0.3070 -0.0269 -0.0500
24556W        W40365  10.479   1.126   0.126  0.0271 -0.0934  0.0959
24557W        W40366   0.087   5.505  14.068  0.0543 -0.1640 -0.0735
24558W        W40367   6.233   1.914   4.816 -0.0423  0.1762  0.0699
24559W        W40368   2.932  14.767  11.383  0.0282  0.1950 -0.2295
24560W        W40369  10.572   8.226   3.172 -0.0920  0.2319  0.0453
24561W        W40370  15.972  17.743  14.655  0.3677 -0.2360  0.0948
24562W        W40371  12.074  11.615  14.429 -0.0593  0.0576  0.0788
24563W        W40372  13.022   3.090  12.658 -0.0307 -0.2870  0.0965
24564W        W40373   2.979   4.596  10.959  0.2768 -0.2950  0.1931
24565W        W40374   1.339  10.923   1.746 -0.0519  0.0739 -0.1634
24566W        W40375   6.013  11.951  13.490  0.1834 -0.0636 -0.2002
24567W        W40376  10.831   4.737  12.587 -0.0827 -0.0510 -0.1343
24568W        W40377   0.268  11.128  13.749 -0.1501 -0.0239  0.0366
24569W        W40378   8.701   1.544  12.734  0.0568  0.0467  0.0760
24570W        W40379   0.996   8.929  14.720 -0.0612 -0.0229  0.0799
24571W        W40380   3.066  13.978   4.999 -0.1547 -0.1597  0.0773
24572W        W40381  16.524  11.121   2.900  0.1486 -0.0040 -0.2765
24573W        W40382   9.558   9.505   0.639 -0.2306 -0.3372  0.1267
24574W        W40383  16.517   1.872  12.014  0.1206 -0.1573 -0.0024
24575W        W40384   5.139  11.518   3.203 -0.1941  0.1056 -0.0615
24576W        W40385  10.624  14.269  12.085  0.0476 -0.2575 -0.3191
24577W        W40386  11.027   9.101  14.155 -0.1834 -0.2424  0.0179
24578W        W40387   4.784  13.545  11.515 -0.1525 -0.2610 -0.0117
24579W        W40388   2.644  18.223  14.450 -0.1317 -0.2325 -0.3043
24580W        W40389  12.704   2.741   1.316  0.0183 -0.0101  0.3692
24581W        W40390  16.429  12.667   5.366  0.1369  0.3021  0.0409
24582W        W40391   2.335   9.879  15.325 -0.0291 -0.1605 -0.2744
24583W        W40392  10.971  14.734  11.534  0.1139 -0.0994 -0.0241
24584W        W40393  18.880  11.911  13.722 -0.3186  0.1002 -0.0342
24585W        W40394   6.305  17.497  10.229 -0.0827  0.0777  0.0478
24586W        W40395  10.548   6.304  11.814 -0.0676 -0.2410  0.0828
24587W        W40396  16.923   4.221   4.106 -0.0228 -0.2043 -0.2372
24588W        W40397   1.836  14.212  14.133  0.0309  0.1032  0.1791
24589W        W40398   0.380  18.702  11.221 -0.0839  0.3086 -0.0487
24590W        W40399   2.484   0.211   4.564  0.3165 -0.0783 -0.0776
24591W        W40400  13.671  15.049  13.932 -0.3295  0.2592  0.1558
24592W        W40401   4.268  14.998   3.809  0.2721 -0.0218  0.0099
24593W        W40402  13.649   6.181   2.051 -0.2323 -0.3628 -0.0119
24594W        W40403  15.656  16.406  13.611  0.0767 -0.0067 -0.0319
24595W        W40404   0.070   9.569  12.508 -0.2238  0.1020  0.0990
24596W        W40405   3.954  15.951   9.563 -0.0909 -0.2491 -0.1882
24597W        W40406   9.768   2.784   0.275 -0.1171 -0.0703 -0.0322
24598W        W40407   2.684   9.619   0.824 -0.3346  0.2071 -0.2362
24599W        W40408  15.486   8.227   0.217  0.3857 -0.1036  0.0310
24600W        W40409  10.077   1.755  11.420  0.2439  0.0839  0.2919
24601W        W40410   2.674   4.067  10.770  0.2880 -0.2039  0.2223
24602W        W40411  11.789   5.145   1.486 -0.1186  0.1631  0.1135
24603W        W40412   1.872   8.247  15.283 -0.0565 -0.1688 -0.3098
24604W        W40413  16.099  12.408   3.900  0.2570  0.0616  0.0673
24605W        W40414  11.295   3.605   0.565 -0.0617 -0.2018 -0.0587
24606W        W40415  11.386  15.573   3.234  0.0548 -0.0097 -0.1074
24607W        W40416  15.375   6.988   0.951 -0.3272 -0.1795  0.0623
24608W        W40417  12.337  14.733  11.624 -0.0856  0.0427 -0.1161
24609W        W40418   6.286  15.931  11.097 -0.0048  0.0287 -0.1740
24610W        W40419   2.287   5.018  10.186  0.1561 -0.2785  0.2528
24611W        W40420  12.772  18.568  13.271  0.0391 -0.2714  0.1114
24612W        W40421   2.056  11.447  15.072 -0.0946 -0.3821 -0.2618
24613W        W40422  17.032   6.517  11.894  0.0412  0.2150  0.1144
24614W        W40423  13.828  12.367   2.893 -0.1963 -0.0424 -0.0512
24615W        W40424   2.434  17.862   2.190  0.0438 -0.1845 -0.1524
24616W        W40425   6.841   9.912   2.779  0.0485  0.2488  0.0173
24617W        W40426   0.622   1.576   4.647 -0.0306  0.0602  0.0888
24618W        W40427  14.072   8.188   0.602  0.2662  0.1159 -0.0816
24619W        W40428  11.536  11.787  15.393 -0.0817 -0.2355  0.2838
24620W        W40429   3.563  13.783  13.290  0.1689  0.1676  0.0017
24621W        W40430   7.819  17.990   1.370  0.4849  0.2034  0.1336
24622W        W40431   1.040   0.550   2.414 -0.4390  0.0877 -0.0858
24623W        W40432   1.105  13.254  14.677 -0.1240 -0.0909  0.2713
24624W        W40433  10.247  12.353   3.859 -0.0927 -0.1949  0.1296
24625W        W40434  16.731   5.091   3.073  0.1174  0.0633  0.2405
24626W        W40435   5.882  16.394   2.436 -0.0928 -0.0448 -0.1586
24627W        W40436   6.587  16.301   3.063 -0.2111 -0.1150  0.0694
24628W        W40437   9.658  15.542  12.631  0.1005 -0.0785 -0.2434
24629W        W40438  10.494   1.010  15.048 -0.2699  0.1505  0.1055
24630W        W40439   5.673   5.863  12.914  0.0203 -0.0309 -0.2419
24631W        W40440  16.849   3.511  11.627 -0.1757  0.3460 -0.1240
24632W        W40441  18.817  10.766   4.374  0.4573 -0.1963  0.0121
24633W        W40442  12.689   6.524   0.426  0.2545 -0.0058 -0.1996
24634W        W40443   3.805   7.536   4.402 -0.1847 -0.0486 -0.1560
24635W        W40444   7.658  15.367  13.715 -0.0643  0.1796 -0.0963
24636W        W40445   7.591   2.465  13.386 -0.0931  0.1801 -0.0807
24637W        W40446  12.609  12.860   5.517  0.1934  0.3709  0.1275
24638W        W40447   7.813  14.234   0.951  0.0657 -0.0564  0.0970
24639W        W40448  11.797  16.886   0.287 -0.0764 -0.0366  0.0093
24640W        W40449  13.471  16.216  14.732  0.1335 -0.2213 -0.2163
24641W        W40450   3.030   9.495   5.574 -0.0016 -0.1091 -0.0579
24642W        W40451   9.023  15.846   3.780 -0.1492  0.2255  0.0073
24643W        W40452   1.886   7.719   1.752  0.1444 -0.1972  0.3200
24644W        W40453  11.169  11.809  10.352 -0.2783  0.0066  0.0474
24645W        W40454  12.138  14.540   4.986 -0.0286 -0.0221 -0.0075
24646W        W40455  13.656  18.775   2.595 -0.1073 -0.1092  0.1561
24647W        W40456  12.538   4.309  12.958 -0.1391 -0.1189  0.1436
24648W        W40457  14.835   6.706   3.454 -0.0370 -0.0030 -0.2288
24649W        W40458  14.549   0.611  13.817 -0.1726  0.1369  0.0467
24650W        W40459   2.738  18.446  11.841  0.3919 -0.0160  0.1740
24651W        W40460  11.194  15.198   4.376  0.3385 -0.0638  0.0521
24652W        W40461   5.376   3.501  12.876 -0.3740 -0.3650  0.2584
24653W        W40462  11.907   1.415   2.987  0.2227  0.1572  0.0211
24654W        W40463   7.877  11.487   0.416  0.0490 -0.1022  0.0102
24655W        W40464   2.549  11.893  11.877 -0.1049  0.0135  0.1339
24656W        W40465   7.311  10.435   3.395 -0.2041  0.1204 -0.0118
24657W        W40466  12.138  16.757  11.892 -0.0874 -0.2705 -0.0376
24658W        W40467  14.485   6.881   1.202  0.0115  0.3444  0.0636
24659W        W40468   8.552   5.670   1.379  0.5001 -0.2401  0.0691
24660W        W40469  10.571   3.476   1.094 -0.0391 -0.0676  0.2998
24661W        W40470  14.325  12.657  14.748  0.1651 -0.1989  0.0389
24662W        W40471  11.789   1.684   5.437 -0.2483  0.2285 -0.1855
24663W        W40472  17.635  18.295   3.334  0.3820  0.2382  0.2520
24664W        W40473  14.363  13.677  12.115  0.0643  0.0505 -0.2225
24665W        W40474  14.880  12.020   0.864 -0.2240 -0.0081 -0.0115
24666W        W40475   0.564  12.865  12.975 -0.1890 -0.1039 -0.0796
24667W        W40476  10.027  17.057  14.281 -0.1246  0.3069  0.0761
24668W        W40477   2.383  12.418  11.111 -0.0308  0.2562  0.0091
24669W        W40478   4.270   7.248   2.570 -0.0320 -0.0073 -0.3020
24670W        W40479  16.062   1.605   0.295 -0.0832 -0.1739 -0.3758
24671W        W40480  18.651  16.794  14.384 -0.0574 -0.2330  0.2722
24672W        W40481   9.901   4.366  11.772 -0.2969  0.0608 -0.1497
24673W        W40482  14.583   1.601  11.812  0.0541 -0.0741 -0.1060
24674W        W40483  14.610   0.868  15.350  0.0591  0.0638 -0.1177
24675W        W40484  14.337  12.061   4.251  0.1414 -0.1676  0.0588
24676W        W40485   7.254   7.774   1.072 -0.0305  0.0399 -0.1729
24677W        W40486   5.007  14.280  12.902  0.2555 -0.0138  0.0382
24678W        W40487  10.472  14.472  14.991 -0.1962 -0.2732  0.1980
24679W        W40488  18.207   6.309  12.580 -0.1172 -0.0942 -0.0463
24680W        W40489   4.405   6.488   4.357 -0.1245  0.0787 -0.1802
24681W        W40490   5.940   8.086  13.166  0.1591  0.1071  0.2723
24682W        W40491  12.961  14.795  12.859  0.1633 -0.0299 -0.0167
24683W        W40492   7.406   2.372  12.842 -0.1933  0.2849  0.2673
24684W        W40493  17.403   6.718  10.952 -0.2006  0.0490  0.0796
24685W        W40494  16.686  12.600  11.099 -0.2044  0.2279 -0.1731
24686W        W40495   1.063   5.683   0.946  0.1385  0.1173  0.0879
24687W        W40496  11.448  12.428   3.828  0.1332 -0.2183 -0.0461
24688W        W40497   0.487   2.582  12.930 -0.0081 -0.3579 -0.0786
24689W        W40498  17.572   6.287  14.086  0.1712 -0.1979  0.1654
24690W        W40499   9.055   0.730  14.610 -0.1328 -0.2188  0.0005
24691W        W40500  17.119   3.845   1.543 -0.3348 -0.1283  0.1084
24692W        W40501  10.848   5.611  15.097 -0.0086  0.0551  0.1191
24693W        W40502  10.573   9.504   5.229 -0.1528 -0.0321  0.1936
24694W        W40503  16.941   2.443  12.452 -0.3042 -0.0211  0.1517
24695W        W40504  12.549  15.574   0.670  0.1026  0.0152  0.2038
24696W        W40505  10.379  15.057  10.997 -0.1884 -0.1022  0.0631
24697W        W40506  15.400   4.676   4.765 -0.4013  0.1183  0.3711
24698W        W40507  15.711  11.275   1.889 -0.1597 -0.0008  0.0135
24699W        W40508  17.788  11.781   1.286  0.0692 -0.2225  0.0312
24700W        W40509   7.748   1.070  15.002 -0.3055  0.0704 -0.0410
24701W        W40510   1.933  18.147   2.138  0.0875  0.0618 -0.1406
24702W        W40511   6.151  11.399  10.516 -0.3570  0.2633 -0.8027
24703W        W40512   1.959   4.359   2.825  0.0415  0.2158 -0.0408
24704W        W40513  16.065  14.240   4.491  0.2778  0.1869  0.2751
24705W        W40514  14.839   0.193  13.831 -0.1732 -0.1622 -0.1163
24706W        W40515  14.865   7.528   3.806 -0.0690  0.0121  0.0458
24707W        W40516  17.186  18.764  13.176  0.4612  0.2029  0.3287
24708W        W40517  10.594  16.889   2.095  0.1558  0.1853 -0.0332
24709W        W40518   9.877   7.829   6.089 -0.1024  0.1433 -0.0579
24710W        W40519  10.492   6.200  11.312 -0.1932  0.1731 -0.0659
24711W        W40520   3.025   0.129  15.055 -0.0236  0.0231 -0.1068
24712W        W40521  12.565  11.397  14.329 -0.0749 -0.1175 -0.0902
24713W        W40522  12.877   8.954  13.729  0.0592 -0.0404  0.2198
24714W        W40523  11.306   6.507  14.086 -0.0079 -0.1002 -0.0526
24715W        W40524  13.682   6.331   5.305 -0.0420 -0.1411  0.3091
24716W        W40525   1.970   2.418   0.944 -0.1210  0.0809  0.0219
24717W        W40526   1.570  17.877  11.938 -0.0912  0.3280 -0.2388
24718W        W40527   2.283   3.325  15.048 -0.3146  0.3293 -0.3843
24719W        W40528   6.356  13.299   0.809  0.0503  0.3920  0.1002
24720W        W40529  11.703  13.374   5.291 -0.1000  0.1276  0.1353
24721W        W40530   2.614   2.860   9.414 -0.1411 -0.4597 -0.2667
24722W        W40531   6.672  10.203   4.051  0.4632  0.0174 -0.2270
24723W        W40532  16.185   8.453  14.431  0.0207 -0.1334 -0.2247
24724W        W40533   5.254  11.397   1.580 -0.0913 -0.1253  0.3889
24725W        W40534  13.290  14.962   0.864 -0.1301 -0.4052  0.2244
24726W        W40535  14.466   3.804   0.263  0.2409 -0.0065  0.2241
24727W        W40536  17.854  18.063   1.857  0.2733 -0.2718 -0.2883
24728W        W40537  13.257  15.131  10.374 -0.3107 -0.0587  0.1758
24729W        W40538  13.022   4.185  13.286  0.1506 -0.1078 -0.1412
24730W        W40539  12.262   8.520  14.729 -0.2633  0.2752 -0.1904
24731W        W40540  11.831  10.388  13.601  0.2029 -0.0805  0.0337
24732W        W40541   8.252  12.402   5.661 -0.1668 -0.0598 -0.1198
24733W        W40542  10.303   7.191   4.245  0.0165  0.2304 -0.0871
24734W        W40543  12.693  14.394   3.621 -0.1663 -0.0372 -0.0985
24735W        W40544   7.552  16.363   4.926 -0.1683 -0.0478  0.2844
24736W        W40545  11.595  14.602  13.583  0.2324  0.3161 -0.0259
24737W        W40546   2.193  17.268  11.151 -0.0308 -0.2544  0.0870
24738W        W40547  14.292  17.794   4.038 -0.2617  0.0023 -0.2137
24739W        W40548  11.751  11.785   0.667  0.2506  0.3366 -0.0363
24740W        W40549  10.882  12.150   0.283  0.0665 -0.2554  0.1553
24741W        W40550   2.050   4.119   5.104 -0.0782  0.0046 -0.2261
24742W        W40551  14.051  12.123  14.863 -0.1926  0.0859  0.3544
24743W        W40552  17.535  18.660  15.274  0.1334 -0.2416  0.2920
24744W        W40553   7.040  15.135   2.705 -0.2085  0.0695  0.0766
24745W        W40554   2.365   3.290   0.647  0.3498 -0.1543 -0.1431
24746W        W40555   7.691   7.727   2.024  0.4850  0.1534 -0.0013
24747W        W40556  12.720  11.146   0.162 -0.2128  0.0092 -0.3714
24748W        W40557  15.887  14.860  13.936 -0.0094  0.5313  0.0688
24749W        W40558   8.024   5.767   3.252 -0.3405 -0.1533 -0.1500
24750W        W40559  17.539   7.927   3.851  0.0179  0.0969  0.2154
24751W        W40560   9.355   3.398   4.537  0.1646  0.0891  0.0537
24752W        W40561   4.411  11.054   1.853 -0.1617  0.2439  0.2169
24753W        W40562   0.220  14.843  10.247  0.0827  0.1373  0.2613
24754W        W40563  11.541   8.981   2.042 -0.1279 -0.0208 -0.2505
24755W        W40564   8.346  15.268  12.877 -0.1925 -0.0536  0.1467
24756W        W40565   9.299   4.875   3.307 -0.1193 -0.3181  0.0566
24757W        W40566   1.129   0.001  12.134  0.0330 -0.0561 -0.0402
24758W        W40567  10.126  18.153  11.520 -0.4369  0.2021 -0.0606
24759W        W40568   8.900  11.975   0.494  0.0620  0.0455  0.1706
24760W        W40569   0.993  15.237   2.701 -0.1318 -0.1755  0.1838
24761W        W40570   7.101  11.789  15.029  0.2150  0.1369 -0.5547
24762W        W40571   1.968  15.541  15.412  0.1947 -0.1245  0.0044
24763W        W40572   8.121  14.775  13.637  0.2902  0.2009 -0.3717
24764W        W40573  13.681   4.423   0.300  0.0557 -0.1535 -0.0134
24765W        W40574   4.172   3.445   2.865  0.1769  0.0028  0.1439
24766W        W40575  18.230  11.820   1.056 -0.3277  0.2024 -0.2039
24767W        W40576   0.546  17.103  14.819  0.0105 -0.2459 -0.1443
24768W        W40577  13.948   4.085  12.959 -0.1806  0.0477 -0.1526
24769W        W40578   4.677  16.558  11.203  0.1540 -0.2094  0.4102
24770W        W40579   4.136  14.041  11.672  0.3191  0.3014  0.1357
24771W        W40580   4.205  16.133   2.712  0.1911  0.0573 -0.0596
24772W        W40581   0.012   8.273  14.529 -0.2315 -0.1847  0.2788
24773W        W40582  18.117   9.573  12.801 -0.1047  0.2854  0.1656
24774W        W40583  12.695  17.137  13.343 -0.4609 -0.3365  0.2152
24775W        W40584   9.876   3.538  11.229  0.1964 -0.1034  0.2182
24776W        W40585   8.492   7.673   5.604  0.3962  0.0505 -0.3113
24777W        W40586   8.112  15.678  15.157  0.1917  0.0167 -0.3097
24778W        W40587   0.039   8.868   1.186 -0.3618 -0.0808  0.1201
24779W        W40588   0.181   1.511  12.339  0.0848 -0.1342 -0.1507
24780W        W40589   2.294   0.931  12.501  0.0052  0.0655 -0.1543
24781W        W40590  14.434  11.584  10.863  0.0808 -0.0460 -0.1855
24782W        W40591  17.470   5.275  10.913 -0.0509 -0.2214 -0.0621
24783W        W40592  15.497   5.625  13.141  0.2049 -0.1364  0.1684
24784W        W40593   5.352   6.222  12.883  0.2569 -0.3674  0.1773
24785W        W40594  12.929  17.880  15.275 -0.2804 -0.0707 -0.2299
24786W        W40595   4.237  17.086   4.023  0.1917  0.4977  0.0990
24787W        W40596   9.557  10.203  12.112  0.1936 -0.2838  0.0416
24788W        W40597  16.696  17.970   5.276  0.0524  0.2515  0.0118
24789W        W40598  18.264   2.293   4.730 -0.0555 -0.1985 -0.2760
24790W        W40599   3.188   9.970  10.459  0.0002  0.0487 -0.1426
24791W        W40600   9.060   2.764  13.299 -0.1634  0.2190 -0.1445
24792W        W40601   8.800   2.946   0.763  0.0800 -0.0342 -0.0395
24793W        W40602   9.747  16.284   1.883  0.6354 -0.0799 -0.1623
24794W        W40603   6.850   6.240   3.273  0.1821  0.2740  0.3987
24795W        W40604  11.306   5.992  10.900 -0.3051 -0.0666  0.0341
24796W        W40605  14.865  14.666   2.625 -0.2400 -0.0089 -0.1164
24797W        W40606   8.747  17.033  11.040  0.1328  0.1475  0.0487
24798W        W40607   4.689   4.859  12.593  0.2557  0.2047 -0.1841
24799W        W40608  17.910   9.232  13.180  0.0207 -0.1194  0.0679
24800W        W40609   9.252   4.655   2.421  0.0925  0.0654  0.0112
24801W        W40610  17.721   3.405  15.048 -0.0194  0.0880 -0.1117
24802W        W40611  17.575  16.761   1.638  0.0403 -0.1939  0.1431
24803W        W40612  12.049  15.098  14.025  0.0183 -0.1568 -0.3164
24804W        W40613   8.232  12.369   2.104 -0.3009 -0.0723 -0.0086
24805W        W40614   2.150   2.967   2.698  0.0380  0.3092 -0.0241
24806W        W40615   2.489   0.804   4.610 -0.2627  0.0178  0.2148
24807W        W40616   9.512   4.797   2.812 -0.2180  0.1425  0.0501
24808W        W40617  15.844   2.027   3.927 -0.0085  0.2739 -0.1485
24809W        W40618   9.440   8.322   1.110  0.2152  0.1418 -0.2329
24810W        W40619   6.827   8.915   3.034 -0.1010  0.1090  0.0128
24811W        W40620   3.228   4.322   9.663 -0.0417  0.1797  0.3684
24812W        W40621   2.974   4.034  14.202 -0.1080 -0.1381 -0.0404
24813W        W40622   0.851   7.000   2.441 -0.0155 -0.1178  0.0022
24814W        W40623  10.033   1.202  12.606  0.1543  0.0847 -0.0955
24815W        W40624   2.850  17.829   0.839  0.1895  0.0656  0.0227
24816W        W40625   1.013   8.423   4.560  0.3003  0.0316  0.0595
24817W        W40626   6.507  10.809  13.021 -0.1722  0.1486  0.2257
24818W        W40627  13.714  15.527  15.324 -0.1198 -0.1457 -0.0055
24819W        W40628  15.642   3.346  12.981 -0.0740 -0.2586 -0.5150
24820W        W40629   2.713  16.376  15.197  0.0546 -0.1779  0.0259
24821W        W40630   4.460  11.405  11.523 -0.0201  0.2146 -0.1825
24822W        W40631   9.994   1.597  12.952 -0.0614  0.0771 -0.0668
24823W        W40632  10.077   8.770   1.009  0.1954 -0.1960 -0.0153
24824W        W40633  12.259  11.927   2.403  0.1331 -0.1487  0.1647
24825W        W40634   4.827  17.664   1.364 -0.5087 -0.1722  0.2210
24826W        W40635   4.153   0.100   0.498 -0.0669 -0.3860 -0.2989
24827W        W40636   3.249   3.857   3.350 -0.2120 -0.0456 -0.1136
24828W        W40637  18.135  13.535   1.170  0.1386 -0.2044  0.0955
24829W        W40638  16.087   2.794   2.595  0.0697  0.1114  0.0338
24830W        W40639  17.376  10.540   1.847 -0.0983 -0.3720 -0.2327
24831W        W40640   0.432  16.205   3.433 -0.1343 -0.1519  0.1030
24832W        W40641   6.983  14.355  10.735 -0.3359  0.1126 -0.1406
24833W        W40642  12.793   8.997  14.572  0.6051 -0.0529  0.0247
24834W        W40643   1.767  12.874   0.790  0.3553 -0.0447 -0.1498
24835W        W40644  10.581   2.822   5.311  0.2564 -0.0392 -0.0529
24836W        W40645   6.149  14.992  12.892  0.0166 -0.3149 -0.1555
24837W        W40646   1.822  12.470  14.668  0.0326  0.2939  0.1493
24838W        W40647   7.527  10.278  11.046 -0.2314 -0.3409 -0.1328
24839W        W40648  13.751  13.263  14.987 -0.0828  0.4721  0.0972
24840W        W40649   2.454  12.095  10.695  0.0090 -0.0816 -0.2128
24841W        W40650   9.047   1.944  11.115 -0.1144  0.0257  0.1890
24842W        W40651   1.707  16.926   1.808  0.1674 -0.1030  0.0414
24843W        W40652   5.692  12.674   3.800 -0.1228  0.2538  0.3177
24844W        W40653  17.334  16.158   0.212  0.2310  0.0432  0.1156
24845W        W40654  13.904   1.105  12.728 -0.2072 -0.2796  0.1461
24846W        W40655   6.039   3.830   2.022 -0.2648  0.4103 -0.3636
24847W        W40656  14.147   0.063   2.698 -0.0239 -0.0813 -0.0926
24848W        W40657   8.360   4.623  11.758 -0.0452 -0.0268 -0.0256
24849W        W40658  18.054   3.458   0.471 -0.0878 -0.1546  0.2622
24850W        W40659   7.974   9.974  13.315 -0.1376 -0.2070 -0.1167
24851W        W40660  14.910   9.344  12.685  0.1843  0.2855 -0.1319
24852W        W40661  11.313  18.064   2.671  0.1416  0.1505 -0.0726
24853W        W40662   7.837   7.303   3.214  0.3064  0.0171 -0.1379
24854W        W40663  17.895  15.482   1.659  0.0888  0.0760 -0.2936
24855W        W40664   6.936  16.873   1.977 -0.2079 -0.1040 -0.3001
24856W        W40665  12.356  15.164  14.890 -0.0163  0.0398 -0.0534
24857W        W40666  14.991   7.129   1.300  0.1394  0.0755 -0.2823
24858W        W40667  10.298  12.122  13.994 -0.0331 -0.1075  0.2217
24859W        W40668   6.290  14.590   0.895 -0.2008 -0.2151  0.1951
24860W        W40669  15.377  14.951   1.938  0.1602  0.0953 -0.2012
24861W        W40670  11.907   5.836   4.424  0.1688 -0.2087 -0.1434
24862W        W40671   8.038   4.579   0.202 -0.1195  0.0170 -0.2411
24863W        W40672   4.870   1.485  14.543  0.2794  0.0759  0.1593
24864W        W40673   7.009  14.621  13.793  0.0075  0.3140  0.1005
24865W        W40674  11.919   9.719   5.850 -0.0390 -0.0884 -0.2855
24866W        W40675   2.697  15.581  10.888  0.0116 -0.1022  0.0796
24867W        W40676  11.777   4.955  11.920 -0.0161 -0.0336 -0.4056
24868W        W40677  11.997  11.700  15.200 -0.0627  0.1022 -0.2705
24869W        W40678   9.067   9.738   2.188  0.1729  0.1249  0.2178
24870W        W40679  11.634  13.647   0.771 -0.0935  0.0850 -0.0831
24871W        W40680  18.364  13.635  12.256 -0.1404  0.0206 -0.0593
24872W        W40681   6.093  11.017   4.791 -0.1517 -0.1616  0.0015
24873W        W40682  13.551   8.341  10.773 -0.0170 -0.0674 -0.2758
24874W        W40683  16.913   7.974  11.947 -0.1637  0.0961 -0.0782
24875W        W40684   3.025  16.386  14.017 -0.1277 -0.1815  0.1252
24876W        W40685  17.667   4.560  13.933 -0.0183  0.0971  0.0475
24877W        W40686   1.553  11.600  11.659  0.0610  0.3358 -0.1811
24878W        W40687  17.408  10.459   4.316  0.1164  0.1375  0.0302
24879W        W40688   8.829  16.669   4.283 -0.1331  0.1314  0.0641
24880W        W40689   4.041   9.934  13.367 -0.0725  0.0987  0.1239
24881W        W40690  12.991  14.581   1.937  0.0492  0.3393  0.1423
24882W        W40691  10.925  12.813  14.248  0.0993  0.2412 -0.0185
24883W        W40692   7.518  15.166   4.053  0.1406 -0.1078 -0.0047
24884W        W40693   8.849  17.515  13.603  0.1542 -0.1363  0.0359
24885W        W40694  11.733   1.254   0.970 -0.2852 -0.1470  0.2715
24886W        W40695  15.079  11.649  12.033 -0.3773 -0.0679  0.1342
24887W        W40696  10.439  18.217   2.533 -0.3985  0.0647 -0.2558
24888W        W40697   9.164  11.466   4.570  0.0843  0.1690  0.1426
24889W        W40698   2.925  11.655  12.569 -0.1949 -0.2417  0.0202
24890W        W40699  11.352   3.190   1.123 -0.3668  0.1980 -0.1724
24891W        W40700  18.844  12.462   5.571  0.1126  0.1162 -0.0250
24892W        W40701  13.977   2.422   2.018 -0.1205 -0.1619 -0.0769
24893W        W40702   0.929  13.795  11.725 -0.0404  0.0818  0.2135
24894W        W40703  10.127   0.448  13.353 -0.1256  0.2096 -0.1906
24895W        W40704   7.294  11.770   1.546 -0.1421 -0.1472  0.0276
24896W        W40705  12.682   1.503  13.459  0.0429 -0.0622 -0.1929
24897W        W40706  16.117   6.029   0.156 -0.1558  0.0942  0.2293
24898W        W40707  14.423   6.973  12.739 -0.0228 -0.1309  0.2171
24899W        W40708   3.993  17.319   3.594 -0.0840  0.2325  0.2982
24900W        W40709  14.299  13.711   2.025  0.6598  0.0195 -0.0890
24901W        W40710   0.747   4.447  10.726 -0.1422  0.1732  0.2518
24902W        W40711   4.343   7.940   2.296 -0.2329 -0.0116  0.2351
24903W        W40712   2.748  14.782   0.505 -0.1064  0.1491  0.1890
24904W        W40713   4.363   3.221   0.575 -0.1961  0.1962 -0.0689
24905W        W40714  18.772   9.420   2.526  0.1688 -0.0565 -0.0902
24906W        W40715  12.158  15.395   3.869 -0.2285  0.0152  0.1659
24907W        W40716   0.704  10.138   2.335 -0.0547  0.2022 -0.1120
24908W        W40717  16.122  11.782   2.579  0.1351  0.0606  0.0387
24909W        W40718   8.285  18.013  13.183 -0.1704  0.0370 -0.0259
24910W        W40719   0.964  18.637  14.325  0.0366  0.0436  0.1786
24911W        W40720  13.138   2.021  11.697  0.1787  0.2630  0.0400
24912W        W40721   3.307  12.393   3.057  0.0123 -0.2274 -0.0012
24913W        W40722  13.123   0.928   0.510  0.0723  0.0645  0.0059
24914W        W40723  13.643   5.749  15.123 -0.0378 -0.3284  0.1190
24915W        W40724   7.786   3.054  11.420  0.2480 -0.4308 -0.1996
24916W        W40725  18.554  18.141  10.993 -0.3587 -0.0480 -0.1425
24917W        W40726   8.016   7.937   3.962  0.2261  0.3535  0.3713
24918W        W40727   5.768  13.547  10.603 -0.0814 -0.2260  0.2666
24919W        W40728   0.642   3.447  13.054  0.2019 -0.0346 -0.0016
24920W        W40729   1.915   8.475   4.674  0.2821 -0.1024  0.1836
24921W        W40730   4.552  14.809   4.731 -0.0255  0.1946  0.0773
24922W        W40731   1.224   5.029   4.203  0.3300  0.0091  0.2660
24923W        W40732  16.486  15.917  14.179 -0.0038 -0.0869  0.0339
24924W        W40733   5.829  16.262   9.719  0.0203  0.2258 -0.2715
24925W        W40734  13.875  16.748  14.136  0.0017 -0.1839  0.1460
24926W        W40735  12.288   3.531   5.786  0.0255  0.2873  0.3989
24927W        W40736   8.522   2.797  12.185  0.1731  0.0356 -0.1908
24928W        W40737  13.301  17.567   2.451  0.1166  0.0900  0.1891
24929W        W40738   0.736   1.706   0.498  0.0650  0.0726  0.0003
24930W        W40739   2.658  12.932   3.184  0.2743  0.0184  0.1276
24931W        W40740  16.849  10.360  12.941 -0.0304  0.2411 -0.2303
24932W        W40741   8.253   0.075   3.874 -0.0688  0.0220  0.1189
24933W        W40742  18.862   8.117   2.317 -0.0246 -0.0505 -0.1561
24934W        W40743  13.675  15.619   2.931 -0.0358 -0.2179 -0.0186
24935W        W40744   5.982   3.444  11.150  0.3284 -0.0217 -0.0238
24936W        W40745  17.560   1.073   2.476 -0.1587  0.0586  0.0269
24937W        W40746  16.734  16.434   1.425  0.1215  0.0952  0.0026
24938W        W40747   2.604   5.928  13.915 -0.1439  0.1580 -0.0487
24939W        W40748   6.376  15.435  12.806 -0.2884 -0.2744  0.0698
24940W        W40749   1.212  17.261  13.327 -0.0270  0.2583  0.3030
24941W        W40750  15.154  16.839  13.692  0.2725  0.0294 -0.0579
24942W        W40751  13.925   4.413  12.278  0.0816 -0.2522  0.1860
24943W        W40752   8.844  17.061   2.263 -0.1470 -0.2878 -0.0560
24944W        W40753   2.747  15.062   5.430 -0.2993  0.1424  0.1125
24945W        W40754  17.308   0.429   4.221  0.1574  0.1298  0.0264
24946W        W40755  13.960   3.042   5.194  0.1378 -0.1913  0.0630
24947W        W40756  12.731  11.906  15.005 -0.2325  0.1002  0.1494
24948W        W40757  13.210  12.827   5.660 -0.3652 -0.1578  0.0567
24949W        W40758   9.328   7.583   2.372  0.1108 -0.0589 -0.1187
24950W        W40759   0.183   9.369   4.673  0.3408 -0.1675 -0.1331
24951W        W40760   2.434  11.174  15.264  0.2802  0.0604 -0.0909
24952W        W40761  17.939  15.416  12.089  0.3709  0.0522 -0.1630
24953W        W40762   7.274  10.766   0.491 -0.1753 -0.0094 -0.2279
24954W        W40763   0.270  14.665   2.893 -0.2198 -0.2103 -0.2348
24955W        W40764   0.555   9.683   4.567  0.4176 -0.0853  0.1946
24956W        W40765  14.563  12.862   1.713 -0.0407  0.1694  0.3649
24957W        W40766   7.248  18.906  11.441  0.5478 -0.0302 -0.1178
24958W        W40767  15.673   4.560  12.355 -0.0010 -0.0434 -0.1522
24959W        W40768   2.099  11.718  11.709 -0.1446  0.5763  0.0583
24960W        W40769  15.497  14.673  10.582 -0.1386 -0.2204 -0.2929
24961W        W40770   7.420  16.710   0.492  0.0324  0.0323 -0.3182
24962W        W40771   3.647  18.728  12.796 -0.1726 -0.1715 -0.0386
24963W        W40772   9.420   5.777   0.401  0.3803 -0.2274  0.2017
24964W        W40773   9.663  15.014  15.057 -0.2100  0.1674  0.1630
24965W        W40774  11.144   8.825  13.751  0.1487 -0.1801 -0.2652
24966W        W40775   5.543  14.477   4.793 -0.0864  0.0173  0.1996
24967W        W40776   7.930   0.978   3.631 -0.0939 -0.1376  0.0695
24968W        W40777  13.775   3.275   3.005  0.0260 -0.2195  0.0125
24969W        W40778   8.527   5.295  13.939  0.0755 -0.3389 -0.0279
24970W        W40779   3.723  16.262   2.981 -0.2267 -0.0071  0.2480
24971W        W40780   4.308   9.820   1.364 -0.0143  0.1498  0.3191
24972W        W40781   2.599   4.318   0.628 -0.0382 -0.0213  0.0697
24973W        W40782  12.369  18.053   5.150 -0.1242  0.0706  0.1548
24974W        W40783  12.012  13.991  10.998 -0.0027 -0.0684 -0.0002
24975W        W40784   2.920   8.804   2.933  0.1589  0.0867 -0.0340
24976W        W40785  10.002   5.661   1.236  0.1311 -0.0868 -0.0173
24977W        W40786  18.252   8.710  13.283 -0.0818 -0.1480  0.0992
24978W        W40787   0.447   9.359  12.089 -0.0432  0.1802  0.0767
24979W        W40788  17.546   7.094  13.237 -0.0602 -0.0111 -0.0271
24980W        W40789  17.954  17.682   4.477  0.1210  0.0007  0.1012
24981W        W40790  18.563  15.213  14.537  0.0198 -0.2670 -0.2056
24982W        W40791   4.336   7.713   5.196  0.0331  0.0477 -0.2630
24983W        W40792  17.089   6.781   2.454  0.0582  0.1726  0.0845
24984W        W40793  13.711   2.483   4.525  0.0273  0.3753 -0.3909
24985W        W40794  13.398   0.765  13.944 -0.0042  0.0633 -0.2218
24986W        W40795  18.198   3.195  12.733  0.0362 -0.0785  0.0022
24987W        W40796   0.619   3.218  12.197  0.1115  0.4111 -0.3439
24988W        W40797   2.576   9.752  12.344  0.1426 -0.0271  0.0490
24989W        W40798   8.179  12.107  12.838 -0.0379 -0.3471 -0.4838
24990W        W40799  18.284  15.540  13.345 -0.2855  0.3835  0.1575
24991W        W40800   6.054   6.759   3.567  0.0805  0.0847  0.0852
24992W        W40801  17.128   9.472  14.238 -0.1834  0.1436 -0.0785
24993W        W40802   6.258   5.329  12.024  0.0781  0.0033  0.0495
24994W        W40803  17.160   5.769   5.080 -0.0396 -0.0672 -0.1316
24995W        W40804  15.205   3.434  15.054 -0.1151 -0.1673  0.1650
24996W        W40805  18.491  12.212  11.999  0.1247 -0.0306  0.1972
24997W        W40806   9.975   1.915  10.355 -0.2210  0.0934  0.1196
24998W        W40807  17.619   5.153  10.235  0.0691 -0.0576  0.0738
24999W        W40808   7.635   7.258  14.992 -0.0262  0.2176 -0.2046
25000W        W40809  11.816  14.176   0.064  0.0998 -0.3106  0.0847
25001W        W40810  10.167   9.282  12.165 -0.0367  0.1156  0.2762
25002W        W40811   6.624  10.049  10.916  0.1000  0.0483 -0.0966
25003W        W40812   4.899  12.199  11.631  0.0920  0.0234 -0.0552
25004W        W40813   9.520   2.192   1.954  0.1054 -0.0808 -0.0223
25005W        W40814  12.600  10.097   2.826 -0.1019  0.0547 -0.0087
25006W        W40815   7.484  17.552  13.497  0.2475  0.0498  0.0778
25007W        W40816   7.622  17.183   4.027 -0.0917  0.0007  0.0755
25008W        W40817  13.936   8.705  12.426  0.0359 -0.0331 -0.0409
25009W        W40818   7.313  10.403   1.390  0.1064 -0.1994  0.0430
25010W        W40819   2.233   8.983  12.357  0.1901 -0.1429 -0.0189
25011W        W40820  18.506  10.497  15.033 -0.3420 -0.1237  0.0844
25012W        W40821  10.945   0.145  12.471  0.2149  0.1314 -0.2036
25013W        W40822   0.247   8.597  12.100 -0.3645 -0.0158  0.0781
25014W        W40823  10.288  18.608  11.355  0.2989 -0.1575  0.0404
25015W        W40824   8.288  15.029  11.490 -0.3157 -0.1108 -0.2665
25016W        W40825   1.425   2.528   5.841 -0.0179  0.1545  0.1904
25017W        W40826   9.860   3.747   2.674  0.4148  0.0701 -0.1504
25018W        W40827   6.744   0.095  13.085 -0.0155  0.2029 -0.0983
25019W        W40828   8.944   9.624  11.442 -0.0521 -0.2864  0.1003
25020W        W40829  16.307  14.018   0.751  0.0216 -0.1295  0.0774
25021W        W40830   9.760   2.144  14.729 -0.2527  0.1439  0.2760
25022W        W40831  10.959   5.291  14.697 -0.2614 -0.1126 -0.0318
25023W        W40832   4.724  13.143   2.525  0.0145 -0.0439  0.1345
25024W        W40833   4.863   6.410  12.179 -0.1793  0.2724 -0.2236
25025W        W40834   4.601   6.279  11.737 -0.0239  0.1246 -0.1787
25026W        W40835   1.422   1.220  12.225  0.0171  0.2279  0.1272
25027W        W40836  11.066  12.917  10.342 -0.1548  0.1170  0.0211
25028W        W40837  14.312   0.280   2.016 -0.0143 -0.0742 -0.2433
25029W        W40838   1.869  16.438   0.137 -0.0217  0.5930 -0.0326
25030W        W40839  12.198   1.833  13.435  0.1633 -0.1454 -0.1577
25031W        W40840  18.392   2.774  11.221 -0.0625 -0.5091 -0.0061
25032W        W40841   4.510  18.055  12.791  0.5362 -0.0556 -0.3113
25033W        W40842  13.791   5.539   1.135  0.0726 -0.0990  0.0658
25034W        W40843  11.700   0.323   5.844  0.0251 -0.0439 -0.1606
25035W        W40844  18.359  18.743   0.250  0.2237 -0.1262  0.1676
25036W        W40845   1.607   7.515  13.160  0.4225 -0.0715 -0.2122
25037W        W40846   1.533  10.981  12.431 -0.0067  0.0260  0.1159
25038W        W40847   2.276   7.980  15.240  0.1194 -0.0219 -0.0201
25039W        W40848   5.744   2.997  10.855 -0.0318  0.1412 -0.2157
25040W        W40849   6.181  11.234  12.983 -0.3587  0.0481  0.0311
25041W        W40850   2.488  16.890  12.000  0.4710 -0.0052 -0.1977
25042W        W40851   9.479  12.351   2.499  0.0778  0.0600 -0.2598
25043W        W40852  13.995   9.983   2.797 -0.1995 -0.1254 -0.1848
25044W        W40853   2.204  18.654   4.501 -0.0941 -0.4047  0.1139
25045W        W40854   3.264  17.928  13.998  0.2127 -0.3245 -0.0098
25046W        W40855   7.648  10.986  14.568 -0.0139  0.0025  0.3105
25047W        W40856   9.972   8.083  14.077 -0.0834 -0.0707  0.0333
25048W        W40857   3.899  18.032   4.105 -0.0203  0.0159 -0.1894
25049W        W40858   9.542   4.498   1.221 -0.0937 -0.1205  0.1931
25050W        W40859   8.674   8.973   2.804  0.3443 -0.1143 -0.2308
25051W        W40860  12.935   8.032   2.104 -0.0880  0.0400  0.1160
25052W        W40861   9.390   3.514  11.864  0.0691  0.2836  0.1015
25053W        W40862   5.039   1.049   2.843 -0.1099  0.0972  0.1015
25054W        W40863  18.588   5.589   3.166 -0.1187  0.3646  0.0656
25055W        W40864   2.136   0.467  12.503 -0.0990  0.3200 -0.0821
25056W        W40865   1.323   5.431   3.875  0.0781 -0.1272 -0.0878
25057W        W40866   2.107   4.826  11.276  0.1968 -0.0905  0.1914
25058W        W40867   9.846   4.821  12.671  0.0492  0.0325 -0.1927
25059W        W40868  18.606   5.240   5.459 -0.1691  0.0767 -0.0577
25060W        W40869  14.130   3.837   5.160 -0.1517 -0.2298  0.2809
25061W        W40870   8.670   9.435   0.922  0.0390 -0.1920  0.0289
25062W        W40871  15.462   0.440   5.419 -0.0969  0.0303  0.1875
25063W        W40872  15.310   0.444  14.954 -0.1938  0.0625  0.1725
25064W        W40873   6.123   6.281  11.630 -0.0867  0.3269 -0.0912
25065W        W40874  15.439  13.812   3.375  0.1086  0.0453 -0.2907
25066W        W40875  11.938  17.765   2.007  0.3187  0.2210  0.1411
25067W        W40876   8.425   7.659  10.403  0.5108 -0.0849  0.2575
25068W        W40877   1.796   2.722   3.747  0.1748  0.2789  0.1350
25069W        W40878   0.107   0.163   0.914 -0.0009 -0.1195 -0.3375
25070W        W40879   0.680   8.876  12.346  0.1386  0.0002 -0.2015
25071W        W40880  11.823   3.543  11.057  0.1622  0.2159 -0.0254
25072W        W40881  17.161  17.310  11.532 -0.4500  0.4884 -0.1352
25073W        W40882  10.235  14.608  13.344 -0.3386 -0.1602  0.2172
25074W        W40883   1.040   9.965   1.961  0.2449  0.0631  0.2844
25075W        W40884  13.525   7.588   0.718  0.4408  0.2254  0.0131
25076W        W40885   8.211   9.880  15.181  0.2143 -0.1863 -0.1971
25077W        W40886  15.439  12.234   0.204 -0.0511  0.0259  0.2305
25078W        W40887   5.891   0.759   0.315 -0.1347 -0.2401 -0.3784
25079W        W40888  11.388   3.173  12.154  0.2180 -0.0450  0.0044
25080W        W40889  16.469   1.055  10.762 -0.2004 -0.1211  0.0882
25081W        W40890   8.000  15.293   4.001  0.0814 -0.1192  0.2073
25082W        W40891   8.515  15.033   1.270  0.2633 -0.1500 -0.0053
25083W        W40892   8.721   8.893  14.434 -0.0610  0.0817  0.2376
25084W        W40893  15.164  13.157   0.626  0.2114  0.1896  0.1076
25085W        W40894   0.382   7.587  13.986  0.0487 -0.0647  0.1956
25086W        W40895  10.653   7.829  12.110  0.2831 -0.0246 -0.1991
25087W        W40896   6.802   2.383   0.082 -0.3072 -0.1390 -0.3266
25088W        W40897   7.590   3.450   5.121  0.1169  0.4683  0.0706
25089W        W40898   9.994  17.428   3.964 -0.2233 -0.0088  0.2457
25090W        W40899  14.828   0.412  15.058 -0.2027  0.0490 -0.1927
25091W        W40900   2.364  10.062   4.919  0.2553 -0.1662 -0.0217
25092W        W40901   8.553  16.342   4.751 -0.0750 -0.1931  0.0190
25093W        W40902  16.885   7.694  15.203 -0.0293 -0.1929  0.1114
25094W        W40903  16.883   2.000   2.906  0.0924  0.1977 -0.1444
25095W        W40904  18.372   1.982  15.224 -0.0660  0.2382 -0.2671
25096W        W40905  17.237   5.221   1.320 -0.0392  0.0212  0.1615
25097W        W40906   8.013  14.279  15.354 -0.1050 -0.0235  0.1280
25098W        W40907   8.625  10.611   0.014 -0.1154 -0.1394  0.2182
25099W        W40908  14.442   3.989   3.475  0.0988 -0.0100 -0.1430
25100W        W40909  10.541   5.939   4.756 -0.2856  0.2955 -0.0567
25101W        W40910   7.880  18.416   9.605 -0.3274  0.1258  0.2855
25102W        W40911   5.562  13.388  11.171 -0.2331  0.1802 -0.0967
25103W        W40912  11.636   6.275   5.274  0.1168 -0.1108 -0.1863
25104W        W40913  12.100  17.582  12.219 -0.0815  0.1110 -0.2879
25105W        W40914   1.006  15.801  14.753 -0.1045  0.1032  0.3806
25106W        W40915   7.399  10.522  12.060 -0.3928 -0.0039 -0.0561
25107W        W40916   6.212  10.071   1.282  0.0164  0.0334 -0.2305
25108W        W40917  17.624   4.679   2.796 -0.2009 -0.1010  0.3173
25109W        W40918  15.410  15.085   1.198  0.4559 -0.1335 -0.0252
25110W        W40919   0.460  13.813  13.194 -0.0172  0.2035  0.2084
25111W        W40920  14.713   1.214  14.694 -0.0772 -0.3167 -0.0948
25112W        W40921   3.175   7.314   1.335  0.2829 -0.3206  0.0201
25113W        W40922  13.943   6.831   5.169  0.2303  0.3946 -0.5261
25114W        W40923   3.964   3.004  15.364 -0.1644  0.1461  0.4432
25115W        W40924  12.158   5.336   2.594  0.1818  0.0312  0.0823
25116W        W40925   6.449  12.188  10.872 -0.1409 -0.0415  0.1202
25117W        W40926   6.352  17.622   4.667  0.0334  0.3702 -0.0991
25118W        W40927  17.740   1.787  14.998  0.1660  0.2573 -0.2889
25119W        W40928  18.535  15.196  11.985 -0.2566 -0.0958 -0.1034
25120W        W40929  12.596   1.450   4.965 -0.1938  0.3031 -0.1728
25121W        W40930   1.695  17.911   0.294  0.4008 -0.0957  0.1905
25122W        W40931  18.747  10.800   5.123 -0.1732 -0.2871  0.0078
25123W        W40932   7.755  12.701  13.175 -0.0180  0.0751  0.1057
25124W        W40933   4.932   5.514   1.308 -0.0411  0.1069 -0.2425
25125W        W40934   6.318   6.619   1.272 -0.0212 -0.0163  0.0987
25126W        W40935   3.625   1.577  13.683 -0.0448 -0.2518 -0.0943
25127W        W40936  13.231   5.436   0.847 -0.1352 -0.0774  0.0987
25128W        W40937   3.665  18.740   4.088 -0.0254 -0.3377  0.0235
25129W        W40938  17.939   0.368   1.750  0.1400 -0.1651 -0.1671
25130W        W40939   9.362   0.677   1.171 -0.2665  0.1214  0.1162
25131W        W40940   3.432   9.913   1.397 -0.1120  0.0649 -0.1382
25132W        W40941  14.597   1.422  11.300 -0.4103  0.1926  0.0637
25133W        W40942  12.104  12.190  14.168  0.3375  0.1717  0.2822
25134W        W40943   0.489  11.132   5.557 -0.2333 -0.1610 -0.0110
25135W        W40944  15.783  18.650  14.856  0.0881  0.0926 -0.0172
25136W        W40945   1.691  11.714   1.311  0.3571  0.2105  0.0705
25137W        W40946  16.722   6.091   5.079  0.1486 -0.2843 -0.0998
25138W        W40947   3.627   8.711  12.431  0.3331  0.0092 -0.0599
25139W        W40948  12.207  10.796  13.261 -0.1021  0.1368  0.2318
25140W        W40949  14.380   7.385   4.030 -0.3536 -0.0460 -0.3744
25141W        W40950   0.837  18.358   3.409 -0.0138 -0.2766 -0.0751
25142W        W40951   8.264   5.622  14.229  0.0488  0.0222 -0.0999
25143W        W40952  17.148  10.207   0.149  0.0784 -0.1144 -0.1776
25144W        W40953   1.737  15.321  13.864  0.0753 -0.0379 -0.0841
25145W        W40954   8.880   5.440   2.207  0.0031 -0.2792 -0.3646
25146W        W40955  14.176   2.327  10.528  0.2240 -0.0359 -0.0273
25147W        W40956  12.372   0.349  12.770  0.0106 -0.1075  0.1332
25148W        W40957   1.928  13.097  13.616  0.0033 -0.0768 -0.0533
25149W        W40958  16.283  12.885   4.012  0.0933  0.1456 -0.1711
25150W        W40959   5.506  18.608   2.363  0.0566 -0.2066 -0.1087
25151W        W40960  17.397  15.695   0.420  0.0298 -0.1458  0.2028
25152W        W40961  17.525  17.629   4.185 -0.1767  0.1514  0.2997
25153W        W40962   8.173  18.538  11.475  0.1506 -0.1681  0.2095
25154W        W40963  13.490   3.958  11.440 -0.1101 -0.1038  0.0761
25155W        W40964  18.567   0.256   3.976 -0.3036  0.1673 -0.0146
25156W        W40965   6.326   7.540   1.803 -0.3514 -0.1054 -0.2859
25157W        W40966  15.991  13.781   3.471  0.0097 -0.1738  0.1366
25158W        W40967   4.555  17.903  10.935  0.1205  0.1584 -0.0653
25159W        W40968  11.800   1.722   3.560 -0.0100  0.0572 -0.2262
25160W        W40969  13.893   3.767  13.719 -0.1427 -0.1590  0.1254
25161W        W40970  11.426   6.653  15.403 -0.2132  0.1818  0.1935
25162W        W40971   0.549   4.619   2.896  0.0000 -0.0319  0.2125
25163W        W40972   4.058  16.563  12.991 -0.3154 -0.1865 -0.4592
25164W        W40973  13.725   9.772  14.640  0.0991 -0.4324 -0.2217
25165W        W40974  13.303   9.172   1.445  0.2200  0.0820 -0.1444
25166W        W40975  16.752  13.930   5.978 -0.0930 -0.2244  0.1572
25167W        W40976   8.617  13.847  12.392  0.0343 -0.1493  0.1277
25168W        W40977   8.992  16.813  11.526 -0.1992  0.1162 -0.4273
25169W        W40978  12.955   8.172  13.397 -0.0336 -0.0025  0.1153
25170W        W40979  16.652  14.775   4.214 -0.0702 -0.1377 -0.2368
25171W        W40980   2.454  13.687  14.338  0.1790 -0.2215 -0.1916
25172W        W40981   8.112  18.885   1.887 -0.2872 -0.0295  0.3184
25173W        W40982  12.286   3.857  13.756  0.1324 -0.0069 -0.0070
25174W        W40983   9.345  11.259  11.481  0.2419  0.1023 -0.2690
25175W        W40984  14.946   3.679   1.414 -0.1618 -0.3470 -0.0234
25176W        W40985   6.329   0.450   2.685  0.0151  0.2022  0.0578
25177W        W40986   7.678  12.149  10.282  0.0164 -0.0478 -0.0512
25178W        W40987   9.685  12.640   2.095  0.2122 -0.0095  0.1235
25179W        W40988  14.953   5.801  12.211  0.0132 -0.2174  0.0172
25180W        W40989   6.924   3.874   3.889 -0.0319 -0.1541  0.0157
25181W        W40990  12.876  13.761   4.236  0.0496 -0.3145  0.0318
25182W        W40991  13.428  16.422  11.921 -0.1120 -0.0962 -0.0034
25183W        W40992   7.626   9.732  11.134 -0.0725 -0.1500 -0.1558
25184W        W40993  13.273   2.329  13.038  0.1276  0.1672 -0.0542
25185W        W40994   2.419  10.092   2.759  0.0336 -0.3322  0.1631
25186W        W40995   7.894  14.695   2.848  0.0254  0.0820  0.2010
25187W        W40996   4.652  14.453   5.226  0.2100  0.2065  0.1920
25188W        W40997   3.246   9.274  13.494 -0.1327  0.0215 -0.0291
25189W        W40998  10.638  16.585  14.605 -0.0399 -0.0046 -0.0121
25190W        W40999   2.334  10.831   0.758 -0.1079  0.2281 -0.1002
25191W        W41000  16.960  17.563  14.722  0.0037  0.0538  0.3160
25192W        W41001   6.783  10.985  13.481 -0.1323  0.1634  0.1676
25193W        W41002  14.992  18.242   4.035 -0.2490  0.0546 -0.0054
25194W        W41003  15.175  12.088  14.863  0.1466 -0.0434 -0.2054
25195W        W41004   7.784  17.054   3.531 -0.1338 -0.1811  0.1360
25196W        W41005   9.465   1.309  13.730 -0.2332 -0.1247  0.0766
25197W        W41006  10.403  14.997   1.805  0.2260  0.0252 -0.1576
25198W        W41007   3.012   5.681   1.682  0.3398  0.1649 -0.5755
25199W        W41008   5.544   1.748  12.490  0.3683 -0.1800  0.1838
25200W        W41009  18.082  13.733  10.752 -0.1133  0.0519  0.0012
25201W        W41010  13.287   1.792   0.332  0.2167 -0.0644  0.0280
25202W        W41011  16.719  17.181  15.047 -0.0463  0.1183  0.0264
25203W        W41012   3.892   3.816  14.104 -0.3192 -0.2252  0.4379
25204W        W41013   2.538   3.896  12.119 -0.0917 -0.2934  0.0329
25205W        W41014  15.663   0.059   4.934  0.0852 -0.1221 -0.0177
25206W        W41015   8.359   8.734   4.702  0.0190 -0.3647  0.2406
25207W        W41016   3.366   3.672   1.952 -0.2076  0.1519  0.1065
25208W        W41017  16.863   5.994   1.883  0.2119 -0.1662  0.0858
25209W        W41018   3.351  12.326   1.455  0.4443 -0.4909 -0.4461
25210W        W41019   2.698   5.860   0.006  0.3669  0.0254 -0.0315
25211W        W41020  13.933   9.011  15.277  0.0824 -0.2780 -0.1166
25212W        W41021  18.195  12.583   2.460  0.2801 -0.4482  0.0967
25213W        W41022   4.063   3.234  14.935  0.2505  0.0395 -0.0472
25214W        W41023  11.979  16.238  10.847 -0.0488 -0.0539 -0.2106
25215W        W41024   2.402   0.001   3.614  0.1922  0.2978  0.1460
25216W        W41025  16.225   4.337  10.981  0.2524  0.2276 -0.1660
25217W        W41026  13.685   0.633   0.972  0.0857  0.0594  0.1161
25218W        W41027   0.406  18.511   3.739  0.1057  0.0041 -0.1514
25219W        W41028   4.998  12.788  11.614  0.0406 -0.1102  0.0678
25220W        W41029  16.345   9.232   3.485 -0.0758 -0.1322 -0.1054
25221W        W41030  17.097   9.925   0.820 -0.2797  0.0299 -0.0771
25222W        W41031  10.511   5.518  11.030  0.0821 -0.0511  0.0988
25223W        W41032   6.294  18.156  11.010  0.0730 -0.1971  0.0978
25224W        W41033  17.821   9.241   4.882  0.0861  0.1051  0.0408
25225W        W41034  12.251  10.352   2.399 -0.1071  0.3633  0.4950
25226W        W41035  13.205   7.595   2.414 -0.2288 -0.2252  0.0457
25227W        W41036  11.888   4.601  15.212 -0.0577  0.1201 -0.0937
25228W        W41037   8.553   7.441   1.632  0.0647  0.1538  0.2192
25229W        W41038   4.613   3.847  10.620  0.0545 -0.1087  0.1540
25230W        W41039   9.271   7.430   4.721 -0.2234  0.1291 -0.5012
25231W        W41040   7.963   6.016  13.536  0.0804 -0.1837 -0.2635
25232W        W41041  17.893   2.186   5.532  0.2071 -0.1362  0.0570
25233W        W41042  15.037   5.302   1.427  0.1800  0.2248  0.0246
25234W        W41043   6.456   9.175   3.270 -0.1270  0.0659  0.1030
25235W        W41044  16.498   0.995   2.407 -0.2142  0.3521  0.4094
25236W        W41045  16.945  11.462   1.701  0.1509  0.0011  0.1817
25237W        W41046  11.961  15.697  12.671 -0.2549 -0.2221  0.0691
25238W        W41047  15.568  10.879  14.712  0.0661 -0.2248 -0.2997
25239W        W41048   3.884   9.137  12.700 -0.3414  0.4613 -0.0706
25240W        W41049   3.399  10.965   4.249  0.2729 -0.2968  0.1172
25241W        W41050  15.832  18.338   3.115 -0.1420  0.6034 -0.0823
25242W        W41051   4.818  10.731   1.274  0.1008 -0.1389 -0.0077
25243W        W41052   8.050   1.555  14.933 -0.3791 -0.0260  0.0930
25244W        W41053   3.881  17.758   1.955 -0.1005  0.1743  0.0817
25245W        W41054   4.087   5.734   4.436  0.3484 -0.0517  0.4371
25246W        W41055   4.070  11.570  13.538  0.1327 -0.1529  0.1576
25247W        W41056   7.959   5.639  10.886 -0.0576  0.1295  0.3247
25248W        W41057  16.777  10.622  13.440  0.0890 -0.0579 -0.1381
25249W        W41058   1.589   5.786   3.073 -0.0236  0.3310 -0.2620
25250W        W41059   8.064   5.811   0.855 -0.2219 -0.1143 -0.1900
25251W        W41060   2.919  14.565   0.955 -0.2394 -0.0876  0.0476
25252W        W41061   9.655  13.968  14.462 -0.1869 -0.0599  0.0668
25253W        W41062  11.462  15.613  15.121  0.0256  0.0489 -0.1995
25254W        W41063   4.446   6.155   3.091 -0.0802 -0.0298 -0.1590
25255W        W41064  10.544  11.380  12.702  0.1126  0.2024  0.1932
25256W        W41065  17.138   6.518  11.352  0.1178 -0.0560  0.1747
25257W        W41066   5.431  13.097   0.930  0.0075 -0.1823  0.1336
25258W        W41067   3.503  11.917  14.820 -0.0064  0.1013  0.0385
25259W        W41068  16.689   7.878   1.397  0.0962 -0.0532 -0.3187
25260W        W41069   2.449   1.198  13.810  0.0067  0.4486  0.1562
25261W        W41070   8.061  15.616   2.255  0.0286 -0.0138 -0.0708
25262W        W41071  14.614   3.352  11.568  0.1380  0.0506  0.1120
25263W        W41072   2.198   1.482  15.241  0.2899  0.0926  0.0216
25264W        W41073   9.045   7.945   4.532 -0.1316  0.1160  0.0969
25265W        W41074   0.715  17.536   4.526  0.2118  0.1633 -0.0347
25266W        W41075  10.258   0.924  13.560 -0.3572 -0.3524 -0.0909
25267W        W41076   9.348   8.843  11.770 -0.0376  0.1930 -0.1024
25268W        W41077  17.967   5.821   2.745  0.3084 -0.0039  0.0590
25269W        W41078   8.077  16.126  14.504 -0.2867 -0.0042 -0.0156
25270W        W41079  10.408  10.352   3.381 -0.0826  0.1159 -0.2734
25271W        W41080  15.431  12.956  14.403  0.3417 -0.0293  0.0410
25272W        W41081  18.894  13.626   0.168 -0.1590  0.2121  0.3032
25273W        W41082   1.332   8.611  12.193 -0.0336  0.0443  0.1866
25274W        W41083   6.425   4.523   0.907  0.2160  0.2843  0.1267
25275W        W41084   3.941   3.339  13.158 -0.1335 -0.4192 -0.1362
25276W        W41085   6.028   5.624   0.153  0.1516  0.6551 -0.0815
25277W        W41086  11.035  12.507   2.214 -0.0143 -0.2669 -0.3378
25278W        W41087   0.490   1.880  13.668 -0.0277 -0.1409  0.2636
25279W        W41088   1.263  15.729  14.225 -0.3660  0.2293  0.0191
25280W        W41089  16.938  10.555   3.352 -0.1431 -0.2428  0.4127
25281W        W41090   7.213   7.151   1.620 -0.3042 -0.0918 -0.0673
25282W        W41091  18.010   4.893   0.251 -0.5329  0.0519  0.1714
25283W        W41092  17.552  13.953  10.980 -0.0461  0.2471  0.2045
25284W        W41093  17.124   0.589   3.297  0.0183 -0.1583  0.2168
25285W        W41094   0.412  15.105   3.762  0.1754  0.1517 -0.2295
25286W        W41095  17.458  14.848   2.305  0.2199  0.1637 -0.3781
25287W        W41096  10.119   5.826  11.362 -0.1924 -0.2168 -0.1826
25288W        W41097   3.594   5.506  11.947  0.0485  0.2741 -0.0968
25289W        W41098   6.368   1.083  13.915  0.0707  0.1738  0.2784
25290W        W41099  13.648   7.733   5.096  0.1616 -0.2491 -0.1280
25291W        W41100  15.784  14.417   2.632 -0.1713  0.0787 -0.2375
25292W        W41101   2.714   7.950  10.421 -0.0821  0.2706 -0.1632
25293W        W41102   3.148   7.046  14.701 -0.0391 -0.2725  0.0966
25294W        W41103  15.304  16.087  10.188 -0.1864  0.1428 -0.1247
25295W        W41104  13.534   3.929   2.793  0.2133  0.0619 -0.0846
25296W        W41105   2.628   9.825  13.575 -0.3621 -0.3261  0.1956
25297W        W41106   4.676  13.382   3.081  0.1472  0.0900  0.0475
25298W        W41107   7.697   0.287  11.621 -0.4367 -0.2892  0.3355
25299W        W41108   7.263  15.188  11.537  0.2729 -0.2706  0.1655
25300W        W41109   4.402   5.369  13.788 -0.1022 -0.0695  0.1825
25301W        W41110  10.510   4.347  11.081 -0.1046  0.1312  0.0489
25302W        W41111   7.564   2.416   5.819  0.0676  0.2960 -0.0254
25303W        W41112   7.640   5.054  14.331  0.0044  0.1783 -0.0077
25304W        W41113   3.155   8.209   4.229  0.1210 -0.0429 -0.0829
25305W        W41114  16.468   6.373   0.159  0.3853 -0.2217  0.2933
25306W        W41115   3.740  10.141   2.120  0.1323  0.2688  0.0531
25307W        W41116  18.885   6.971  13.086 -0.2734  0.1007 -0.0114
25308W        W41117  14.381   8.614   1.906 -0.0723  0.1353  0.1705
25309W        W41118  17.607   7.931   1.806  0.0419  0.4074 -0.2549
25310W        W41119   4.568  16.243  14.664 -0.2918  0.0900 -0.3410
25311W        W41120  18.799   2.179   9.742 -0.0021  0.2731  0.1874
25312W        W41121  10.671   0.201   1.464  0.3581 -0.2926 -0.2637
25313W        W41122  14.115   7.547  15.122  0.2416  0.1198  0.0962
25314W        W41123   1.693  11.460   2.669 -0.1516  0.1159 -0.1095
25315W        W41124   6.509   2.623  12.524 -0.2878 -0.2572 -0.0889
25316W        W41125   3.683  15.843   1.089 -0.0784  0.1786  0.2052
25317W        W41126   9.643  15.987   1.518  0.3517  0.2991  0.2817
25318W        W41127   0.161   2.914  13.835 -0.0264 -0.4878 -0.1617
25319W        W41128  14.570   3.837   3.029 -0.0332  0.2977  0.2866
25320W        W41129  18.612   3.612   2.658 -0.2257  0.1562  0.0405
25321W        W41130  15.208  16.841  11.778  0.2019 -0.3414  0.3374
25322W        W41131  15.221   4.667  12.578  0.1663  0.3790 -0.2495
25323W        W41132  18.775  14.107   0.494  0.1894  0.0098 -0.0454
25324W        W41133  13.136  16.885   0.271  0.0634  0.0344 -0.3531
25325W        W41134   0.737  13.870   0.990 -0.0990  0.1456  0.0676
25326W        W41135   0.798   6.095  10.129 -0.2743 -0.1121  0.0877
25327W        W41136   9.445  15.615   3.909  0.3017  0.1004  0.2745
25328W        W41137  10.142  14.133   4.453 -0.1590 -0.3473  0.1017
25329W        W41138  14.389   5.803   0.231  0.2041 -0.0400  0.2587
25330W        W41139  15.610   0.508  15.379 -0.1294 -0.0254 -0.2565
25331W        W41140   6.305   0.333   1.226  0.1846 -0.3300  0.1753
25332W        W41141   4.142   2.000   5.698 -0.1547 -0.1351 -0.0813
25333W        W41142  14.561  14.739  14.109 -0.2489  0.2894 -0.1050
25334W        W41143  11.603   8.748  10.903 -0.3950 -0.0535 -0.0105
25335W        W41144   2.708   2.657  13.816 -0.0366  0.0062  0.0056
25336W        W41145  13.640  17.434  14.662 -0.1691 -0.0426  0.0084
25337W        W41146  13.478  11.656  14.384 -0.3096 -0.1237 -0.1263
25338W        W41147   0.105  12.255  14.466  0.1625  0.0897 -0.2061
25339W        W41148   6.556   6.683   2.084  0.0262 -0.0873  0.0682
25340W        W41149  12.524   6.569   3.309  0.0139  0.0488 -0.1029
25341W        W41150  16.728  18.348   0.543  0.2699 -0.0017  0.2262
25342W        W41151  14.941  11.498   3.055 -0.2225 -0.0595 -0.1655
25343W        W41152  17.438   2.176   4.453 -0.1745 -0.1584  0.2115
25344W        W41153   2.413   6.442  13.535  0.2871 -0.0162 -0.1635
25345W        W41154  17.354   7.553   5.102 -0.2224  0.2226 -0.0255
25346W        W41155  11.407   5.314   0.501 -0.0574  0.3779  0.1810
25347W        W41156  11.099   8.851  12.398 -0.0785 -0.1481  0.1452
25348W        W41157  14.531  13.726  13.080 -0.0462  0.1865  0.0197
25349W        W41158  12.378  15.712  14.810 -0.0533  0.0053 -0.3550
25350W        W41159   2.696   2.286   0.156 -0.0596 -0.0318  0.0337
25351W        W41160   3.889   5.590  13.671 -0.1247  0.0068 -0.1261
25352W        W41161   6.995  10.785   1.551  0.0635  0.2770 -0.1963
25353W        W41162   8.836   5.340   4.306 -0.0606  0.0567  0.0565
25354W        W41163  12.820   5.873  12.645 -0.2730  0.0078  0.1852
25355W        W41164  16.548   4.758   2.670  0.0554 -0.2781  0.3537
25356W        W41165  14.527   0.157   4.383 -0.0941 -0.0450  0.0045
25357W        W41166   1.366  10.508  14.691 -0.0825 -0.3597 -0.0702
25358W        W41167  12.873  16.570   4.708  0.2128 -0.1681  0.1478
25359W        W41168  18.483   1.289  13.669  0.3340 -0.1646 -0.0523
25360W        W41169   0.962  13.670  11.212  0.2591 -0.0376  0.1263
25361W        W41170   8.735   2.786   0.313 -0.0958  0.2938 -0.1740
25362W        W41171   6.761  15.360   2.194  0.0424 -0.3001  0.0732
25363W        W41172  16.068  16.176   4.177 -0.1888  0.0296  0.0519
25364W        W41173   8.840   9.022   1.273  0.0757  0.1085  0.2499
25365W        W41174  18.184  18.529   3.476  0.0807  0.1805 -0.2844
25366W        W41175  13.078   6.300  11.040  0.0332  0.1258  0.0385
25367W        W41176  16.497  18.630   3.433 -0.0084  0.2091 -0.0864
25368W        W41177  10.538   5.090   2.241 -0.2645 -0.1131 -0.0336
25369W        W41178   8.453  14.937   0.291 -0.0929 -0.0329 -0.1496
25370W        W41179   7.465  10.270   4.707  0.2572 -0.0501 -0.0509
25371W        W41180   8.079   5.566   2.823 -0.0276  0.2770  0.2239
25372W        W41181   2.022  13.001   0.416 -0.0329 -0.0019 -0.1494
25373W        W41182   4.672  15.834  14.239 -0.2129 -0.2735  0.1755
25374W        W41183  16.455  11.975   3.870  0.0245 -0.0793  0.0581
25375W        W41184   4.165  14.349  14.435 -0.1366  0.0008  0.0480
25376W        W41185  18.568   9.082  10.593 -0.1365  0.0615  0.0428
25377W        W41186  18.307  17.725  12.939 -0.0716  0.1208  0.3513
25378W        W41187   3.675  15.517   0.676  0.2429  0.1475  0.0566
25379W        W41188  17.825  13.187  12.228 -0.0260 -0.0425 -0.2184
25380W        W41189   3.784  14.959   1.214  0.2084  0.1545  0.0428
25381W        W41190   0.672   1.426  12.156 -0.0480 -0.1112 -0.2267
25382W        W41191   0.986  15.831  10.528  0.0994 -0.1739  0.0839
25383W        W41192   6.743  15.854  15.312  0.0730  0.2494  0.1570
25384W        W41193  11.021   0.814  10.549  0.3293  0.0842 -0.3620
25385W        W41194   0.295   0.479  11.882 -0.0525 -0.1859 -0.1770
25386W        W41195   8.095   4.782  12.616  0.0757 -0.1845 -0.1760
25387W        W41196   7.951   3.401   4.577  0.4196  0.3783 -0.0100
25388W        W41197  13.343   1.441   4.296 -0.3778 -0.3159 -0.0597
25389W        W41198   0.975   8.724   1.415  0.0851 -0.3806 -0.3184
25390W        W41199   3.470   0.315   0.690 -0.3555 -0.1248 -0.0859
25391W        W41200   5.013   5.424  13.457  0.0742 -0.2443 -0.2447
25392W        W41201   0.224   4.431   2.463  0.3086 -0.1665  0.1746
25393W        W41202  17.173  18.447  13.589  0.2023  0.1325 -0.0189
25394W        W41203   9.275  16.466   5.344  0.0152 -0.0998  0.1896
25395W        W41204   7.944   7.443  10.514  0.0139 -0.2932  0.4066
25396W        W41205   5.596  11.549  12.358 -0.1041 -0.0973  0.2161
25397W        W41206  15.235   2.809   1.159 -0.2799  0.1919 -0.1086
25398W        W41207   5.633  15.901  14.423 -0.4171 -0.0633  0.2150
25399W        W41208  15.782   6.115   1.821  0.0832  0.1418  0.1060
25400W        W41209   7.882  12.668   5.339 -0.0269 -0.1026  0.1935
25401W        W41210   7.424   1.289  10.653  0.2584  0.2127 -0.0951
25402W        W41211   3.731   7.017  12.358  0.2273 -0.1721 -0.0709
25403W        W41212  13.054   2.116   3.258 -0.2231 -0.0651  0.1528
25404W        W41213  10.744  10.694   1.184  0.3080 -0.1020  0.0185
25405W        W41214   6.774  13.318  10.509  0.3050 -0.1655  0.0322
25406W        W41215  15.585  17.599  11.248 -0.1007  0.0925  0.2693
25407W        W41216  10.787  16.001  13.739 -0.0952 -0.0532  0.1120
25408W        W41217  11.964  12.967  11.663  0.0087  0.1797 -0.0505
25409W        W41218  11.065  12.222  13.617  0.2024  0.2113  0.1027
25410W        W41219  17.620  10.519  14.058 -0.0740  0.1714  0.2276
25411W        W41220  15.208  12.049   2.789 -0.0696 -0.3262 -0.0222
25412W        W41221  10.459  10.840   3.744 -0.1696  0.3721  0.0721
25413W        W41222  14.256  12.229   4.782 -0.0723  0.4783 -0.2930
25414W        W41223  11.523  10.711   2.468 -0.1628 -0.0175 -0.3113
25415W        W41224  13.502   4.305  14.736  0.3192 -0.1768 -0.3056
25416W        W41225  18.768   4.483  11.184 -0.0594  0.0529  0.2226
25417W        W41226  11.725   1.108  13.306 -0.0393  0.2638 -0.0833
25418W        W41227   4.825  15.205   1.643 -0.1342  0.0008 -0.1724
25419W        W41228   5.973   9.777   2.967 -0.0829 -0.1217  0.3485
25420W        W41229  13.776   3.862  14.770 -0.0430 -0.3410  0.1175
25421W        W41230   2.565  17.419  12.074  0.0966  0.2205 -0.0431
25422W        W41231  13.555   9.641  11.811  0.1538 -0.0580  0.1807
25423W        W41232  18.848   9.888  10.916 -0.3560 -0.0722 -0.1033
25424W        W41233  16.373  15.186  12.204  0.1507  0.2028  0.1083
25425W        W41234  12.516  12.137  10.993 -0.0691  0.1914  0.1390
25426W        W41235  17.874   0.802  11.289 -0.1124  0.2899 -0.4804
25427W        W41236   9.277  10.999   0.386  0.1449  0.5407 -0.1909
25428W        W41237  11.424  16.165   1.330  0.1202 -0.0718 -0.0277
25429W        W41238  13.990   5.922   4.792 -0.1262 -0.0882  0.1517
25430W        W41239  13.444  13.995   4.830  0.1113 -0.0423  0.3083
25431W        W41240  14.034  18.500   5.824  0.2345  0.1551  0.0771
25432W        W41241  14.539   1.036  12.356 -0.3002 -0.0156  0.1990
25433W        W41242  15.445  10.709  13.464 -0.1003  0.3541  0.0529
25434W        W41243  17.304   6.902   4.994 -0.1730  0.0362  0.0834
25435W        W41244  14.026  10.621   6.193  0.0208  0.1980 -0.0129
25436W        W41245   8.834   5.625   0.548  0.1417  0.2000  0.1240
25437W        W41246   4.817  14.929   5.184 -0.2931  0.1769  0.0952
25438W        W41247  18.695   2.076   5.258  0.0713 -0.1144 -0.3123
25439W        W41248   5.754  17.718   1.593 -0.1710 -0.0592 -0.5079
25440W        W41249   0.003  17.521   4.433  0.0021 -0.1136 -0.0722
25441W        W41250   1.652  11.968  10.778  0.0114  0.1727  0.1755
25442W        W41251  16.114  14.518  14.294 -0.3113 -0.5088  0.1666
25443W        W41252  16.429  11.194  10.568  0.0717 -0.3765  0.0784
25444W        W41253  17.384   0.993   0.055 -0.0416  0.3459  0.3856
25445W        W41254  16.483  17.204  12.249 -0.0008 -0.1876  0.0906
25446W        W41255   9.215   0.762   2.047 -0.1970  0.3661 -0.3091
25447W        W41256  14.587  17.228   2.724 -0.2406  0.3383  0.6077
25448W        W41257   9.214  12.607  13.569  0.3285 -0.0847  0.1170
25449W        W41258  15.852  14.425  10.779  0.1171  0.0519 -0.1791
25450W        W41259  13.141  14.379  13.807 -0.3063  0.3421  0.1971
25451W        W41260   8.476   2.333  12.199  0.1156  0.2841 -0.3215
25452W        W41261  13.701  15.825  13.904 -0.0004  0.0996  0.3505
25453W        W41262  13.131   3.256  14.687  0.1065  0.0305 -0.0942
25454W        W41263   3.573   3.533  13.695  0.1400  0.0451  0.1856
25455W        W41264  12.611  13.215   1.257 -0.0303  0.1354 -0.4289
25456W        W41265   2.062   6.643  11.451 -0.1747 -0.1379  0.0404
25457W        W41266   0.900  10.332  12.425 -0.0524 -0.1274  0.0343
25458W        W41267  11.805  12.148   2.584 -0.0884  0.0331  0.1247
25459W        W41268   3.889   2.027   0.892 -0.1266  0.0983 -0.4806
25460W        W41269   9.622   2.426   2.971 -0.2049 -0.0570 -0.4850
25461W        W41270   2.265  13.351  14.742  0.0909 -0.0250  0.2105
25462W        W41271   6.381   1.158  11.103  0.2171 -0.2163  0.1543
25463W        W41272  17.611  11.815  14.286  0.0139  0.0585 -0.0622
25464W        W41273   7.667  15.052  12.558 -0.0523 -0.1396 -0.0085
25465W        W41274  10.638   9.125  12.320 -0.3426 -0.1200 -0.2361
25466W        W41275   1.597  18.865   9.500  0.2572  0.0937  0.1234
25467W        W41276   7.519  14.692  11.698 -0.1216 -0.0096  0.0637
25468W        W41277  10.521  18.268   3.910 -0.1123  0.0240 -0.1108
25469W        W41278  13.394   3.422   1.648 -0.1704 -0.0781 -0.3162
25470W        W41279   3.353   6.708  15.112 -0.1651  0.0216 -0.1080
25471W        W41280  16.265   0.262  11.488  0.1047  0.1453  0.0162
25472W        W41281  16.818   6.263  12.312  0.2264 -0.1657  0.3595
25473W        W41282   7.322   2.969   3.526  0.0475  0.1437 -0.4138
25474W        W41283  13.024  13.647   2.967 -0.0452 -0.1398 -0.0860
25475W        W41284   1.844  18.390  13.406 -0.0116  0.4542 -0.3861
25476W        W41285   9.366  12.126  14.464  0.0594  0.1410  0.0520
25477W        W41286   0.787   4.442   9.548 -0.2313 -0.1315  0.0444
25478W        W41287   6.321  12.831   1.619  0.2227  0.1374  0.0026
25479W        W41288  14.207   8.217   1.633 -0.0887 -0.1670  0.1306
25480W        W41289  17.191  10.262   2.906 -0.1743 -0.0087  0.2215
25481W        W41290  17.990  11.147  13.153 -0.1750  0.1649  0.3951
25482W        W41291  10.160   6.343   5.080  0.1564  0.0247 -0.2512
25483W        W41292  14.815  11.782  14.532 -0.0826  0.3004  0.1117
25484W        W41293  14.699  12.425  11.795 -0.3205 -0.0963 -0.1201
25485W        W41294  10.403  13.759   4.604  0.1739 -0.2235 -0.0964
25486W        W41295   6.573   4.581   2.595 -0.0469  0.1792 -0.1136
25487W        W41296  14.373   5.964   4.330  0.2385  0.1484 -0.1184
25488W        W41297  18.005  13.969  11.902  0.1460  0.1654 -0.0576
25489W        W41298   3.619  15.072  14.406 -0.3094 -0.2177  0.1860
25490W        W41299   8.330   9.010   1.018  0.1393  0.2030 -0.3072
25491W        W41300  14.027  12.158  11.920 -0.4412 -0.0541  0.0356
25492W        W41301  11.345   7.317  11.811  0.0268 -0.2157  0.2476
25493W        W41302   9.777   0.050  13.237 -0.0682 -0.1377 -0.0224
25494W        W41303  12.711   9.040  10.831 -0.1710  0.3667  0.0709
25495W        W41304   0.510   0.707   5.157 -0.0591 -0.4146 -0.0761
25496W        W41305   3.875  18.209   2.890 -0.1626  0.0990 -0.0339
25497W        W41306  18.665   4.548   3.778 -0.1153  0.1582  0.1824
25498W        W41307   4.897  17.010  11.386 -0.2844 -0.2025 -0.2194
25499W        W41308   9.745   9.675   2.764 -0.0609 -0.2381 -0.0352
25500W        W41309   9.715   5.771  14.412  0.1492 -0.1112 -0.2232
25501W        W41310  18.889   8.161   3.409 -0.1379 -0.1161  0.0484
25502W        W41311   4.597  14.014   3.022  0.0341  0.4703  0.1126
25503W        W41312  11.168   7.129   2.460  0.1009  0.1235 -0.1749
25504W        W41313   8.371   4.937   4.950 -0.0115 -0.0847 -0.2464
25505W        W41314   0.715  11.137  14.787 -0.2462  0.1588 -0.0293
25506W        W41315   2.487  18.394  13.844 -0.1578  0.0162 -0.1422
25507W        W41316  14.469  17.218  12.343 -0.0876  0.0953  0.2083
25508W        W41317   8.671  15.901  13.782 -0.2502  0.0906  0.2043
25509W        W41318   2.641  11.707   2.939  0.0268 -0.1981  0.1135
25510W        W41319  17.073   9.459   3.150 -0.0129 -0.0335  0.3530
25511W        W41320   7.858   3.889  11.605  0.0090 -0.3860 -0.2614
25512W        W41321  13.015   0.559   4.810  0.3533 -0.0540 -0.3563
25513W        W41322   2.002  14.561   2.035  0.0548  0.4388 -0.0494
25514W        W41323  11.089   8.476   2.302  0.1402  0.0573  0.0682
25515W        W41324  14.459  17.293  11.359  0.0015 -0.0589  0.3567
25516W        W41325  11.257   0.007  11.814 -0.1236  0.1554  0.1708
25517W        W41326   4.215   1.284   5.155 -0.0128 -0.0895 -0.0991
25518W        W41327   9.147  10.600  10.744  0.1105  0.2198 -0.2181
25519W        W41328   6.624   3.883   1.407  0.1314 -0.0412 -0.2855
25520W        W41329   9.602  11.674   3.130 -0.1146 -0.0404 -0.1279
25521W        W41330  11.358   5.111   1.706  0.0384  0.1551 -0.1474
25522W        W41331  17.615   9.718  12.954  0.1649  0.0625  0.1374
25523W        W41332   7.520  12.799  14.583  0.1929  0.1002  0.0194
25524W        W41333   5.152  16.348   1.797 -0.1415 -0.1345  0.1667
25525W        W41334  14.147   6.037  13.207 -0.0558  0.2882 -0.1419
25526W        W41335   7.123  14.698  11.408 -0.0232 -0.0820 -0.0586
25527W        W41336   8.103  17.362  15.380 -0.2402 -0.0849 -0.1422
25528W        W41337  17.222   2.770  11.062 -0.4837  0.4284 -0.2189
25529W        W41338   6.243  15.937   3.317  0.1885 -0.0303 -0.1944
25530W        W41339   1.434  13.634  10.415 -0.2297  0.0945  0.0897
25531W        W41340   5.075  11.021   3.306 -0.0877  0.0169  0.0988
25532W        W41341   4.335   5.302   2.899  0.2641 -0.0615 -0.1702
25533W        W41342  13.343   7.824   3.711 -0.0344  0.0186  0.0221
25534W        W41343  10.887   9.577  13.131 -0.4072 -0.2916  0.2385
25535W        W41344   6.893   0.994  13.942  0.3110 -0.1887 -0.4359
25536W        W41345  13.831  17.835  11.838  0.1815 -0.2684  0.2148
25537W        W41346   1.010  17.880   9.775 -0.2465  0.0716 -0.0452
25538W        W41347   9.255   0.614  10.622 -0.0830 -0.0954 -0.1910
25539W        W41348   4.506   8.108   5.607  0.3029  0.0901  0.0103
25540W        W41349  12.247   5.474   5.155  0.1010 -0.3101  0.1654
25541W        W41350  12.893  18.538  12.620 -0.1912  0.0975 -0.0311
25542W        W41351  10.884   0.324   3.864  0.1009 -0.3243 -0.0848
25543W        W41352   8.037   9.511   4.827 -0.4343 -0.1236  0.0744
25544W        W41353  15.644   0.141  15.053 -0.3468  0.1556 -0.3019
25545W        W41354  13.156   6.002   3.545  0.0277  0.0732 -0.0355
25546W        W41355   5.725  17.881  13.781 -0.0446  0.3897 -0.1522
25547W        W41356   8.967   0.112   5.599 -0.1571 -0.3357  0.0349
25548W        W41357   9.652  11.130  11.910  0.1779  0.1674  0.3130
25549W        W41358  12.315   9.462  13.063 -0.1130  0.3269 -0.1221
25550W        W41359   3.118   4.660  12.198 -0.0510 -0.2923 -0.0190
25551W        W41360  17.119   9.547  12.870 -0.0691 -0.0038  0.0262
25552W        W41361  16.330  12.433   1.288 -0.0953  0.0677  0.0647
25553W        W41362  18.043   5.428   0.072 -0.0528  0.0180 -0.2172
25554W        W41363   0.003   1.189   2.908  0.1402 -0.0161  0.2276
25555W        W41364   4.467   0.783   3.786 -0.0918 -0.1167 -0.1543
25556W        W41365  13.885   4.687   4.914  0.0589  0.0753  0.1828
25557W        W41366   2.694  14.303  10.704  0.1215 -0.3521 -0.0536
25558W        W41367   5.426   0.234  11.826 -0.3342  0.0382 -0.1249
25559W        W41368   1.027   5.600  14.258 -0.4496 -0.0680  0.1802
25560W        W41369   4.520  16.847  14.048 -0.0663 -0.1460 -0.0241
25561W        W41370  15.358   2.047  11.293 -0.0684  0.1302 -0.1105
25562W        W41371  18.526   5.239  14.480 -0.0302 -0.1450  0.0745
25563W        W41372   1.809   3.394  12.470  0.3458 -0.3642  0.0898
25564W        W41373  14.979  16.678  13.183 -0.1513  0.0401  0.3707
25565W        W41374  16.021   5.561  14.576  0.3968 -0.1413 -0.1823
25566W        W41375  17.322  17.113  13.423  0.1678 -0.0977 -0.1021
25567W        W41376  13.577   9.437  10.823 -0.0878  0.0495  0.2079
25568W        W41377  17.096   8.155   0.201 -0.2719 -0.0624 -0.1104
25569W        W41378  10.210  17.642   4.553  0.2007 -0.0371 -0.0071
25570W        W41379  11.603   8.924  14.074  0.1353  0.0935  0.3036
25571W        W41380  10.113   0.280  14.538 -0.4194  0.1186 -0.4759
25572W        W41381   2.293  13.322   2.155 -0.0033  0.1409  0.2664
25573W        W41382  11.122   9.292   1.775  0.0630  0.0834 -0.1804
25574W        W41383   9.098   4.754  15.064  0.1211  0.2074 -0.3461
25575W        W41384   5.496   9.189   4.147 -0.2225 -0.0501  0.0208
25576W        W41385   3.037  10.101  13.837  0.0642  0.0342 -0.0631
25577W        W41386   4.688   5.393   5.264  0.0659 -0.0524  0.3244
25578W        W41387  12.187   7.375   2.281  0.2143  0.1200  0.1999
25579W        W41388  12.524  12.090   1.132 -0.3453 -0.0527  0.0287
25580W        W41389  17.041  14.930   1.512 -0.0016 -0.4697 -0.0793
25581W        W41390  13.772   1.723   5.251 -0.1278  0.0249 -0.1328
25582W        W41391  16.700  15.238   1.176 -0.2853  0.0733  0.0200
25583W        W41392   2.126   3.241  13.628  0.0299  0.2695  0.1779
25584W        W41393   0.693  16.040  15.007  0.3803 -0.0538 -0.4312
25585W        W41394  11.958   1.247  12.545  0.0646  0.1429  0.1004
25586W        W41395   2.086   4.321   0.810  0.1713 -0.1609  0.1345
25587W        W41396  18.759   0.236  14.397 -0.1980  0.0515 -0.1094
25588W        W41397   7.286   7.423   2.091 -0.1434  0.0439  0.3405
25589W        W41398  13.609   7.022  13.206 -0.2318 -0.1396  0.3048
25590W        W41399  14.313   0.122  13.790 -0.0148  0.0712  0.0742
25591W        W41400   1.691  12.116   0.944  0.1911  0.2081 -0.3284
25592W        W41401   1.374  12.643  13.221  0.1494  0.2182 -0.0385
25593W        W41402  14.308   9.769   4.237  0.3532  0.2619  0.0874
25594W        W41403  18.315   9.190   2.366  0.3702  0.0665 -0.1544
25595W        W41404  18.193  13.412   3.649 -0.0128 -0.3316 -0.0981
25596W        W41405  10.485   4.620  10.627  0.3120  0.1389 -0.0485
25597W        W41406  15.760   0.447  12.797 -0.1057  0.1726  0.0123
25598W        W41407   4.120   6.115  12.394 -0.4634  0.2281  0.3711
25599W        W41408  17.230   4.065  13.981  0.0561 -0.0202  0.0769
25600W        W41409   5.622   3.686  12.015  0.3740 -0.2145  0.0153
25601W        W41410  15.538  15.503  11.783 -0.1178  0.2069 -0.2112
25602W        W41411   3.898   2.043  14.941  0.0430 -0.0531 -0.0627
25603W        W41412  16.073   2.422   0.981 -0.1044  0.0717  0.1096
25604W        W41413   7.873   4.289  15.068 -0.0183  0.4601 -0.0750
25605W        W41414  10.218  11.584  13.234  0.2204  0.1412 -0.1150
25606W        W41415  11.587  13.854  12.301 -0.0754 -0.0638  0.1598
25607W        W41416   6.721   6.803   2.547 -0.0743 -0.0408 -0.0430
25608W        W41417   2.340  13.780   3.851  0.0763 -0.1583  0.0123
25609W        W41418  13.695   4.372   2.621 -0.1393  0.1476  0.4012
25610W        W41419  16.772   7.338  11.695  0.2087 -0.1472 -0.0974
25611W        W41420   8.507  15.086  13.305 -0.1802  0.1706  0.0022
25612W        W41421  16.350   3.901   1.489  0.2415  0.0942 -0.0010
25613W        W41422  18.047  13.359   5.011 -0.0769 -0.1113  0.1640
25614W        W41423   2.344   7.882  11.406  0.2046  0.0091 -0.0865
25615W        W41424   2.336  15.416   3.250 -0.1259  0.2806 -0.4604
25616W        W41425  16.007  14.890  12.426 -0.2194  0.1547  0.1749
25617W        W41426   2.697  10.105   3.287  0.0411 -0.1510 -0.0181
25618W        W41427   7.078  10.324  10.864  0.1851 -0.0636 -0.0910
25619W        W41428   9.845   4.168   4.518 -0.0796  0.1070  0.1181
25620W        W41429  11.817   6.153   2.066 -0.0154  0.0573 -0.4075
25621W        W41430  14.589   1.859   2.457  0.1633 -0.0435  0.0621
25622W        W41431  17.298  11.621   2.563 -0.0741 -0.1143  0.0527
25623W        W41432   9.807   8.528   4.427 -0.1460 -0.1433 -0.2298
25624W        W41433   7.435  14.724   2.549  0.3359 -0.1999  0.1597
25625W        W41434  16.836   0.053   5.012 -0.1297  0.1697 -0.0378
25626W        W41435  14.476   5.272   3.531 -0.2021 -0.4477  0.0883
25627W        W41436   2.037  10.864  13.696  0.1966  0.1682  0.0519
25628W        W41437   0.191   8.658   3.454  0.2327  0.1894  0.0329
25629W        W41438   3.634   7.426   0.891 -0.0833  0.0664  0.1257
25630W        W41439  10.569  15.315  14.203  0.2084 -0.1028  0.0028
25631W        W41440   4.650  12.478  13.397 -0.0426  0.2584 -0.2427
25632W        W41441  12.272  10.840   0.159 -0.2729  0.0042  0.2094
25633W        W41442  18.310  11.541   4.692 -0.1033  0.2035 -0.1663
25634W        W41443  15.940  18.651   4.458 -0.1827  0.1451 -0.0354
25635W        W41444  11.756  11.335  13.101  0.0977 -0.2090  0.2040
25636W        W41445   9.682  14.144   1.067  0.1290 -0.0890 -0.3147
25637W        W41446  15.395  14.226  12.364 -0.1628 -0.0884 -0.2039
25638W        W41447  11.616   2.493  12.786  0.0937  0.2768  0.1117
25639W        W41448  14.822  14.718  13.651 -0.1100  0.0968 -0.5084
25640W        W41449  17.807   1.753   5.210 -0.3566 -0.1345  0.0095
25641W        W41450  10.458   2.836  11.551 -0.1202 -0.2412  0.1327
25642W        W41451  18.513   6.890  14.210  0.0219  0.0665 -0.3923
25643W        W41452   1.832   6.204   3.790  0.1858  0.1326 -0.4149
25644W        W41453   6.909   6.008  10.553  0.0617 -0.3525  0.0051
25645W        W41454   3.376   5.874   1.343 -0.2581  0.3469 -0.1215
25646W        W41455   5.442   6.260   1.214 -0.2406 -0.0962  0.0265
25647W        W41456  16.007   3.769  15.390  0.0909 -0.1940 -0.0657
25648W        W41457  12.034   4.711   4.544  0.0479  0.5860 -0.0337
25649W        W41458   9.831  18.023  10.996  0.1886 -0.0496 -0.0889
25650W        W41459  14.848   7.488  13.987  0.2294 -0.1161 -0.1900
25651W        W41460  16.201   8.142   5.448  0.0940  0.0373  0.1627
25652W        W41461   2.595   7.470   3.714  0.0137 -0.1653  0.1354
25653W        W41462  18.277  14.197  12.309 -0.0669 -0.0200 -0.1299
25654W        W41463  14.650  12.660   2.188  0.2079  0.1852 -0.3077
25655W        W41464  14.369  11.021  12.786  0.1466  0.1435 -0.0494
25656W        W41465   6.151   7.409   0.911  0.0531  0.1316 -0.1788
25657W        W41466  13.653  14.185  13.273 -0.0691  0.1735  0.0765
25658W        W41467   8.233  15.067   2.544 -0.2206  0.1954 -0.1775
25659W        W41468   8.721  13.155  10.383  0.1085 -0.0892  0.0973
25660W        W41469   6.723   4.734   3.028  0.2464 -0.0053  0.2388
25661W        W41470   5.430  10.864   0.415 -0.3048  0.2995  0.2421
25662W        W41471   0.683  10.973  15.296  0.0312  0.0746 -0.0417
25663W        W41472  12.224   1.233   0.903 -0.1209  0.0302  0.3062
25664W        W41473   7.895  15.499   5.793  0.2886 -0.0176 -0.0249
25665W        W41474   8.396   6.119  13.341 -0.1411  0.1606  0.1936
25666W        W41475   8.568  18.767   1.194  0.2206  0.1409  0.4043
25667W        W41476  12.903  18.444  10.972  0.0826  0.0743  0.0016
25668W        W41477   3.529  10.305   1.691  0.3120 -0.2753 -0.2553
25669W        W41478  17.574   2.326   5.246  0.0103 -0.0852  0.0316
25670W        W41479   5.109   0.005  12.203 -0.1040  0.3284 -0.2454
25671W        W41480   9.371   7.129   0.793  0.1371 -0.0509  0.0993
25672W        W41481   9.649  10.269  12.557 -0.0278 -0.2436 -0.0616
25673W        W41482   0.181  12.230  10.893  0.1742 -0.2135 -0.1373
25674W        W41483  18.572   5.484  12.564 -0.0441 -0.0514 -0.2421
25675W        W41484  15.162   8.229  14.215  0.2590  0.2958 -0.0474
25676W        W41485   9.790  11.775  13.309  0.0887 -0.1306 -0.0041
25677W        W41486  10.067  17.540  15.330 -0.1835 -0.1283 -0.1398
25678W        W41487  12.931   1.595  14.795  0.0668 -0.1308  0.2256
25679W        W41488   0.109   1.035  11.136 -0.3198 -0.0169  0.2359
25680W        W41489  11.290  15.194   0.919  0.0922 -0.0664 -0.0595
25681W        W41490  11.192   9.972  12.835 -0.2617  0.0784  0.1665
25682W        W41491   9.274  12.510  12.294 -0.0290 -0.5007  0.2458
25683W        W41492  16.535   8.543   5.519  0.0860 -0.4128 -0.0394
25684W        W41493   4.035   2.442  10.250  0.0576 -0.1064  0.2060
25685W        W41494   1.839   3.726  15.243 -0.0796  0.0064 -0.0464
25686W        W41495  13.345   0.960   0.984  0.1089  0.2675  0.0315
25687W        W41496   1.290  16.550  14.647 -0.1347 -0.3029  0.3436
25688W        W41497   0.743  10.981  12.423 -0.1644 -0.0315  0.3869
25689W        W41498   8.749   3.957   1.121  0.2657 -0.0089 -0.0562
25690W        W41499   6.331   2.215   3.042 -0.0185  0.0506 -0.2338
25691W        W41500  11.227  11.457   2.853 -0.1121  0.0152  0.2946
25692W        W41501  18.802   0.977   4.387  0.1904  0.1345  0.1850
25693W        W41502   5.177   1.221   3.415 -0.2925  0.0199  0.0480
25694W        W41503   3.055   8.815  12.254  0.0302  0.0175 -0.1607
25695W        W41504   8.075   2.147  10.940  0.1965  0.0277  0.0353
25696W        W41505  11.676  17.528  11.860  0.1535  0.1085  0.0421
25697W        W41506  10.326  17.573  14.904 -0.1949 -0.2115  0.1619
25698W        W41507   0.292  17.693   1.624  0.2412  0.0693 -0.1718
25699W        W41508   6.774  17.205   1.644 -0.0169  0.5415 -0.0583
25700W        W41509  17.075  11.819   3.376  0.0161 -0.0185 -0.2373
25701W        W41510  15.646  13.405  12.394  0.0968 -0.3174 -0.3442
25702W        W41511   1.121   4.295   2.401  0.1156  0.1881  0.2650
25703W        W41512   7.432   8.190   3.464 -0.0576 -0.1674  0.1926
25704W        W41513  17.444   7.953  13.342  0.1426 -0.1711  0.2910
25705W        W41514  13.737   1.644   0.142  0.0149 -0.0282  0.2717
25706W        W41515   2.705  14.412  13.351  0.1958  0.0900 -0.1170
25707W        W41516   7.451  18.236  14.766  0.1725  0.0340  0.3006
25708W        W41517  11.716   9.541   1.903  0.1658  0.1160 -0.0324
25709W        W41518   1.790   8.429   3.472  0.1147  0.1134  0.0044
25710W        W41519  15.082   8.470  14.978  0.2666 -0.1416  0.0410
25711W        W41520   3.717  16.511   2.392 -0.0971 -0.0991  0.0118
25712W        W41521   4.651  12.923  10.312 -0.0022 -0.0884 -0.1663
25713W        W41522   1.678   9.239  13.378 -0.0881 -0.0929  0.1719
25714W        W41523  10.223  13.805  12.512 -0.1149  0.1199  0.1425
25715W        W41524   0.288  12.697  14.123  0.3856  0.2208 -0.1623
25716W        W41525   1.826   6.980  11.738 -0.3399 -0.2955  0.0722
25717W        W41526  11.254  17.159   9.908 -0.0014 -0.0083 -0.3567
25718W        W41527  12.011  15.536  12.249  0.1018  0.2354  0.1757
25719W        W41528  10.637   4.463  13.443 -0.1312 -0.3283  0.0191
25720W        W41529  18.789   4.353   1.644 -0.3757  0.2123 -0.0627
25721W        W41530  13.954  13.528  11.639  0.1623  0.2863 -0.1061
25722W        W41531   8.875   1.926  14.299  0.1548 -0.1501  0.0328
25723W        W41532  14.014   0.974   2.991 -0.0246  0.2654 -0.0195
25724W        W41533  12.285  15.255   0.346 -0.1087 -0.3722  0.1474
25725W        W41534   8.254   2.036   4.018 -0.0509  0.0005  0.1035
25726W        W41535   9.840   7.506   5.708 -0.3113  0.1796 -0.0726
25727W        W41536  18.111   7.073  14.943  0.4404  0.0011  0.0473
25728W        W41537   3.776   0.381  10.583  0.0001 -0.1126 -0.1708
25729W        W41538  16.741  10.773  12.679 -0.2035 -0.1484 -0.0363
25730W        W41539   3.543   6.401  12.774  0.0941  0.0891 -0.1028
25731W        W41540   4.021   5.947   3.053 -0.0699 -0.1072  0.3173
25732W        W41541   5.978  12.937  12.391  0.2736 -0.0963  0.1274
25733W        W41542   9.755  17.856  13.422  0.0352  0.3130 -0.3594
25734W        W41543   7.023  12.525  11.626 -0.0349 -0.1055  0.0729
25735W        W41544  14.470   3.839  13.896  0.2194 -0.2409  0.0624
25736W        W41545  11.517  12.313   3.353 -0.3082  0.2076  0.1540
25737W        W41546  17.141   1.736  12.497 -0.0094  0.1951 -0.0077
25738W        W41547  15.343   4.679   3.395  0.1973 -0.1450 -0.2880
25739W        W41548  14.259   3.345  12.636 -0.1471  0.2571 -0.0809
25740W        W41549   7.559  15.503  12.394 -0.1739  0.0685 -0.3089
25741W        W41550   4.049   4.617   0.630  0.1726 -0.0074 -0.2205
25742W        W41551   1.413  13.778  11.525 -0.2520 -0.0829 -0.1225
25743W        W41552   5.633   7.316   4.918  0.1602 -0.1189 -0.2422
25744W        W41553  17.203  10.564   3.776 -0.1451  0.6269  0.0703
25745W        W41554  14.242  14.465  10.049  0.1384  0.0191 -0.0287
25746W        W41555  16.754   3.705  12.372 -0.0723 -0.0298  0.1064
25747W        W41556  13.208  10.379  10.614  0.0818 -0.0048 -0.0004
25748W        W41557   5.687   2.541   3.071  0.2545 -0.0614 -0.0897
25749W        W41558  12.092  18.378   1.500 -0.0128  0.0291  0.2865
25750W        W41559  16.500   8.539  11.244  0.0152 -0.3653 -0.6239
25751W        W41560   3.193   2.941  10.893 -0.1535 -0.2501 -0.2203
25752W        W41561   9.500  16.999   1.498 -0.1516  0.1830  0.4254
25753W        W41562  16.135  16.678  14.774 -0.0712  0.1741 -0.1633
25754W        W41563   4.599   1.110   3.366 -0.0833 -0.0870 -0.0708
25755W        W41564   8.837  12.493  12.743 -0.2471 -0.0869  0.0148
25756W        W41565   5.138   7.985   1.846 -0.0727  0.2282 -0.0629
25757W        W41566   9.183  14.806  10.487  0.1100 -0.0572 -0.2210
25758W        W41567   5.354   7.686  14.677  0.0988 -0.0467  0.1384
25759W        W41568   3.503   7.868   0.623 -0.1961 -0.0489 -0.2230
25760W        W41569  15.087   2.638  13.670  0.3247  0.0899  0.3538
25761W        W41570  12.432   9.436   4.690  0.2071 -0.2734  0.0146
25762W        W41571  18.254   9.102  11.056 -0.3856 -0.0193 -0.3189
25763W        W41572  13.307  10.431   5.536  0.1630  0.0752 -0.2890
25764W        W41573  15.851   5.341   2.911  0.2358 -0.0173  0.1597
25765W        W41574  14.965   8.117   0.025 -0.1667  0.1440 -0.1090
25766W        W41575   9.612   0.289   4.427  0.0975  0.0884  0.1191
25767W        W41576   6.524  13.350  13.961  0.3536  0.1039 -0.2618
25768W        W41577   8.344   6.915   2.448 -0.0457 -0.3188  0.0133
25769W        W41578   7.550   4.276   0.245  0.3829  0.2370 -0.1299
25770W        W41579   6.181   3.650   4.357 -0.2690 -0.2566  0.0269
25771W        W41580   6.955  14.117   2.490 -0.1501  0.0582  0.0108
25772W        W41581   2.630   2.897   3.962 -0.0901  0.1807 -0.2674
25773W        W41582  10.987   6.893   2.869  0.1959 -0.0716  0.1814
25774W        W41583  16.822   1.036   4.888  0.0035  0.1277 -0.3765
25775W        W41584  16.048   3.804   1.892 -0.1907  0.2620  0.1123
25776W        W41585   2.040  12.943   4.358 -0.2340  0.1387  0.1352
25777W        W41586   3.515  17.945   3.042  0.0520  0.4953 -0.1028
25778W        W41587  12.354   8.098  13.915 -0.3577  0.0923 -0.0937
25779W        W41588  18.528   3.587  15.076 -0.3300  0.0757  0.0856
25780W        W41589   8.565  15.770   4.089 -0.2210  0.0356  0.1417
25781W        W41590   4.892  11.513  11.306 -0.1626 -0.2086 -0.4337
25782W        W41591  12.595  12.225   2.146  0.1298 -0.0770 -0.0367
25783W        W41592  18.458   2.294  11.016 -0.3269 -0.0695  0.2663
25784W        W41593   8.704   5.052   5.278  0.0764  0.0611 -0.4873
25785W        W41594  14.157   6.964  15.190  0.4021  0.0018  0.0325
25786W        W41595   9.101   5.257   0.889 -0.1955 -0.3364 -0.2286
25787W        W41596  14.930  16.146   2.778  0.2872  0.0331 -0.2664
25788W        W41597   9.086  13.083  12.699 -0.2800  0.0630  0.3061
25789W        W41598  10.540  13.614  14.346 -0.0554  0.1318  0.1936
25790W        W41599  14.271   1.705  10.526  0.0471  0.0400 -0.3088
25791W        W41600   9.581   1.510  14.470  0.2476 -0.2375 -0.1227
25792W        W41601  14.763  14.451  11.687 -0.2630  0.3096  0.2347
25793W        W41602  18.867   6.686   2.211 -0.2909  0.0334 -0.3172
25794W        W41603   6.909  11.796  10.721  0.0197  0.0906 -0.1300
25795W        W41604  11.856   9.233   5.505  0.0377  0.1550 -0.0961
25796W        W41605   6.222   2.053  11.944  0.0805 -0.2265  0.3271
25797W        W41606  13.482  12.812   0.505  0.0434 -0.2378  0.0934
25798W        W41607   6.377  10.211   2.824 -0.0772  0.2719 -0.0345
25799W        W41608   6.625  12.815   1.217  0.0755  0.2124  0.4847
25800W        W41609  18.656   0.757  14.578 -0.1889  0.2257 -0.2878
25801W        W41610   3.979  14.280  15.022  0.2485 -0.4525  0.2144
25802W        W41611  18.659  18.370   4.821  0.0684 -0.0694  0.0888
25803W        W41612   0.316  14.888  13.006  0.3234  0.3409 -0.0889
25804W        W41613  18.610  13.438   5.318 -0.0926 -0.0480  0.2020
25805W        W41614   9.058  11.360   0.091  0.0042 -0.1738  0.1376
25806W        W41615   8.672  16.748  11.962 -0.1472 -0.0255 -0.1200
25807W        W41616   7.890  12.494  10.709 -0.0253  0.0617  0.0046
25808W        W41617   3.174   4.037   1.645  0.1601 -0.0895 -0.0675
25809W        W41618  12.919   2.913   1.991  0.0992 -0.1120 -0.1296
25810W        W41619   9.415   8.034   5.741 -0.0587 -0.1700  0.0638
25811W        W41620  10.430   3.543   0.563  0.0525  0.3158  0.1087
25812W        W41621  12.813   1.034  12.301  0.2672  0.0320 -0.1942
25813W        W41622   3.331   0.058  15.435 -0.2352 -0.1727  0.3934
25814W        W41623  10.433   8.108   5.639  0.0719  0.1230  0.2283
25815W        W41624  10.514   1.566   2.864  0.1486  0.0425  0.0312
25816W        W41625  15.201  11.119   2.959 -0.0735 -0.0548  0.0575
25817W        W41626   4.719   0.596  11.349  0.0667  0.1120 -0.3102
25818W        W41627   4.428   1.963  14.041  0.1614  0.0720  0.0142
25819W        W41628  11.878   1.396   0.055 -0.1082 -0.0561  0.0375
25820W        W41629  17.693   8.983   3.451  0.0876  0.1857 -0.0549
25821W        W41630  14.738  10.932   4.378  0.0630 -0.0824 -0.1825
25822W        W41631   0.440   7.508   4.374 -0.1301  0.2068  0.0637
25823W        W41632  13.030  15.408   5.263  0.0627 -0.0280 -0.1467
25824W        W41633  10.335   1.867   4.655  0.1748  0.0642  0.1209
25825W        W41634  11.944  16.756  12.868  0.2374  0.3088  0.0242
25826W        W41635  13.597   8.307  15.239  0.1884  0.1221  0.1339
25827W        W41636  18.111  13.795  13.099  0.0941 -0.0112 -0.1334
25828W        W41637   3.461   7.387   2.176  0.1913  0.2887  0.0430
25829W        W41638  18.721   1.638  10.585  0.0033  0.0846 -0.0128
25830W        W41639  15.885   5.488   0.147  0.2693 -0.2425  0.0057
25831W        W41640  10.978   4.495  13.864 -0.1079 -0.0205  0.0395
25832W        W41641   6.953   0.917  12.251 -0.2522  0.0153 -0.1872
25833W        W41642   2.360   7.539   4.629 -0.1103 -0.1071 -0.1698
25834W        W41643  11.482   5.985  12.034 -0.1927 -0.2192  0.0718
25835W        W41644   9.182  10.944  12.116 -0.2331  0.2277 -0.2782
25836W        W41645  12.999   8.370   3.297 -0.1292 -0.1779  0.0532
25837W        W41646   1.927  15.181  13.255  0.0302 -0.0691  0.0604
25838W        W41647  11.917   5.268  14.421 -0.0480  0.0906  0.2821
25839W        W41648  17.343   1.671   5.102 -0.1576 -0.4615  0.1736
25840W        W41649  11.941  17.143  13.921  0.3664  0.1721  0.0296
25841W        W41650   2.970  14.425  12.887  0.0558 -0.1149 -0.2308
25842W        W41651   5.462  18.093  11.959 -0.2417  0.2776  0.1200
25843W        W41652   3.529   6.179   5.394  0.0795  0.0302  0.1119
25844W        W41653   9.972  15.408  10.281 -0.1204  0.1055 -0.1001
25845W        W41654   0.910  18.686  13.516 -0.0886 -0.0983 -0.0348
25846W        W41655  17.736   2.096  12.095  0.0299 -0.1509  0.0459
25847W        W41656  13.648   0.189  12.606  0.4659  0.2629 -0.1599
25848W        W41657   7.902  11.785  11.914 -0.1676 -0.0040  0.1514
25849W        W41658   4.065   5.639   1.704  0.0788 -0.0217 -0.2120
25850W        W41659   0.860   3.105  14.463 -0.3398 -0.0081 -0.0333
25851W        W41660   8.153  16.223  12.926  0.2471 -0.0449  0.1345
25852W        W41661  13.268   7.377  15.101 -0.1476 -0.2177 -0.2763
25853W        W41662  13.400  12.398   3.133 -0.0018 -0.2048  0.1128
25854W        W41663  15.425   6.301   6.359  0.0881  0.3271 -0.2250
25855W        W41664  15.917  13.768  14.934 -0.2662 -0.1334 -0.1976
25856W        W41665  10.900   1.748   5.015 -0.1804 -0.2492 -0.2548
25857W        W41666   4.688   8.334  10.576 -0.1226  0.0557 -0.2146
25858W        W41667   7.173   9.481   1.421  0.1175 -0.2053 -0.0609
25859W        W41668   3.880   7.818  14.993  0.1955 -0.2862  0.0587
25860W        W41669   0.778   7.431  11.905 -0.2545  0.0139 -0.1011
25861W        W41670   9.427  10.880   2.016 -0.1992 -0.0863 -0.1351
25862W        W41671   9.370  16.622  12.680 -0.1959 -0.1631 -0.1068
25863W        W41672  17.026   7.061   3.381  0.1068  0.0230 -0.0261
25864W        W41673   1.683  15.407   1.548 -0.4531 -0.1399  0.1418
25865W        W41674   4.106  13.346  11.068 -0.2646  0.1237  0.0520
25866W        W41675  15.864   9.437   3.177  0.0444  0.2814  0.1091
25867W        W41676   5.865  16.595  13.816  0.0412 -0.2364 -0.1250
25868W        W41677  17.688   7.409   3.647  0.2667  0.0742  0.0048
25869W        W41678   0.290   4.224   0.792 -0.0205  0.1977 -0.3511
25870W        W41679   5.006   6.790   9.543 -0.2619  0.0246 -0.2552
25871W        W41680   9.119   5.149   9.968 -0.0761 -0.0515 -0.2798
25872W        W41681  17.024   7.233   2.880 -0.0768  0.2544 -0.2960
25873W        W41682   0.155   2.108   4.386 -0.1662  0.1133 -0.2948
25874W        W41683  13.010   5.507  12.905 -0.1665  0.1478 -0.2552
25875W        W41684  12.935  15.386   1.891  0.0756 -0.1227 -0.3209
25876W        W41685   3.469  18.238  12.738 -0.3251 -0.0362  0.2540
25877W        W41686   5.128  17.190   3.806  0.0218 -0.2873 -0.5772
25878W        W41687   3.866  14.677  14.188 -0.0672  0.0144 -0.1215
25879W        W41688  11.708   5.606  14.064 -0.1609  0.0930 -0.3389
25880W        W41689  13.694  10.206   3.646  0.1871  0.1147 -0.1173
25881W        W41690   5.459   0.284   0.878 -0.1365 -0.1289 -0.1455
25882W        W41691   7.669   7.981  10.539 -0.2294  0.2892 -0.0806
25883W        W41692  16.439   9.726   3.846  0.2498 -0.1518 -0.0523
25884W        W41693  12.324  10.354  14.128  0.2732  0.2364  0.0983
25885W        W41694   2.494   7.268   9.939  0.4257 -0.0573 -0.0486
25886W        W41695   7.029  18.088   1.401 -0.0339 -0.1478 -0.2804
25887W        W41696   9.796  18.508  11.434 -0.0615 -0.0481 -0.1578
25888W        W41697   6.810  14.845   0.137 -0.1036  0.2365  0.1066
25889W        W41698  16.331  10.558  12.210 -0.0558 -0.2086  0.2596
25890W        W41699   2.178   5.029  12.221 -0.0069  0.3530 -0.1130
25891W        W41700   9.459   1.634   1.971 -0.1917  0.1825 -0.1648
25892W        W41701   2.954  12.288  14.221 -0.1553  0.0519 -0.1024
25893W        W41702   5.568   3.244   3.597  0.0599  0.3548  0.1025
25894W        W41703   7.453   3.377   4.319 -0.1953 -0.1700  0.0309
25895W        W41704   4.661   2.420  14.427 -0.0863 -0.1018  0.0512
25896W        W41705   6.527  12.391   1.580 -0.0987 -0.4957  0.2434
25897W        W41706   7.049   4.929  11.937  0.0005 -0.1166  0.0049
25898W        W41707   7.078   9.760   9.504  0.1454  0.0305  0.3391
25899W        W41708   6.215  10.629  14.113  0.2500 -0.3436 -0.3180
25900W        W41709   3.737  18.626  10.497 -0.4019  0.0365 -0.1447
25901W        W41710   6.754   9.602   3.483  0.1303  0.3413  0.2677
25902W        W41711   6.382  16.366  13.306 -0.1127 -0.0473 -0.1417
25903W        W41712  18.381  15.704   1.524 -0.0661  0.0521 -0.0736
25904W        W41713   0.250   3.719  13.069  0.2147  0.1021 -0.2785
25905W        W41714  18.438  10.357   5.227 -0.0433  0.2733 -0.1764
25906W        W41715   5.088   8.434  13.245 -0.1931 -0.4494  0.1195
25907W        W41716   7.391  14.821   4.729 -0.0371  0.1360  0.0706
25908W        W41717   7.668  16.365  12.879  0.0969 -0.0982  0.2869
25909W        W41718   5.560   9.414  14.789  0.3405  0.0774 -0.0462
25910W        W41719   4.937   9.845  12.233  0.0771  0.1434  0.0928
25911W        W41720   9.043   0.737   3.734  0.0437 -0.0343  0.0625
25912W        W41721  12.734  18.151   5.612  0.1476  0.1175  0.1840
25913W        W41722  14.803   9.258   1.221  0.0721  0.4377  0.1324
25914W        W41723  14.207   7.209  14.713 -0.0321  0.1163  0.1205
25915W        W41724  13.175  17.495  15.007  0.0869  0.1633  0.2256
25916W        W41725   8.807  18.223   1.571  0.5660 -0.0463  0.2383
25917W        W41726   7.418  17.041   4.456 -0.0668 -0.0079  0.2613
25918W        W41727   8.969   2.032   0.892 -0.2346  0.0025 -0.0467
25919W        W41728   9.145  10.011  14.798  0.2063 -0.4018  0.1108
25920W        W41729   8.482  15.273   1.885 -0.0164  0.0976 -0.0542
25921W        W41730  18.389   3.330   4.444 -0.3592 -0.2864 -0.2568
25922W        W41731  15.863   4.746   4.511 -0.1273 -0.0316  0.2213
25923W        W41732   3.650  17.779   5.111  0.0417  0.1996 -0.1240
25924W        W41733   4.977  14.668  14.048  0.0541  0.2790  0.0587
25925W        W41734   3.946   4.797   4.665 -0.0869  0.2863 -0.1202
25926W        W41735   1.355  10.275  11.518 -0.3190 -0.1300  0.0090
25927W        W41736   9.581  12.824  12.575  0.1201 -0.0842  0.0686
25928W        W41737  14.963   1.225   4.084 -0.0155 -0.0434 -0.0669
25929W        W41738   5.583   9.465   3.246 -0.1810  0.2510  0.1150
25930W        W41739  17.007   2.886  11.556  0.3017 -0.0383  0.0919
25931W        W41740  14.276   4.902   3.920  0.1733 -0.0859 -0.1335
25932W        W41741   4.997   2.730  13.035 -0.2861  0.0628  0.0489
25933W        W41742   7.406  11.642  13.802 -0.1967  0.1748 -0.1204
25934W        W41743   0.472   6.102   5.940  0.2665  0.4561  0.2722
25935W        W41744   3.287   8.037   3.181 -0.1828 -0.1093  0.1533
25936W        W41745   4.357   6.884   1.830 -0.2206 -0.4810 -0.0427
25937W        W41746  18.816   6.615   2.975  0.1681 -0.1122  0.1238
25938W        W41747   9.332  10.854   1.376  0.0046 -0.0488 -0.0751
25939W        W41748  14.899  15.033   0.770 -0.1312  0.1962  0.1505
25940W        W41749   7.230  18.657  11.865 -0.0741 -0.0529  0.3099
25941W        W41750  18.076   1.453   2.526 -0.0655  0.2803  0.1675
25942W        W41751   8.850   2.344  11.304 -0.1311  0.0528 -0.1063
25943W        W41752   0.263   9.937  13.560  0.1814 -0.2010  0.1123
25944W        W41753   5.614  10.387  11.273 -0.0362  0.0386 -0.0118
25945W        W41754  11.191  12.146  12.543 -0.2772  0.4966 -0.0036
25946W        W41755   3.526   4.203   3.520 -0.1739 -0.1887  0.0584
25947W        W41756   6.044   9.263  13.876 -0.1121  0.4041 -0.2867
25948W        W41757  10.695   9.346   2.998  0.1077  0.1076 -0.0113
25949W        W41758  11.323  11.219  10.617 -0.0496 -0.1686 -0.1519
25950W        W41759   5.263   5.859  14.742  0.0098 -0.0647 -0.0668
25951W        W41760  14.513   9.880   0.106 -0.1775 -0.0942 -0.0078
25952W        W41761   8.588  17.297  14.507 -0.4446 -0.2312  0.2586
25953W        W41762   4.090  13.799   5.399 -0.4460  0.1241 -0.1090
25954W        W41763  17.634   4.900   0.622 -0.1124  0.1476 -0.3120
25955W        W41764   7.960   2.135   5.465 -0.0919 -0.0130  0.0722
25956W        W41765  16.288  18.665  10.606 -0.0543 -0.0371 -0.0258
25957W        W41766   6.890   0.574   0.462 -0.0633  0.2106  0.0931
25958W        W41767  10.792  10.223  10.889  0.0098  0.1043 -0.0992
25959W        W41768   3.353  18.653  13.761  0.0618 -0.1077 -0.2214
25960W        W41769  11.277  13.407  14.980  0.0672 -0.1550 -0.1994
25961W        W41770  14.229  10.197   1.948 -0.1157 -0.4681 -0.0491
25962W        W41771  14.025   7.655   3.167 -0.0022 -0.2200 -0.1104
25963W        W41772   0.092  16.859   0.143  0.0921  0.0543 -0.0255
25964W        W41773  17.054  11.015  12.283 -0.0311  0.0566  0.2603
25965W        W41774  11.855   6.636  14.003  0.2915 -0.0025  0.0858
25966W        W41775  16.030  11.285   0.335  0.0635 -0.1779 -0.1640
25967W        W41776  15.089   0.069  13.378  0.3140 -0.0608 -0.1201
25968W        W41777   4.347  16.931   3.240  0.1352 -0.4128 -0.1429
25969W        W41778  14.967   2.050   2.155  0.2731  0.0223 -0.0401
25970W        W41779   3.812  11.166   0.195  0.0586 -0.0627  0.1269
25971W        W41780   5.482  16.832  12.134  0.0725  0.2917 -0.2009
25972W        W41781   1.363  12.154  14.755 -0.0685 -0.2441  0.0358
25973W        W41782  17.543   5.860   5.797  0.0423  0.0372  0.1028
25974W        W41783  15.162  10.254   5.269 -0.0539  0.1619 -0.2102
25975W        W41784   8.652  10.337  13.922 -0.2825  0.1413 -0.3308
25976W        W41785  18.167   1.850  12.416  0.1215 -0.0230 -0.1645
25977W        W41786   6.155  12.119  12.803 -0.1279 -0.0911 -0.0464
25978W        W41787  11.767  13.357  12.402  0.2315 -0.1588  0.0591
25979W        W41788  11.418  14.775   5.108 -0.3465  0.1795  0.2067
25980W        W41789  15.428  13.575   4.993  0.2045  0.2765 -0.3965
25981W        W41790  13.391  12.683  11.507  0.0103  0.0300  0.2862
25982W        W41791  14.992   5.183   4.945 -0.2265  0.2862  0.1140
25983W        W41792  13.569  15.029  15.277 -0.3375 -0.1611  0.1908
25984W        W41793   5.243   0.167   4.400 -0.2672 -0.0529 -0.0026
25985W        W41794   2.041  17.989   3.963 -0.4081 -0.1646 -0.0616
25986W        W41795   6.826  16.503   4.144  0.0097  0.0960  0.1430
25987W        W41796  14.407  14.324  13.693  0.1040  0.4057 -0.0984
25988W        W41797   1.060  14.109   0.496 -0.4222 -0.5479  0.0756
25989W        W41798   2.918   4.561  14.090 -0.0306  0.0242 -0.2395
25990W        W41799  12.296  15.707  15.329  0.2808 -0.1975 -0.1357
25991W        W41800   9.078  10.909  14.883 -0.1665  0.2066  0.1516
25992W        W41801   2.423   6.973  10.398 -0.3501 -0.0424 -0.2582
25993W        W41802  14.268  18.126  13.900  0.0334 -0.2267  0.0322
25994W        W41803   3.454  15.881  13.925  0.1942  0.0551 -0.0310
25995W        W41804  17.653  15.377   1.213 -0.1978  0.1614  0.2211
25996W        W41805  13.969   6.572   0.392  0.2849  0.1364  0.0714
25997W        W41806  15.798  15.124   2.817  0.0528 -0.1619 -0.1642
25998W        W41807  16.747   0.958   0.994  0.0979 -0.1560  0.4298
25999W        W41808  14.425   7.643   3.557  0.2524  0.2428 -0.1935
26000W        W41809   8.181   0.443   2.950  0.0321  0.0883 -0.0729
26001W        W41810  10.091  15.248  14.438  0.2821  0.2348 -0.1536
26002W        W41811   4.269  16.901   4.940  0.3466  0.1444  0.2258
26003W        W41812   4.976  15.551   4.003  0.1291  0.0929  0.2306
26004W        W41813  15.703  13.647   2.335  0.3706 -0.1323  0.1373
26005W        W41814   1.167   3.526   3.753  0.0671  0.2176 -0.0281
26006W        W41815  13.662  10.269  12.956 -0.0281 -0.0659  0.3086
26007W        W41816  16.965   9.239   0.538  0.0732  0.1927 -0.0757
26008W        W41817   2.940  13.772   0.406 -0.0567 -0.1289 -0.2174
26009W        W41818   4.312   8.243  12.362  0.0888  0.3621 -0.1322
26010W        W41819  17.765   0.021  10.864  0.1178  0.1819  0.1786
26011W        W41820  14.145   9.413   3.529 -0.1211 -0.2625 -0.0710
26012W        W41821  17.368   6.661  13.018  0.2099  0.0877 -0.3551
26013W        W41822   0.938   1.591  10.567  0.3962  0.0124 -0.2579
26014W        W41823   1.410   6.769  11.589  0.1451  0.0301 -0.0335
26015W        W41824  17.754  17.268   2.453  0.2382  0.0301  0.0415
26016W        W41825  16.187  15.367   0.508  0.1930  0.1479 -0.0317
26017W        W41826  15.093   4.276  14.492 -0.2062 -0.2064 -0.1774
26018W        W41827   8.675  10.089   3.633 -0.4141  0.0497 -0.0735
26019W        W41828   5.245  15.116  15.241 -0.2198  0.5144 -0.1166
26020W        W41829   3.993  17.752   1.415  0.0043  0.2487  0.2616
26021W        W41830  10.809   1.165   2.689 -0.2327  0.1438 -0.1184
26022W        W41831  15.008  11.229  11.167 -0.5875  0.3260  0.1963
26023W        W41832  13.471   2.631   1.883  0.0099 -0.1521  0.0991
26024W        W41833   2.611   4.625   5.771  0.1442 -0.1636  0.1177
26025W        W41834   8.020   5.457  15.346 -0.1046  0.0723 -0.0577
26026W        W41835  12.941   0.085   1.189  0.3392  0.1228  0.1621
26027W        W41836  13.761   3.425  10.736 -0.2061  0.2543  0.1902
26028W        W41837   4.656   1.933  13.078 -0.0243 -0.0188 -0.1106
26029W        W41838  18.262  10.753   4.108 -0.1711 -0.1237 -0.0119
26030W        W41839  15.441   6.512   1.154 -0.1785 -0.2391  0.1259
26031W        W41840   9.082   8.995   0.155  0.2860 -0.0862  0.0198
26032W        W41841   5.459   6.676  13.015 -0.3891 -0.0463 -0.3108
26033W        W41842   0.187  17.469   2.708  0.0828 -0.0271 -0.3717
26034W        W41843   3.615  10.502   0.409  0.2517 -0.1943  0.0926
26035W        W41844  12.370   8.243   2.441 -0.2473 -0.0086 -0.1602
26036W        W41845  16.893  13.321   0.160 -0.1582  0.3141 -0.0733
26037W        W41846   4.078   5.815   2.170 -0.4887  0.1717 -0.2175
26038W        W41847  14.604   9.421  14.102 -0.1956  0.1121  0.0440
26039W        W41848   3.139   7.600   1.774 -0.0272 -0.1752  0.0355
26040W        W41849   4.826  13.774  13.490  0.1446  0.0890  0.2725
26041W        W41850  17.717   9.376   2.623 -0.2351  0.0996 -0.0168
26042W        W41851   7.810   9.235  11.811 -0.1214 -0.0639  0.1800
26043W        W41852  14.421  18.611  14.012  0.2019  0.0507  0.1794
26044W        W41853   2.000   2.929  12.156  0.1167 -0.2155 -0.0906
26045W        W41854  18.074   6.549   4.791  0.1646 -0.1385  0.0643
26046W        W41855   3.798   6.371   3.875 -0.2152 -0.0195  0.1460
26047W        W41856   4.650   5.410   3.633  0.1144 -0.3937 -0.0684
26048W        W41857   2.059  11.725   0.401  0.2452  0.1419 -0.1373
26049W        W41858  10.675  17.625   5.800  0.0545  0.1562  0.0949
26050W        W41859  14.033  16.816   4.393 -0.1913  0.1341 -0.0864
26051W        W41860   6.500  13.550   3.302  0.3993 -0.1746 -0.4749
26052W        W41861  16.267  13.101  12.338 -0.1530 -0.0924  0.0357
26053W        W41862   3.228   9.503  12.930 -0.1909 -0.3541  0.0607
26054W        W41863  14.510  16.784  11.189 -0.4149 -0.0252 -0.0070
26055W        W41864   2.126   3.909  11.710 -0.1604  0.1126  0.2803
26056W        W41865  18.396   5.521  14.124  0.0917 -0.0178 -0.0890
26057W        W41866   0.837  12.747   4.349 -0.4986  0.1271  0.0852
26058W        W41867   7.839  18.154  12.858  0.0237  0.1982 -0.2311
26059W        W41868  11.517  10.357  14.468  0.1556  0.0996  0.0592
26060W        W41869  11.200   8.895  11.141 -0.2008  0.2081  0.2812
26061W        W41870   7.583  14.543   0.197 -0.0093  0.1999 -0.0599
26062W        W41871  16.268  15.453  15.124  0.0437  0.1813 -0.2422
26063W        W41872   9.570   4.626   3.717 -0.1639 -0.0874 -0.0659
26064W        W41873  18.246  17.710   2.210 -0.3427 -0.4225 -0.3531
26065W        W41874   4.644  17.801   0.748 -0.3031  0.0509 -0.1009
26066W        W41875   5.441   6.124   0.734 -0.1775  0.1984  0.1143
26067W        W41876  14.042   6.828   4.614  0.0719  0.1497 -0.1534
26068W        W41877   6.642  16.228  12.932 -0.0828  0.1880  0.1126
26069W        W41878  12.699  14.438  10.780  0.0460  0.0086 -0.1490
26070W        W41879   0.643   3.617   0.694  0.0855 -0.1152 -0.1059
26071W        W41880  10.265   8.673   4.441  0.0748 -0.1777  0.0991
26072W        W41881  14.089   5.164  14.554 -0.0872 -0.2063  0.0389
26073W        W41882   9.223   0.344   1.650  0.1468 -0.1528 -0.1034
26074W        W41883   4.890  13.791   1.312 -0.1435 -0.1362 -0.0551
26075W        W41884  10.766   4.708   3.014 -0.0249 -0.0816 -0.0050
26076W        W41885  17.713  17.403   3.746  0.1843  0.2164 -0.0403
26077W        W41886  10.922  18.413   2.728  0.1874 -0.0093  0.1738
26078W        W41887   1.053  15.141   3.849 -0.2525  0.0399 -0.0726
26079W        W41888  18.472   9.712  14.946  0.0749 -0.0863  0.2968
26080W        W41889  16.374   1.876   2.599  0.0527  0.1151  0.2071
26081W        W41890   5.976   6.814  11.304  0.1603  0.1251  0.0292
26082W        W41891   2.335   2.129   1.234  0.1933  0.0482  0.3096
26083W        W41892   6.387  10.049   0.570 -0.1968 -0.1306  0.1914
26084W        W41893  15.086  13.290  12.550 -0.1525  0.0758  0.0931
26085W        W41894  18.860   2.116   2.703 -0.0042  0.1312 -0.1818
26086W        W41895   1.284  10.452   6.156  0.1637 -0.2034 -0.0621
26087W        W41896  13.306  18.278  13.929  0.0146 -0.0953 -0.1458
26088W        W41897   6.235  14.908  15.028  0.0459  0.0599  0.3942
26089W        W41898   2.833  15.920  14.730 -0.1648 -0.0549 -0.1644
26090W        W41899   8.171   5.333   1.230 -0.1244  0.0243 -0.1504
26091W        W41900   7.415   1.150  15.404 -0.1016  0.1250  0.3755
26092W        W41901   2.063   1.204   4.813 -0.0403  0.3559  0.5319
26093W        W41902  17.469  16.290   1.644  0.2220 -0.1028  0.4027
26094W        W41903   1.288  18.269  10.037 -0.1514  0.1175  0.2170
26095W        W41904  16.413  14.423   0.084 -0.0770  0.2500  0.0368
26096W        W41905  11.537  17.851  14.206  0.2623 -0.4840 -0.3911
26097W        W41906  17.267   3.826  15.275 -0.2899  0.1708 -0.0040
26098W        W41907   0.412  11.000   3.001  0.2599  0.1273  0.0170
26099W        W41908  15.362   6.096  11.324  0.3119  0.0745 -0.1396
26100W        W41909  10.786  10.150  10.116  0.1169 -0.0720  0.4416
26101W        W41910   7.318  10.890   2.000  0.0448 -0.1948 -0.0528
26102W        W41911  16.086   6.084   0.992 -0.1758  0.2151  0.3095
26103W        W41912  18.640   2.015  14.128 -0.1573  0.2073 -0.0550
26104W        W41913   7.022   8.220  13.367  0.0996  0.0176  0.0134
26105W        W41914  15.611  16.894  14.805 -0.1696  0.1452  0.0356
26106W        W41915  13.439   5.781  14.273 -0.1506  0.2105  0.0368
26107W        W41916   6.453  17.301  12.593  0.1185 -0.1376  0.0227
26108W        W41917  17.013  12.024  10.547 -0.1876 -0.0348  0.0766
26109W        W41918  16.747   1.477  12.679 -0.2184  0.0771  0.0795
26110W        W41919   2.680   7.491   1.029  0.2282 -0.0634 -0.0291
26111W        W41920  18.161   2.452   4.251 -0.0821 -0.0749 -0.1305
26112W        W41921  16.726   4.236   1.540 -0.1191 -0.2043  0.1156
26113W        W41922  10.889   8.338  11.211 -0.3372  0.0007 -0.2904
26114W        W41923  11.873   7.721   0.809 -0.0944 -0.3149 -0.0486
26115W        W41924  13.909  18.686  12.371 -0.0399  0.1337 -0.0146
26116W        W41925  16.736   7.530  14.207 -0.1474 -0.0064 -0.0378
26117W        W41926  11.690   1.928  12.661  0.2026 -0.0569 -0.2014
26118W        W41927   3.008  17.552  11.855  0.4901  0.2742 -0.0333
26119W        W41928  12.886  15.608   1.412  0.2573 -0.2563 -0.2683
26120W        W41929   1.003  11.277  12.843  0.1144 -0.2569 -0.0486
26121W        W41930   0.507   0.234   1.624 -0.0794 -0.3077  0.2379
26122W        W41931  13.154  10.806   2.511 -0.0084 -0.0639 -0.2777
26123W        W41932  10.110   0.644   3.065 -0.0436 -0.0029  0.4738
26124W        W41933  14.474  18.061   2.963 -0.0343 -0.1638  0.0926
26125W        W41934  17.161  18.165   3.482  0.0605 -0.3111  0.3211
26126W        W41935   2.692   8.801  14.989  0.2039 -0.1174  0.2366
26127W        W41936  10.943  17.249  12.558  0.1182  0.2288 -0.0597
26128W        W41937  16.265  13.608  13.862  0.1201 -0.2662 -0.4880
26129W        W41938  15.177   9.790   4.895 -0.1341  0.0832  0.0349
26130W        W41939  16.336  11.652   1.236  0.0484 -0.2805  0.1245
26131W        W41940  12.941   4.511   3.732  0.0121  0.2528  0.0921
26132W        W41941   9.780   4.627   0.037 -0.2817 -0.0944 -0.0826
26133W        W41942   3.000  10.957   3.436 -0.0553 -0.0921 -0.0833
26134W        W41943   8.259  10.288  14.583 -0.0689  0.0236 -0.1533
26135W        W41944   7.686  11.950   1.311 -0.1229 -0.0261  0.0810
26136W        W41945  12.151  12.415  14.882 -0.2319 -0.0267  0.1296
26137W        W41946  18.096   5.560  11.126  0.3125 -0.0840  0.0901
26138W        W41947   7.781   3.483  14.363  0.3918 -0.0474 -0.1857
26139W        W41948  18.634   5.937  15.244 -0.0797 -0.0159  0.1434
26140W        W41949   6.929   5.562  12.746  0.1577  0.1246  0.6549
26141W        W41950  14.540   7.793   9.792  0.2119 -0.1783 -0.3099
26142W        W41951   4.224   6.724   5.570 -0.0664 -0.1502  0.2560
26143W        W41952   6.603  17.248  15.270  0.1209  0.1978 -0.0130
26144W        W41953  11.353  14.827  15.010 -0.1411 -0.3213 -0.3502
26145W        W41954  11.741  12.016   5.204  0.0340  0.0263 -0.1516
26146W        W41955  11.069   2.368   3.763  0.1991  0.2634  0.5242
26147W        W41956  12.140   8.396   9.930 -0.1562 -0.1804  0.2576
26148W        W41957  18.371   0.056  13.104  0.1850 -0.4222  0.1696
26149W        W41958   6.905   6.950  12.299  0.0543 -0.2166 -0.2964
26150W        W41959   7.365   0.165   2.841 -0.2044  0.4495 -0.0553
26151W        W41960   2.893   6.279  13.578 -0.1399 -0.2580 -0.0324
26152W        W41961  10.171  14.744   2.161  0.1730 -0.1016  0.2505
26153W        W41962   0.673  12.345  15.292 -0.1775  0.0180  0.1586
26154W        W41963  11.600   5.127  13.929 -0.1234  0.3994  0.0778
26155W        W41964   2.106  10.532   5.373  0.4751  0.0490 -0.2716
26156W        W41965   3.525   1.863  12.956 -0.2188  0.2457 -0.1872
26157W        W41966   3.867   0.975   4.941  0.1728  0.3332 -0.1111
26158W        W41967  10.839  11.333   4.519 -0.1309  0.0377  0.1056
26159W        W41968   7.399  13.132   4.575  0.3666 -0.4387  0.3139
26160W        W41969  13.586  10.692  11.255  0.1603 -0.0699 -0.3679
26161W        W41970  18.104   7.220   1.778 -0.1121  0.1605  0.0839
26162W        W41971  16.554   8.124  13.834  0.1668 -0.0484  0.0389
26163W        W41972   6.359  12.218   3.431 -0.3260 -0.5804 -0.0257
26164W        W41973   2.061   6.620  14.017  0.0066 -0.1476 -0.2324
26165W        W41974  10.892   8.377   1.337 -0.2392 -0.0020 -0.2247
26166W        W41975   6.457  14.720  11.970  0.0881  0.0789 -0.1917
26167W        W41976   8.857   3.499  15.104 -0.2061  0.1344  0.2954
26168W        W41977  12.883  15.790  12.397 -0.0416 -0.0231  0.2017
26169W        W41978  17.138  13.151  10.656  0.2479 -0.0386  0.3602
26170W        W41979   1.353  18.457  13.574 -0.0089 -0.3926  0.0484
26171W        W41980  18.392  14.959  10.734 -0.3357 -0.2688 -0.0487
26172W        W41981   2.434   8.815   2.813  0.0009 -0.0613 -0.1090
26173W        W41982   6.609  18.338  12.751  0.0988 -0.1424  0.0531
26174W        W41983  12.121  15.893  13.142  0.1065 -0.1402  0.1230
26175W        W41984  11.049   1.383   3.692  0.0393  0.1827 -0.1414
26176W        W41985  12.599   3.998  11.497 -0.1258 -0.0809 -0.0965
26177W        W41986  16.485  10.734  14.495  0.1912  0.0217  0.2456
26178W        W41987   5.042   0.470   0.053 -0.3121  0.0719 -0.1398
26179W        W41988  18.604   9.020   5.194 -0.2733 -0.1669 -0.2870
26180W        W41989  15.116  10.481  14.858 -0.1047  0.0722  0.2123
26181W        W41990   1.339   6.762   4.008  0.1482 -0.0765 -0.2554
26182W        W41991   2.852   6.170   2.078 -0.0893  0.5699  0.0490
26183W        W41992  18.212  13.740  14.682 -0.1831  0.2227  0.2466
26184W        W41993   6.072   1.142   0.624 -0.0604  0.2028 -0.0963
26185W        W41994   4.790  13.216  11.874 -0.1925  0.1289 -0.2150
26186W        W41995   2.101  10.795  11.020 -0.2680 -0.1714  0.0476
26187W        W41996  12.510   3.285  11.897 -0.1988 -0.2767  0.3244
26188W        W41997   3.582   7.235   4.070 -0.0661  0.0383  0.3259
26189W        W41998   9.319  17.207  11.380  0.1920 -0.0572 -0.3263
26190W        W41999   2.040   1.723   0.262 -0.0140  0.0680 -0.1180
26191W        W42000   2.487   0.629  12.149 -0.1894  0.0416  0.1289
26192W        W42001  14.236   3.080  11.758  0.2073  0.3689 -0.0292
26193W        W42002   2.129  18.361   5.450 -0.0297 -0.1591  0.2166
26194W        W42003   1.701  17.077  13.546  0.2418  0.1173  0.3186
26195W        W42004  17.334   8.489   4.432  0.1787 -0.1154 -0.1162
26196W        W42005   4.451   8.197   5.026 -0.1633 -0.5079 -0.3008
26197W        W42006  16.926   2.932   2.995  0.1541 -0.0020 -0.0650
26198W        W42007  17.455  13.093  13.909  0.3039  0.0392  0.1391
26199W        W42008   3.327   7.461  13.192 -0.0750  0.3131  0.3991
26200W        W42009   5.926   3.382  14.812 -0.0363 -0.1387 -0.0525
26201W        W42010  17.165  12.414   4.544  0.2342  0.1301 -0.2980
26202W        W42011   0.339  10.020   1.471 -0.0512  0.1233  0.0461
26203W        W42012  12.513  13.262   4.534 -0.1920  0.2125  0.0161
26204W        W42013  14.938  15.178   4.379  0.0998  0.6039 -0.1427
26205W        W42014   3.388   3.030   0.765  0.0917 -0.1250  0.1574
26206W        W42015  15.537   0.225  13.190  0.1412  0.1841  0.1016
26207W        W42016  16.688  16.922  11.600 -0.0663 -0.0933  0.1288
26208W        W42017  14.521   2.802   2.827 -0.1214 -0.1734  0.1238
26209W        W42018  17.132  18.459   4.242  0.0373 -0.1643 -0.1449
26210W        W42019   0.053   8.352   0.908  0.0186 -0.0227  0.0089
26211W        W42020  17.988  11.829   3.272 -0.0161 -0.0553 -0.5008
26212W        W42021  16.850   6.391  15.279 -0.0051  0.2236  0.1922
26213W        W42022  17.121   2.954   5.159 -0.3861 -0.0509 -0.1844
26214W        W42023   7.876  12.086  14.725  0.1528 -0.2590 -0.0450
26215W        W42024  17.476  10.768   5.200 -0.0363 -0.1518 -0.3424
26216W        W42025  14.171   1.421  10.946 -0.0835 -0.2869 -0.0444
26217W        W42026  15.633  13.256   1.607 -0.0688  0.1765  0.3250
26218W        W42027  11.613  16.455  12.613  0.1189  0.3593  0.0917
26219W        W42028  13.606   7.069  15.344 -0.0787  0.3499 -0.3422
26220W        W42029   5.281  11.835  11.576  0.1071 -0.2157  0.0043
26221W        W42030  13.928   1.014  13.633  0.0279 -0.1776 -0.0119
26222W        W42031  11.526  12.962  14.761  0.3986 -0.1730 -0.2404
26223W        W42032   2.988  18.285   4.131 -0.1055  0.1545  0.2200
26224W        W42033   2.427  11.569   0.120 -0.3254 -0.0684  0.0435
26225W        W42034   7.239  13.450   2.049 -0.1983 -0.0075  0.1249
26226W        W42035  15.537  16.832   3.861  0.1922 -0.2104 -0.0024
26227W        W42036  10.698  17.792   2.939  0.1331  0.1322 -0.0641
26228W        W42037   0.886  16.492   3.414 -0.3472 -0.0987  0.0583
26229W        W42038   1.511   6.213   4.828  0.1132  0.5460 -0.1314
26230W        W42039   0.425  18.561  14.975 -0.0160 -0.3315 -0.1740
26231W        W42040   4.433  12.292   4.533 -0.1376 -0.0024  0.2603
26232W        W42041   3.349   4.740   4.676 -0.0146  0.2051  0.1643
26233W        W42042   3.662   0.294   2.934 -0.0345  0.0662 -0.0496
26234W        W42043  12.180   2.785  11.619  0.0634 -0.0636  0.0379
26235W        W42044  18.569   6.498   0.479 -0.3601 -0.0242  0.0009
26236W        W42045   9.976   7.618  11.583 -0.1124  0.3548 -0.0848
26237W        W42046   1.655   9.111  11.398 -0.0017  0.2075 -0.0220
26238W        W42047  15.414   0.916   1.245 -0.0753  0.0155 -0.0279
26239W        W42048   3.832   8.309  14.802 -0.0143  0.1612 -0.0073
26240W        W42049   5.846   0.477   1.252 -0.1637 -0.1926 -0.3180
26241W        W42050  16.032   3.863   3.697  0.0902 -0.0563  0.1506
26242W        W42051   4.534  13.608  15.338  0.1220 -0.1282 -0.0142
26243W        W42052  12.227   2.112   2.369  0.2388 -0.1466 -0.0495
26244W        W42053   1.652   8.936  12.433  0.1943  0.2209  0.2176
26245W        W42054   5.552  15.417  12.498 -0.0681 -0.2216  0.2936
26246W        W42055  10.509   5.430  13.343  0.2068  0.0118 -0.4028
26247W        W42056   2.772   7.114  10.834 -0.0267  0.0603 -0.1057
26248W        W42057  10.583  17.568  12.719  0.3575  0.3660  0.1447
26249W        W42058   7.751   3.900  13.589 -0.1113  0.2560  0.1710
26250W        W42059   3.028  13.294   3.629  0.1005  0.0773  0.1816
26251W        W42060  11.612   8.946  12.965  0.2032 -0.2773  0.0058
26252W        W42061   8.037   9.220  12.330  0.1211  0.2744 -0.0662
26253W        W42062   2.351   9.373  15.295 -0.1897  0.1366 -0.0177
26254W        W42063   8.363   1.255  11.977 -0.2221 -0.2653  0.0066
26255W        W42064  17.919  17.983  12.237  0.1360  0.4671  0.0984
26256W        W42065  10.362   9.261  11.574 -0.3948 -0.2932  0.0472
26257W        W42066   6.282  18.831  14.968 -0.1340 -0.0066  0.5682
26258W        W42067  17.234   2.104  11.738  0.2894  0.0782 -0.0929
26259W        W42068  15.709   6.789   1.533  0.0085  0.3498 -0.1609
26260W        W42069  15.537  13.824   0.984 -0.1686  0.0672  0.1250
26261W        W42070  10.047   3.826  12.841  0.1371  0.1144 -0.0721
26262W        W42071   8.968   6.219   1.972 -0.0133  0.2257 -0.0168
26263W        W42072   3.496  11.824   4.435 -0.2294 -0.0227  0.1921
26264W        W42073  17.717  11.838  13.780  0.1868  0.1094 -0.2950
26265W        W42074   2.980   2.073   2.295  0.0125  0.1501 -0.0012
26266W        W42075   4.739   1.027   5.179 -0.1964 -0.0158  0.0587
26267W        W42076  15.573  18.680   5.333  0.1619  0.0760 -0.0366
26268W        W42077   8.346  13.471  12.200  0.1873  0.4040 -0.2171
26269W        W42078   1.956  13.802   0.572 -0.2036  0.2618  0.2037
26270W        W42079  14.417  15.459   4.566 -0.4093  0.0075 -0.0766
26271W        W42080   1.671   9.688  14.792 -0.1203 -0.1741 -0.0942
26272W        W42081  15.447   1.979   2.666  0.3101  0.1462 -0.1117
26273W        W42082   1.894   1.193   0.111  0.1807 -0.0383  0.3298
26274W        W42083   8.110  18.122  10.845 -0.0510  0.1425  0.2530
26275W        W42084  18.886   3.913   0.677 -0.1787  0.1120 -0.4003
26276W        W42085   8.877  12.019   1.121  0.3165  0.0345 -0.1785
26277W        W42086   4.491   3.372  13.089 -0.1160 -0.0570  0.1092
26278W        W42087   6.778  11.053   1.948 -0.0865  0.1795  0.0500
26279W        W42088   9.419  11.730   4.876  0.2109 -0.2162  0.0941
26280W        W42089   2.671  16.252  11.517  0.3180  0.1337 -0.2110
26281W        W42090   0.778   2.159   5.262 -0.0792 -0.2382  0.3607
26282W        W42091   8.842   2.854   4.456 -0.0329  0.2386  0.2834
26283W        W42092   7.690   3.291   0.937  0.1856  0.1898 -0.0075
26284W        W42093   6.854  12.365  10.594  0.1535  0.1695 -0.0389
26285W        W42094  18.881   3.947   5.409  0.1428 -0.1269 -0.0105
26286W        W42095  13.589  18.912  11.462  0.0616 -0.0726  0.2301
26287W        W42096   5.939   6.867  13.176 -0.1605 -0.2150  0.1536
26288W        W42097  17.828  10.122   2.100 -0.1586 -0.0826 -0.1606
26289W        W42098   9.208  11.154  10.724 -0.1868 -0.1359 -0.0061
26290W        W42099   2.142  17.069  14.565 -0.1282  0.4006 -0.2322
26291W        W42100  18.888  12.161   2.331 -0.1451  0.0772  0.1818
26292W        W42101  11.466  11.028  13.529 -0.0680 -0.1405  0.0020
26293W        W42102  17.707  11.627   0.021 -0.1595 -0.0047  0.0278
26294W        W42103   8.327   4.583   4.073  0.2238 -0.0672 -0.0810
26295W        W42104  10.404  17.017  10.427  0.1524  0.3158 -0.1766
26296W        W42105  18.095  11.394   2.450 -0.2757  0.0507  0.1593
26297W        W42106   6.327   8.735   0.542  0.1592  0.0369  0.1120
26298W        W42107   9.228   2.507   3.200  0.4803  0.3296  0.1369
26299W        W42108   1.092  17.578  10.738  0.2927 -0.1985  0.1651
26300W        W42109  16.632   9.946  12.192 -0.0677 -0.2441 -0.0887
26301W        W42110   9.846   9.065   2.658 -0.0178 -0.0146 -0.1319
26302W        W42111  13.667   7.351   3.344 -0.1151 -0.0257 -0.1237
26303W        W42112   5.725   1.985   4.715  0.1107 -0.1720 -0.0484
26304W        W42113   8.236  10.378  11.572  0.0438  0.1216  0.1642
26305W        W42114  13.880   7.750   4.592  0.0278 -0.0937 -0.3732
26306W        W42115   9.983  14.576   3.507  0.1447 -0.3689  0.0099
26307W        W42116  17.207   4.704   0.521  0.0011  0.0639  0.1727
26308W        W42117  12.238  16.402  10.446 -0.4482 -0.1541 -0.1011
26309W        W42118   2.645   2.064   2.975 -0.1736  0.1614 -0.0555
26310W        W42119   0.553  15.386   4.995  0.1060 -0.2390 -0.0967
26311W        W42120   5.738   8.456   4.120 -0.3397 -0.0572 -0.4071
26312W        W42121  16.278   7.481  13.316 -0.1575 -0.1862  0.0424
26313W        W42122  11.628  12.577   2.241  0.1087 -0.2744  0.2628
26314W        W42123   3.119  10.621  10.310 -0.3051 -0.2369 -0.0434
26315W        W42124   3.035   2.643  11.254 -0.0535  0.0832  0.1277
26316W        W42125   6.157  17.549  13.974  0.0877  0.2473 -0.1350
26317W        W42126   2.681   7.018   4.514 -0.0230  0.0426 -0.2020
26318W        W42127  11.958   6.070   3.610 -0.1475 -0.0371  0.1455
26319W        W42128   8.929   5.918   2.490 -0.0010 -0.1589  0.2055
26320W        W42129  18.401   9.468  14.014 -0.0732 -0.0934  0.1260
26321W        W42130   2.873  10.720   4.375 -0.0906 -0.0835 -0.0093
26322W        W42131  13.270  17.537  10.566  0.0826 -0.0653 -0.0833
26323W        W42132  15.214  10.792  11.267 -0.2531 -0.0612 -0.0866
26324W        W42133   0.927  17.725  14.587 -0.1207 -0.1437  0.1346
26325W        W42134   9.745   8.267   3.963  0.1292 -0.3207  0.1590
26326W        W42135   1.625   1.437  11.819 -0.1321 -0.4229 -0.1168
26327W        W42136  12.334  14.186  12.476 -0.2763  0.1007 -0.1263
26328W        W42137   3.809   0.828  12.259 -0.0539  0.1893  0.3729
26329W        W42138   7.527   2.935  13.562  0.2127  0.0825 -0.1992
26330W        W42139   2.722  18.192  14.938 -0.0864 -0.0835 -0.1960
26331W        W42140  16.358   1.985  13.827 -0.1189  0.0195 -0.0488
26332W        W42141  12.258  14.656   5.769  0.1670  0.3725 -0.0865
26333W        W42142   1.608   9.136  11.940 -0.2006 -0.1100  0.0874
26334W        W42143   3.803  14.530  12.478 -0.3131  0.2213  0.1051
26335W        W42144  18.233   6.880   5.520 -0.1897  0.1099  0.0918
26336W        W42145   8.571   4.659   1.722  0.1452 -0.1005 -0.3849
26337W        W42146  16.016   5.778  12.315  0.4324 -0.0570 -0.0334
26338W        W42147   2.286   7.733   1.252  0.0319 -0.1197  0.3412
26339W        W42148   8.829   9.998   1.804 -0.0480  0.0649  0.2180
26340W        W42149   4.976  17.972   5.319  0.1822  0.0143 -0.0010
26341W        W42150  14.818  13.914  11.917  0.1182 -0.0025 -0.3061
26342W        W42151   4.300  10.289  12.035 -0.0439 -0.0600  0.0205
26343W        W42152   0.900  10.539  10.776  0.0472  0.2419 -0.2654
26344W        W42153   4.247  17.204  14.365 -0.2852 -0.1027 -0.3630
26345W        W42154  16.244   0.417  15.191  0.0597 -0.2493  0.0109
26346W        W42155   0.597  13.853  15.206  0.1135 -0.0387  0.0430
26347W        W42156  14.157   0.936  14.489  0.1022 -0.3120 -0.2525
26348W        W42157  12.148  15.505  10.378  0.0602 -0.0589 -0.1992
26349W        W42158   8.707   9.259  13.387  0.1683 -0.2126 -0.2335
26350W        W42159   3.135   6.102   0.191  0.0918  0.4720 -0.3681
26351W        W42160   8.393   2.745   2.461  0.3664  0.1483 -0.3199
26352W        W42161   4.500   8.104   2.785  0.1483  0.0490  0.1313
26353W        W42162  10.622   2.235   0.664 -0.1316 -0.1532 -0.1141
26354W        W42163   2.065   7.916   2.189  0.0779 -0.3373  0.2871
26355W        W42164   6.650   5.961  12.577 -0.0003 -0.2862 -0.2636
26356W        W42165   2.055  18.675  11.122 -0.1336 -0.0636  0.2903
26357W        W42166   3.225  13.398   0.615  0.0875 -0.0704  0.4028
26358W        W42167  16.476   3.508   3.510  0.1322  0.0107  0.1284
26359W        W42168   9.878   6.795  14.552  0.2357  0.0559 -0.0706
26360W        W42169  12.038   7.147  12.441 -0.2924  0.1353 -0.0785
26361W        W42170  17.768   3.979   0.544 -0.3390 -0.0494 -0.0514
26362W        W42171  18.296  17.844  11.346  0.1435  0.0400  0.2046
26363W        W42172  14.963   7.182   0.243 -0.0693  0.0783 -0.0821
26364W        W42173   3.424  15.450  12.408  0.1121 -0.2180 -0.0023
26365W        W42174  15.382  14.935  13.694 -0.0892 -0.2113  0.0338
26366W        W42175  14.845  16.357  12.264  0.1627  0.2379  0.0171
26367W        W42176  17.240  11.574  10.554 -0.1989  0.2307 -0.2490
26368W        W42177   8.559  13.999   3.687 -0.1340 -0.1962 -0.1061
26369W        W42178   9.714  15.529   1.259  0.1337  0.0595  0.0428
26370W        W42179  15.271  11.252  11.800  0.3407  0.1130 -0.2722
26371W        W42180  13.210  12.284  15.357  0.2549 -0.1223  0.1328
26372W        W42181  18.308   4.321   1.538 -0.3479 -0.1868  0.2108
26373W        W42182   1.708   5.885   4.509  0.1786 -0.2525  0.0788
26374W        W42183  11.396  15.876   2.799  0.0342 -0.0213 -0.4142
26375W        W42184  15.330  12.543  10.772 -0.0226  0.1966  0.1717
26376W        W42185   7.817   4.107  12.271  0.1823 -0.1866  0.3219
26377W        W42186   4.209   7.555  15.373 -0.1622 -0.0709 -0.0354
26378W        W42187   2.460  14.867   1.814  0.0820  0.2548 -0.1537
26379W        W42188   1.573   7.479   1.502  0.3312  0.0555  0.5105
26380W        W42189  16.757   0.216   2.601 -0.3562 -0.7095  0.2136
26381W        W42190   5.559   6.738   9.466 -0.1541  0.2081 -0.0843
26382W        W42191  17.994   8.203  12.486 -0.0273  0.0402  0.1284
26383W        W42192  15.929  17.003  13.493  0.1896  0.3043 -0.2217
26384W        W42193   0.073  13.515  14.844  0.3698  0.3639  0.2380
26385W        W42194   6.563  12.917  13.760 -0.0126  0.0025 -0.0178
26386W        W42195   1.985   9.525   2.827  0.0341 -0.2214  0.1916
26387W        W42196  10.571   0.502   1.099  0.2298 -0.0327  0.0089
26388W        W42197   9.666  14.812   2.037 -0.1200 -0.1441 -0.2543
26389W        W42198  17.337   9.332   0.872  0.1720  0.0491 -0.1397
26390W        W42199   6.867   9.775  10.400  0.1820  0.0854 -0.1455
26391W        W42200  11.762   1.159  11.000  0.2268  0.0609  0.0134
26392W        W42201  17.085   5.120  11.896  0.2277 -0.1789  0.0760
26393W        W42202  15.122   5.739   2.383  0.1561  0.1429  0.1419
26394W        W42203   2.492   8.947  13.160 -0.3616 -0.0992 -0.1730
26395W        W42204   7.667   9.649   1.307  0.3979 -0.3871  0.0957
26396W        W42205   7.467   7.972  12.856 -0.0663  0.2376  0.0778
26397W        W42206   6.511   1.605  13.393  0.2954 -0.1766 -0.0199
26398W        W42207   8.275  16.729  14.666 -0.0938  0.0676  0.0784
26399W        W42208   5.991   3.385   1.732  0.0893  0.2990  0.0978
26400W        W42209   6.166  11.166  12.361  0.0155  0.0166  0.1725
26401W        W42210   3.058   9.854  11.561  0.1898 -0.0074 -0.2075
26402W        W42211  12.821  16.718   1.866  0.2013 -0.2580  0.3105
26403W        W42212  15.333  12.586  13.523  0.1280  0.1921  0.0868
26404W        W42213  10.031   1.160   5.247  0.0543 -0.0763  0.1499
26405W        W42214   3.619  15.991  14.913  0.0997  0.1642  0.1364
26406W        W42215  15.776   3.454  12.477  0.2149  0.0098 -0.0716
26407W        W42216   3.117   6.666   4.338 -0.0302 -0.0917 -0.1400
26408W        W42217   1.995   0.303   1.590 -0.3042  0.1834 -0.2089
26409W        W42218   0.300  16.616  12.637 -0.0884 -0.0144  0.0140
26410W        W42219   2.408  10.412  13.744 -0.0104  0.3091 -0.1550
26411W        W42220  16.497  11.056  12.320 -0.1586  0.1592  0.1201
26412W        W42221   3.072   8.702   4.453  0.1776 -0.0128 -0.0088
26413W        W42222  18.038   8.135  11.644  0.1228 -0.0282 -0.1256
26414W        W42223  11.976  18.560   4.258 -0.0261  0.0023 -0.0571
26415W        W42224   5.930  15.902  11.465 -0.3479  0.0976 -0.1073
26416W        W42225   7.365  14.247   2.753  0.1883  0.1556  0.0230
26417W        W42226   1.315   2.579  10.530  0.0077 -0.2770  0.1533
26418W        W42227  11.624   8.776  12.508 -0.0686 -0.0550  0.0131
26419W        W42228  13.153   9.206  14.189 -0.2515 -0.1820 -0.0800
26420W        W42229   0.122  13.063  11.199  0.0645 -0.0202 -0.1663
26421W        W42230  11.209  17.723  13.303  0.0469  0.0697  0.0695
26422W        W42231  10.602  10.888   0.412  0.2260 -0.3748  0.0549
26423W        W42232  11.194   6.947  13.331 -0.0894  0.0864 -0.4918
26424W        W42233   6.801   4.049   2.396 -0.2192 -0.0759 -0.4547
26425W        W42234   9.190   9.429   0.038 -0.1268 -0.4750 -0.2532
26426W        W42235  14.607   1.531   3.592 -0.2346 -0.3944  0.0668
26427W        W42236  18.828   6.165   3.099 -0.0902 -0.2921  0.4054
26428W        W42237  17.552   6.230  11.276  0.2982 -0.1543  0.2003
26429W        W42238  12.154   8.537  13.298 -0.0743 -0.0259  0.2509
26430W        W42239  18.625  10.006  11.757  0.3141 -0.1308  0.2783
26431W        W42240  10.537  16.514   0.138  0.2276 -0.0445 -0.0617
26432W        W42241  17.621  18.585  13.381 -0.2624  0.2969 -0.1740
26433W        W42242   3.974  10.892  14.579 -0.1742  0.1253  0.0778
26434W        W42243   2.721   8.876  12.633  0.2791 -0.0239 -0.2496
26435W        W42244  13.517  11.536  10.818 -0.1484  0.1548 -0.0361
26436W        W42245  11.275  12.713   5.670  0.2341 -0.2498  0.0994
26437W        W42246  18.863   3.915   5.893 -0.0894  0.1672  0.1922
26438W        W42247  14.919  13.331   9.929  0.2535 -0.0436 -0.0954
26439W        W42248   6.404   8.443  13.982  0.3109 -0.0585 -0.2765
26440W        W42249  13.212  13.252  11.437 -0.1996 -0.0461  0.0588
26441W        W42250  16.292  15.148   3.580 -0.3338  0.2611  0.0550
26442W        W42251  13.091   1.930   0.818 -0.0476 -0.1137 -0.1781
26443W        W42252  15.283  11.930   2.285 -0.0003 -0.1638  0.1745
26444W        W42253  14.561  13.820   0.876  0.0797 -0.0213  0.0358
26445W        W42254  15.896   0.687   5.723  0.1876 -0.1062  0.0758
26446W        W42255   0.332  12.661   0.425  0.1987 -0.2752 -0.1789
26447W        W42256   7.479  15.490   0.087  0.3539  0.0830  0.1443
26448W        W42257   8.054  15.325  12.373  0.3097  0.2212 -0.1530
26449W        W42258   4.247  13.152   3.151 -0.1480 -0.2157  0.0717
26450W        W42259   2.991   0.979   4.461 -0.1025  0.0729  0.2251
26451W        W42260   3.070   8.748   2.448  0.3757  0.1077  0.1798
26452W        W42261  11.742   8.247  14.931  0.2202  0.0447 -0.2059
26453W        W42262   8.699  12.787  10.852 -0.1375 -0.0203  0.1045
26454W        W42263  15.038  15.373  14.968 -0.1651  0.1789  0.1179
26455W        W42264  15.276   4.938   0.616 -0.0224  0.4002  0.1937
26456W        W42265  14.758   9.892   2.838 -0.1207  0.0083 -0.1374
26457W        W42266  11.766   1.223  15.016  0.3472  0.0950  0.2082
26458W        W42267  14.416  13.672   2.588  0.1131 -0.4245  0.0119
26459W        W42268  17.077   1.958  15.326  0.3327  0.1246  0.1788
26460W        W42269   4.881  15.091   4.120  0.1689  0.0946 -0.2083
26461W        W42270  17.639  16.292   0.573  0.3809 -0.2041 -0.0754
26462W        W42271   7.031  16.218  10.975  0.3894 -0.2742  0.0884
26463W        W42272  14.329  18.605  12.680  0.2383  0.0185 -0.1996
26464W        W42273   4.481   5.434  11.391 -0.0352 -0.1966  0.1813
26465W        W42274  13.615  10.587   2.290 -0.0395  0.0035  0.1280
26466W        W42275   1.680  10.857  13.335 -0.0659  0.0462  0.0208
26467W        W42276  14.059   2.668   5.595 -0.0537 -0.0149  0.0876
26468W        W42277   1.675  12.729   4.597  0.0404 -0.1794  0.0100
26469W        W42278   5.357  10.171  10.270  0.2278 -0.2585 -0.1626
26470W        W42279   8.224   9.210  15.150  0.0072 -0.0386  0.1172
26471W        W42280  10.853   1.027   1.483  0.0991  0.0116 -0.0362
26472W        W42281   6.498   7.898  11.419  0.0612 -0.0506 -0.1149
26473W        W42282  11.553  18.897   1.055 -0.1901 -0.0488 -0.2555
26474W        W42283  14.364  15.338  14.718 -0.4605  0.2814 -0.0675
26475W        W42284   4.859  16.978   2.752 -0.0226 -0.0884 -0.1873
26476W        W42285   6.338  17.753   3.778  0.1028 -0.1787  0.0864
26477W        W42286   0.312   5.192   4.866 -0.0117 -0.0143  0.2304
26478W        W42287   3.559   2.133  14.499  0.1123  0.1127  0.1352
26479W        W42288   9.264   1.430   0.546 -0.2439  0.5248 -0.0645
26480W        W42289   7.327  16.120   4.449  0.0567  0.1575 -0.3547
26481W        W42290  15.628   8.516   3.956 -0.0443  0.1865 -0.2146
26482W        W42291  12.988   4.535  13.705 -0.1016  0.0710 -0.0338
26483W        W42292  15.934   6.777   3.854  0.2247 -0.0888  0.0409
26484W        W42293  16.610   5.767   5.503  0.1354  0.1060 -0.3707
26485W        W42294   8.111  13.727  13.739 -0.2193 -0.1255 -0.0291
26486W        W42295   7.349  13.068   3.257  0.2341 -0.1259 -0.0495
26487W        W42296  18.004  16.534   1.409 -0.1041 -0.1317  0.2130
26488W        W42297  16.687   9.488  13.995 -0.1082  0.1608  0.2715
26489W        W42298  13.651  15.006  12.217  0.0302  0.0176  0.0822
26490W        W42299  14.907  15.294   1.896 -0.2876  0.0322  0.1719
26491W        W42300   2.880   5.530   2.806  0.1046  0.1185  0.0989
26492W        W42301   1.112  10.303   5.481 -0.1173 -0.2578 -0.2409
26493W        W42302  12.459   9.161   3.139  0.2888  0.0389 -0.0023
26494W        W42303   7.966   5.435   4.962 -0.1235 -0.0394 -0.1759
26495W        W42304  11.814  18.146   5.074 -0.0486 -0.0246  0.1919
26496W        W42305   1.513   3.446  14.270 -0.2910 -0.1428 -0.3600
26497W        W42306  16.567   7.037  13.227 -0.3522 -0.2394  0.1010
26498W        W42307   1.184  11.664   1.113 -0.1810 -0.1128 -0.0261
26499W        W42308  18.868  12.571   3.156  0.1226 -0.2941 -0.0671
26500W        W42309   0.812   8.349  14.257 -0.0198 -0.0737  0.3459
26501W        W42310   3.266   2.380   0.181 -0.1547  0.2848  0.1391
26502W        W42311  18.033   3.951  14.438 -0.0395  0.1339 -0.0280
26503W        W42312  11.724   3.602  12.206  0.1109 -0.0565 -0.1399
26504W        W42313  14.929  13.716   4.918  0.1828 -0.0520 -0.0641
26505W        W42314  12.098   8.790   2.315  0.2136 -0.1858 -0.1677
26506W        W42315   0.675  14.010   2.424 -0.4005 -0.2070 -0.3139
26507W        W42316  15.014  17.500  13.080  0.1237  0.2900  0.3227
26508W        W42317   1.764  16.058  11.644 -0.0486  0.1144 -0.1484
26509W        W42318  12.338   6.733   4.204  0.0949  0.0556  0.0689
26510W        W42319  14.061   9.488  12.536  0.4088 -0.1743 -0.0551
26511W        W42320   5.804  15.125   0.831 -0.6128 -0.0928  0.0213
26512W        W42321   3.507  13.313   3.413 -0.1535 -0.2362 -0.0754
26513W        W42322  17.995  17.851  13.530  0.4223 -0.1094 -0.0056
26514W        W42323   2.882  16.870   0.083  0.0086 -0.4137 -0.1559
26515W        W42324   5.815  10.425   0.413 -0.1488 -0.0810  0.1406
26516W        W42325   0.619   6.600   4.580 -0.1441 -0.6170  0.0602
26517W        W42326  18.041  14.500   4.734  0.1925  0.0498  0.1741
26518W        W42327  15.280  10.670   0.257  0.0718 -0.2567 -0.1133
26519W        W42328   9.692   6.225  10.759 -0.0170  0.1815 -0.0707
26520W        W42329   6.056   3.605   3.811 -0.0280 -0.0022  0.0963
26521W        W42330   5.224  11.592  13.963 -0.1063 -0.0002 -0.1179
26522W        W42331   5.266   9.079  13.239  0.2237  0.1402  0.1147
26523W        W42332   8.362  18.083  11.343  0.5121 -0.0640 -0.1016
26524W        W42333   4.947   7.939   0.574 -0.1856 -0.4873 -0.1640
26525W        W42334  18.081   7.092  13.890 -0.3436  0.4316 -0.1353
26526W        W42335  10.379  14.361  12.725 -0.3015  0.1643 -0.0227
26527W        W42336   3.490   4.435  10.314  0.1018  0.2080  0.1543
26528W        W42337  12.182   1.690  12.282 -0.3672  0.0081  0.0263
26529W        W42338  15.972  18.144   2.025  0.1548  0.0128 -0.0548
26530W        W42339  10.333  16.909  11.466 -0.0335  0.2767  0.0699
26531W        W42340  14.082  15.307  10.239  0.1627  0.1056  0.2045
26532W        W42341  15.526  18.487   4.723 -0.1535 -0.2534 -0.2123
26533W        W42342  13.366  12.679   0.980  0.1757 -0.0263  0.0537
26534W        W42343   6.942  10.770  13.910  0.2199 -0.0517  0.0335
26535W        W42344  11.022   6.296   3.543 -0.2939  0.2290  0.5147
26536W        W42345  17.127  18.627   3.722 -0.0528 -0.2880 -0.3256
26537W        W42346   3.719  15.514   2.402  0.0747 -0.3263  0.0802
26538W        W42347  15.296   6.749  12.718  0.0077  0.2116 -0.1226
26539W        W42348  17.266  13.804  11.514  0.2268 -0.0406 -0.1042
26540W        W42349   1.590  11.638   0.788  0.0850 -0.1902  0.2196
26541W        W42350   7.899  13.898   3.646  0.1091  0.1361 -0.1795
26542W        W42351   2.260  16.277   2.116  0.3799  0.0748 -0.1171
26543W        W42352   7.954  12.327   3.786  0.1483  0.0057  0.3044
26544W        W42353  10.934  14.792  13.005 -0.1707 -0.1613 -0.0186
26545W        W42354   7.773   3.952  14.504  0.0358  0.0591  0.0436
26546W        W42355   0.873  17.450  11.473 -0.1395  0.2296  0.3128
26547W        W42356   5.776   8.351  14.606 -0.0510 -0.1855 -0.1144
26548W        W42357   5.243  11.431   9.587  0.3427  0.0627  0.0593
26549W        W42358  17.024   5.868  15.325 -0.1651 -0.0890 -0.0244
26550W        W42359   0.842   4.916   5.606 -0.0896  0.2251  0.0160
26551W        W42360  17.400  13.274  14.822 -0.1374  0.0926  0.2758
26552W        W42361  16.872  13.059   2.654 -0.1161 -0.1791 -0.1261
26553W        W42362   4.838   3.616   1.688  0.1874 -0.0278 -0.2285
26554W        W42363  15.738   3.725  13.873  0.3684 -0.1296 -0.3412
26555W        W42364   3.709   7.744   1.940 -0.0218 -0.0184 -0.0250
26556W        W42365   4.474   0.114   5.027  0.2875  0.2166 -0.1360
26557W        W42366   8.932   1.997  14.820 -0.1314  0.0236 -0.0568
26558W        W42367  15.668   7.933   4.819  0.3188  0.1898  0.2557
26559W        W42368   1.155  12.847  11.750  0.1564 -0.0288  0.2256
26560W        W42369   4.945   1.999  13.730 -0.0773 -0.1868 -0.0228
26561W        W42370  17.073  11.484  14.317 -0.1708 -0.1270 -0.1036
26562W        W42371   8.103  17.022   0.298  0.3667  0.2918 -0.2129
26563W        W42372   0.433   3.045  14.731 -0.0900 -0.0866 -0.3752
26564W        W42373   2.222   9.443   1.889  0.0925  0.1084 -0.0153
26565W        W42374   9.923  18.214   2.560 -0.2368 -0.2360 -0.1010
26566W        W42375  17.857   4.396   4.362  0.4812  0.2694  0.2173
26567W        W42376   1.405   9.227   4.502 -0.0764  0.3191 -0.0916
26568W        W42377  12.838   0.576  12.447  0.4319 -0.1460  0.1288
26569W        W42378   5.589   7.511   3.687 -0.1637 -0.0461 -0.1564
26570W        W42379   9.920   3.261  13.065  0.1187  0.1612  0.0220
26571W        W42380  11.599   0.729   5.513  0.2090  0.1925 -0.0011
26572W        W42381  11.338  11.367   3.715 -0.1147  0.0827  0.1425
26573W        W42382   4.684   1.998   5.552 -0.3126  0.0059 -0.1732
26574W        W42383  13.866   8.217  14.350 -0.1855  0.0340 -0.0493
26575W        W42384   9.160   2.027  15.334  0.1094 -0.1760 -0.0798
26576W        W42385   3.064  14.773  13.205 -0.1075  0.0684 -0.1669
26577W        W42386   4.665   3.969  12.173  0.0794 -0.0285 -0.0168
26578W        W42387   7.058  18.706   0.696  0.3231  0.1633 -0.0899
26579W        W42388  15.744   3.660  11.337 -0.1308  0.0612  0.1182
26580W        W42389  16.370   7.526   1.109  0.1308 -0.0203  0.1262
26581W        W42390   7.650   4.595   1.272  0.2909 -0.1539  0.2001
26582W        W42391  14.341   5.741  10.135  0.1200 -0.1582 -0.1862
26583W        W42392   2.966   7.687   3.393  0.0329 -0.0530  0.3737
26584W        W42393  11.950   3.987  11.987  0.2628  0.2447  0.1679
26585W        W42394  15.973   5.192  13.811 -0.1478 -0.0536  0.1316
26586W        W42395  18.774   5.394   5.005  0.4605  0.0615  0.0431
26587W        W42396  14.503   4.020   4.905  0.1293  0.3372 -0.1446
26588W        W42397   3.531  16.865  13.158 -0.0337 -0.1904 -0.0202
26589W        W42398  14.034  13.378  12.510 -0.2220  0.3828  0.1262
26590W        W42399  10.770   6.305   2.234 -0.0290  0.3688 -0.0015
26591W        W42400  10.946   0.761   3.508 -0.1003  0.0222 -0.0568
26592W        W42401  16.312  10.107   1.987  0.1181  0.0725  0.1931
26593W        W42402  18.912   0.284  12.265 -0.0788  0.0757 -0.0417
26594W        W42403  15.719   3.235   2.561  0.0500  0.0522 -0.0989
26595W        W42404  16.664   3.288   0.733  0.0102  0.3115 -0.0368
26596W        W42405  17.441   9.510  13.383  0.1730 -0.0170 -0.3818
26597W        W42406   5.297  17.144  14.941 -0.4549 -0.1747 -0.0030
26598W        W42407  12.685   0.063   2.588  0.0318 -0.1595 -0.0462
26599W        W42408  13.581   0.651   9.962  0.2491 -0.0634  0.4343
26600W        W42409   5.430  11.207   0.801  0.0199 -0.0694  0.0233
26601W        W42410   0.644   4.656   6.004 -0.2307  0.1233 -0.1192
26602W        W42411   5.838  10.631  15.301 -0.1013 -0.2330 -0.0021
26603W        W42412  18.594  11.796   0.633  0.0328 -0.0910  0.1173
26604W        W42413  16.058   9.622   9.668  0.3357 -0.2412 -0.3112
26605W        W42414   3.496  16.406   4.022  0.0338 -0.2112  0.1731
26606W        W42415   8.814   4.475  15.406 -0.5103  0.3255 -0.4183
26607W        W42416   6.143   1.267  12.370 -0.0147 -0.0191 -0.0856
26608W        W42417  17.954  13.400   6.270  0.0319  0.3258  0.0619
26609W        W42418   1.635   5.771   3.630  0.3746 -0.1688 -0.0164
26610W        W42419   8.807  16.469  11.212  0.0269 -0.0329 -0.0039
26611W        W42420   2.077   1.359   3.423 -0.0866  0.2050 -0.0394
26612W        W42421   5.269  10.391  11.803 -0.1315 -0.0629  0.1403
26613W        W42422  16.063  10.892  14.944 -0.1854  0.0091 -0.0083
26614W        W42423   8.743   6.583   1.403  0.0605  0.0185  0.0830
26615W        W42424  14.343  14.373   1.192 -0.3541  0.0984 -0.0925
26616W        W42425  14.383  16.584   3.450 -0.0609  0.0250 -0.1128
26617W        W42426  12.465   4.489   3.982 -0.0724  0.1094  0.0355
26618W        W42427  16.469   0.476   0.189  0.1420  0.0289 -0.1101
26619W        W42428   8.941   7.749  13.892 -0.1068 -0.0801 -0.0278
26620W        W42429  13.660  15.392  14.285 -0.1014 -0.1753  0.0068
26621W        W42430   6.217  11.061   1.187 -0.0221 -0.1494  0.2194
26622W        W42431   1.038   1.062  13.883 -0.0912 -0.3073  0.3595
26623W        W42432  14.742   3.263   4.578 -0.4084 -0.0300  0.3512
26624W        W42433   0.932   2.475   4.136 -0.1688 -0.0249  0.0039
26625W        W42434  15.509  16.958   2.658 -0.1457  0.1818  0.2483
26626W        W42435   8.727   0.593   4.805 -0.0001  0.0347  0.1092
26627W        W42436  18.762  12.607  13.280  0.1508 -0.2554  0.1068
26628W        W42437  15.103   5.213   2.451  0.3204 -0.0122  0.0716
26629W        W42438   5.491   1.854  14.920 -0.0349  0.1023  0.0323
26630W        W42439   8.336  14.182  11.784 -0.3115  0.0639 -0.1375
26631W        W42440   4.848  10.129  11.831 -0.2033  0.2749 -0.3190
26632W        W42441   1.587   1.311   2.784 -0.4141  0.0562  0.2868
26633W        W42442  15.280   3.489  14.342 -0.3109 -0.1776 -0.1550
26634W        W42443  10.195   8.705  13.498 -0.4118 -0.1755 -0.0406
26635W        W42444   3.825  14.276   2.663  0.0365  0.0230 -0.1212
26636W        W42445  18.894  11.815   5.991 -0.0725  0.0362 -0.1976
26637W        W42446   8.662  18.787   2.596  0.3159 -0.0581  0.0521
26638W        W42447   4.818   9.123  13.023 -0.0553  0.0687 -0.3127
26639W        W42448   5.799   2.217   5.630  0.0718 -0.0220  0.0076
26640W        W42449  11.631  16.544  14.869  0.2511  0.3565 -0.0685
26641W        W42450   4.250   3.539   0.110 -0.1212  0.1468  0.1102
26642W        W42451   3.077   9.498  11.955 -0.0129 -0.3878 -0.0365
26643W        W42452   9.928  12.170  12.912 -0.0231 -0.1942 -0.2743
26644W        W42453   8.050   5.816   4.647  0.4026 -0.1859 -0.2112
26645W        W42454  10.394   7.559  12.870  0.2427 -0.3208  0.0500
26646W        W42455  10.078   5.445  12.597 -0.4588  0.0015 -0.1092
26647W        W42456   7.501   2.698   2.075 -0.3815 -0.3308 -0.1105
26648W        W42457   9.071  16.474  10.729  0.0870 -0.1653 -0.0529
26649W        W42458   6.955  11.211  12.050 -0.1344  0.0421  0.4513
26650W        W42459  18.640  11.116  12.244 -0.0943 -0.0880 -0.0843
26651W        W42460   9.588  10.901   3.404 -0.2841  0.1364 -0.1101
26652W        W42461  12.914   7.867  13.842 -0.1792  0.4026  0.1158
26653W        W42462   1.083  17.488   2.148  0.0686 -0.2054  0.2503
26654W        W42463  18.495   7.974  11.604 -0.2440 -0.1027 -0.1697
26655W        W42464   6.716  12.041  15.329  0.1763 -0.0265 -0.0322
26656W        W42465   6.060  12.843  11.900  0.1993 -0.0317  0.1656
26657W        W42466  18.245   0.905  10.478  0.3010  0.1694  0.0595
26658W        W42467  16.167   9.513  11.441 -0.1249  0.0489  0.2166
26659W        W42468   0.175   1.550  10.926 -0.0745  0.0452  0.1734
26660W        W42469  18.291  13.061  12.130  0.1810 -0.3176  0.0344
26661W        W42470   1.982  10.063   5.235 -0.1392 -0.2613  0.3612
26662W        W42471   2.602  12.361   2.216  0.2003 -0.0472 -0.4149
26663W        W42472   8.541  16.269  12.041 -0.1037  0.1560  0.0967
26664W        W42473  14.519   8.326  13.736 -0.0304 -0.2922 -0.1504
26665W        W42474   9.876  17.397  14.748 -0.0678  0.0813 -0.0815
26666W        W42475   7.706  11.904   2.794  0.4984 -0.0288 -0.0789
26667W        W42476   1.937   0.827   1.612  0.3017 -0.0511 -0.0843
26668W        W42477   0.038   6.069  11.828  0.3068 -0.1599  0.0827
26669W        W42478   2.072   8.590  14.040  0.2973 -0.1206 -0.1312
26670W        W42479   0.719   3.055   3.037 -0.2641 -0.1953 -0.3810
26671W        W42480  17.313  12.174   9.276  0.1561  0.0038 -0.1337
26672W        W42481   9.030  13.694  11.711 -0.1671  0.1489  0.0796
26673W        W42482  11.159   7.000  13.882 -0.1543  0.1852  0.1800
26674W        W42483  17.943  14.248  14.634  0.2790 -0.0724 -0.2319
26675W        W42484   3.432   4.845   2.676 -0.2618 -0.0191 -0.0401
26676W        W42485   8.476  18.386  10.973 -0.1542 -0.2130  0.0431
26677W        W42486   9.143   3.863  15.423 -0.2534 -0.3273  0.3387
26678W        W42487  16.267   4.813   3.413 -0.0797  0.1420 -0.1552
26679W        W42488   0.277  14.473   1.405  0.2572  0.0077 -0.1628
26680W        W42489   7.835   3.029   1.869  0.2402  0.2508  0.0496
26681W        W42490   2.205   6.012  15.401 -0.4620  0.0883  0.1440
26682W        W42491  18.412   7.406  14.098  0.4424 -0.1027 -0.0595
26683W        W42492  15.360  17.981   4.680  0.1186  0.0440 -0.3253
26684W        W42493  18.317   1.436   1.232 -0.1807 -0.1265  0.2578
26685W        W42494  12.869   0.062   0.630  0.0376 -0.1643  0.1708
26686W        W42495   9.059   1.595  13.468 -0.0826 -0.3247 -0.3584
26687W        W42496   0.076  13.358  10.089  0.3792 -0.0197 -0.0994
26688W        W42497   3.726  17.922   0.462 -0.2488 -0.0536 -0.2177
26689W        W42498  18.776  12.826  13.797 -0.3184  0.4226 -0.0343
26690W        W42499   1.815   9.256  15.148 -0.4382  0.0875  0.0799
26691W        W42500  10.784  13.152   5.124  0.0034 -0.0183  0.0639
26692W        W42501  18.365   0.305   0.307  0.2556  0.0510 -0.1164
26693W        W42502   2.202   1.619   2.218 -0.0141  0.0054 -0.1685
26694W        W42503  18.773  18.635   2.988  0.1052  0.3448  0.1332
26695W        W42504  12.861   3.229   0.613 -0.1771  0.0470  0.2936
26696W        W42505  13.140  11.506   9.891 -0.2057  0.0307 -0.0295
26697W        W42506  18.286  13.022  11.597 -0.2548 -0.3514  0.0687
26698W        W42507   8.547   6.742   4.470 -0.0058 -0.2073  0.0567
26699W        W42508  12.053   7.763   1.290 -0.1820 -0.0390  0.0713
26700W        W42509   4.734  16.453  13.663 -0.2987 -0.0317 -0.0187
26701W        W42510   3.988   8.183   3.692  0.3218 -0.0042  0.1789
26702W        W42511   0.111   4.464   4.574 -0.0694 -0.0944 -0.1914
26703W        W42512  16.147  18.354   0.108 -0.0120 -0.0136  0.0053
26704W        W42513   2.482  11.877  12.461  0.2718 -0.0491 -0.1574
26705W        W42514  18.712  10.854  11.311  0.3362 -0.0924 -0.2824
26706W        W42515   3.364  11.623   4.003 -0.1718  0.2783 -0.4016
26707W        W42516  10.247   2.087   3.764  0.1281  0.0011  0.0195
26708W        W42517   6.868  11.476  15.360  0.2473  0.4544 -0.0238
26709W        W42518   6.045  15.617  10.706 -0.3514 -0.0237  0.0598
26710W        W42519   9.300   0.287   0.820  0.0891  0.2717 -0.6770
26711W        W42520   3.626  10.038   0.627 -0.1596  0.0270 -0.1821
26712W        W42521  18.714  11.776   1.981  0.2076  0.3489 -0.0249
26713W        W42522   3.481  13.136  14.754  0.1629 -0.0301  0.3240
26714W        W42523  13.233   8.363   1.038  0.2416 -0.1637  0.3635
26715W        W42524   5.910  18.668  10.685 -0.3497  0.2105 -0.0035
26716W        W42525   8.202  16.756   3.110 -0.0544 -0.3645  0.3083
26717W        W42526  13.150   9.540   1.112  0.0218  0.0704  0.0579
26718W        W42527   1.481   5.741  14.439 -0.1312  0.0657  0.3456
26719W        W42528  15.382  12.348   1.610 -0.1985  0.0069  0.0218
26720W        W42529  13.664   2.258   2.763 -0.0376  0.3960 -0.1772
26721W        W42530  13.277   9.137   3.469 -0.2573  0.2037 -0.0284
26722W        W42531   1.904  12.159   1.384 -0.0368 -0.1034  0.1686
26723W        W42532  12.668   4.129  11.988  0.1322  0.0033  0.0120
26724W        W42533  14.116   2.406   3.269  0.3196  0.0421 -0.1228
26725W        W42534   7.465   9.489   3.197  0.0030 -0.3063 -0.2005
26726W        W42535  13.698  15.760   1.282 -0.1077 -0.0642  0.0995
26727W        W42536  12.211   3.455  13.141 -0.0642 -0.2440 -0.1146
26728W        W42537   8.111   9.676  11.351 -0.0327  0.3961  0.0838
26729W        W42538   9.475   1.127   1.891  0.2219  0.1838 -0.0383
26730W        W42539   6.555   0.144  13.671 -0.0924  0.3612  0.0424
26731W        W42540  14.335   1.866   1.161 -0.0093 -0.2355  0.2083
26732W        W42541   8.542   7.074   1.108 -0.2031 -0.0647  0.0696
26733W        W42542   5.446   3.521   1.681 -0.1418 -0.2396 -0.0150
26734W        W42543  11.664  10.182  10.885 -0.1674  0.0729  0.0305
26735W        W42544  16.465   5.870  15.329 -0.2307 -0.0010 -0.0790
26736W        W42545  14.822  16.675   5.113 -0.4532  0.1747 -0.0573
26737W        W42546  17.541  10.364  12.340 -0.0475  0.1712  0.0360
26738W        W42547   2.717   7.953   1.047  0.1955 -0.0442 -0.0540
26739W        W42548   1.695   2.674   0.602 -0.0300 -0.1793 -0.0434
26740W        W42549   4.720   9.950  14.749  0.0534 -0.3162  0.2467
26741W        W42550   0.895  15.735   4.928  0.0414  0.1959 -0.1923
26742W        W42551  18.513   6.738  11.641  0.0132  0.1251  0.1208
26743W        W42552  14.801   3.569  15.401 -0.1802  0.2213  0.4251
26744W        W42553   4.470   3.049   4.573  0.2886 -0.1013  0.0483
26745W        W42554  15.882  13.543   3.058 -0.1945 -0.0062 -0.0006
26746W        W42555  11.994  10.484  11.106 -0.2600  0.2178 -0.1415
26747W        W42556  10.947   5.943  10.437 -0.2185  0.1140 -0.2688
26748W        W42557  11.467  10.826  14.125  0.1104 -0.2206  0.0633
26749W        W42558   8.817   0.740   5.930  0.1784  0.0658 -0.2166
26750W        W42559   9.526  11.360   0.629  0.0674 -0.0686 -0.0528
26751W        W42560  18.220   6.533   2.191  0.0147 -0.4151 -0.0761
26752W        W42561  13.036  10.697  14.611 -0.1578 -0.1633 -0.0336
26753W        W42562   3.652  16.104   3.570 -0.0266 -0.2047  0.2095
26754W        W42563   7.618   7.112   1.941  0.0533 -0.4054  0.0742
26755W        W42564   8.229   6.519  11.037  0.3395  0.0422 -0.0251
26756W        W42565   3.156   5.361   3.889  0.1407  0.1679  0.1153
26757W        W42566  17.042   7.757  12.530 -0.0888 -0.1481  0.0476
26758W        W42567   9.319  12.241   0.812 -0.2682 -0.0071 -0.2050
26759W        W42568   5.451  18.591   1.773 -0.0916  0.3651  0.0601
26760W        W42569   2.761   4.012   3.187  0.2728 -0.0987  0.1651
26761W        W42570  10.819  15.560   1.112  0.0548  0.0884  0.0773
26762W        W42571   3.484  12.372   0.935  0.0760  0.1806  0.1504
26763W        W42572   7.347  16.562  14.098 -0.1185 -0.2818 -0.1191
26764W        W42573   5.638  10.878   9.859  0.1398 -0.1265  0.0057
26765W        W42574   2.152  17.650   4.673  0.2099 -0.0368 -0.1868
26766W        W42575   6.659  13.038   2.399 -0.3183  0.4266  0.0023
26767W        W42576   9.560   0.882  15.268  0.3392 -0.1593  0.0282
26768W        W42577  16.977   0.109   2.061  0.5735  0.1443  0.3582
26769W        W42578   3.992   1.733   4.385 -0.0102  0.4330 -0.1174
26770W        W42579   1.923   5.701  11.546  0.3451  0.2170 -0.2846
26771W        W42580   1.746   3.904  12.530 -0.1612 -0.2611 -0.3990
26772W        W42581   4.682   1.323   4.509  0.3420  0.3645 -0.0210
26773W        W42582   6.063  10.318  10.624  0.2048  0.4280  0.3199
26774W        W42583   9.759   1.982  15.216 -0.0443 -0.1146 -0.0347
26775W        W42584  15.860  14.927   1.793 -0.2588  0.2148 -0.1655
26776W        W42585  12.519  14.824   3.907 -0.2147  0.0180 -0.0107
26777W        W42586   5.701   2.906   0.229 -0.0466  0.0200 -0.0814
26778W        W42587   7.598  11.488  15.409 -0.0177 -0.1072 -0.2588
26779W        W42588   5.047   2.177  14.630 -0.1595 -0.4774 -0.0455
26780W        W42589  13.267   0.816  12.619 -0.1238  0.0474  0.1027
26781W        W42590   7.460  13.940   2.207 -0.3352 -0.0788 -0.0135
26782W        W42591  15.108   0.717   0.009  0.4450 -0.1051 -0.0767
26783W        W42592   8.118   8.305   0.238  0.2625 -0.0321  0.0362
26784W        W42593  11.504   2.190  10.383 -0.1441  0.1359 -0.2260
26785W        W42594  11.595   9.971  13.589 -0.0875 -0.2288 -0.3053
26786W        W42595  12.241  17.354   0.235 -0.1648  0.2189 -0.1978
26787W        W42596  14.175   0.491  13.083 -0.0886  0.2956 -0.0197
26788W        W42597  13.314  17.093  14.718 -0.3776 -0.0389 -0.3445
26789W        W42598  13.431  14.503  14.308 -0.0729 -0.1123  0.0988
26790W        W42599  11.676   2.737   1.263 -0.1061  0.0454 -0.0101
26791W        W42600   2.084   1.865  14.855 -0.0905  0.1068 -0.1240
26792W        W42601  16.478   8.138   3.522 -0.1169 -0.1420 -0.1508
26793W        W42602  12.588   1.899   0.039 -0.1495 -0.0641  0.4340
26794W        W42603   4.976   2.058   5.121 -0.0421  0.1691 -0.1224
26795W        W42604  17.427  16.659  10.831  0.0032  0.0437  0.0416
26796W        W42605   5.105   3.274   1.428 -0.1211 -0.0507  0.1180
26797W        W42606  13.570  11.841   0.609 -0.2105  0.0699 -0.1897
26798W        W42607   2.119  13.744  10.455  0.1355 -0.0516 -0.0667
26799W        W42608  10.044   7.789   3.193 -0.1630 -0.0805 -0.1141
26800W        W42609   1.826   1.002  12.763 -0.3589 -0.1278  0.2850
26801W        W42610   4.664  10.611  11.888 -0.3124 -0.1282  0.2158
26802W        W42611   1.131  17.825  12.796  0.1984 -0.0490  0.2346
26803W        W42612   1.001   0.929  11.080  0.0364 -0.0865  0.0644
26804W        W42613   0.992   4.175   1.478  0.0171 -0.0596  0.0245
26805W        W42614  18.875  10.684   1.026  0.3201 -0.0762  0.1518
26806W        W42615   2.063  17.029   0.913 -0.1171  0.2959 -0.0795
26807W        W42616  15.077   8.435   0.932  0.0997 -0.0571  0.2463
26808W        W42617   1.866   3.545   5.075 -0.1082 -0.1823  0.1127
26809W        W42618   5.305   3.597   1.066 -0.0609 -0.0243  0.3119
26810W        W42619  17.193  14.555   3.497  0.3439 -0.3113  0.3406
26811W        W42620   5.297   3.070  13.957  0.0892  0.2707  0.1428
26812W        W42621   7.951   6.202   2.845  0.1747  0.0589  0.3612
26813W        W42622   5.659   4.050  14.100 -0.0211  0.2656  0.2510
26814W        W42623  14.289  17.337  11.880  0.1161 -0.2281 -0.0358
26815W        W42624  14.380  15.108  13.745 -0.1171  0.1015 -0.1048
26816W        W42625   9.092  15.683   5.670  0.4451 -0.0080 -0.1250
26817W        W42626   7.968  10.547  11.003 -0.0953 -0.0259  0.0020
26818W        W42627  13.768   6.223   2.519  0.4660  0.0529 -0.2653
26819W        W42628   5.032  11.965  12.120  0.0087  0.0916  0.0494
26820W        W42629   7.236  14.012   3.233 -0.0635  0.2341  0.0381
26821W        W42630  15.287  15.349   2.949  0.0106 -0.1452 -0.0547
26822W        W42631   4.106  18.903   1.316  0.2925  0.2107 -0.0980
26823W        W42632  11.267   2.874  13.246 -0.1144  0.0757 -0.0018
26824W        W42633   3.823  16.655   5.067 -0.2390  0.1401  0.0068
26825W        W42634   1.605  18.463   0.341 -0.3318 -0.0323  0.1268
26826W        W42635  15.600  11.959   3.628  0.0442  0.2042  0.0707
26827W        W42636  11.898  12.463   4.480  0.0741  0.2919 -0.0232
26828W        W42637   4.060  16.647   2.789  0.0349 -0.1687 -0.1228
26829W        W42638   7.574  17.486   0.357 -0.0017  0.0086  0.0051
26830W        W42639   4.512  11.430  13.200  0.2178 -0.0307  0.1426
26831W        W42640  12.099   6.659   4.925  0.0537  0.0039 -0.0561
26832W        W42641   5.008   6.132   1.921  0.0516  0.1352 -0.1809
26833W        W42642   7.260   8.349   5.136 -0.0894  0.1020 -0.3952
26834W        W42643   5.290  14.402   1.562 -0.0722 -0.0920  0.0568
26835W        W42644   0.679  14.349  12.901 -0.0533  0.2564 -0.1023
26836W        W42645   9.727  18.385   4.217 -0.3029  0.2246 -0.2150
26837W        W42646  16.153   7.177   5.495  0.3816  0.1357 -0.1317
26838W        W42647  11.152  10.022   5.026 -0.1990 -0.0239 -0.0413
26839W        W42648   8.195  14.715   5.115 -0.0464 -0.0984  0.0695
26840W        W42649  12.842  13.507  12.885 -0.0855 -0.0099 -0.0151
26841W        W42650   0.141   0.479   4.480  0.0530  0.1965 -0.0697
26842W        W42651   2.475   4.977   4.914 -0.0331 -0.1812 -0.0999
26843W        W42652  13.604  10.736  11.839  0.2069 -0.0220 -0.2047
26844W        W42653   9.076  14.588  12.771  0.0907 -0.0335 -0.0395
26845W        W42654   3.740   8.105  14.180  0.0649 -0.0533  0.1074
26846W        W42655  15.489  16.892  11.270  0.1354  0.2512  0.3914
26847W        W42656   5.943  15.128   0.270  0.0742 -0.3236  0.0670
26848W        W42657  11.259  15.661   0.906 -0.2032 -0.1783  0.0511
26849W        W42658  11.224   1.403   4.869 -0.1598 -0.5205 -0.1954
26850W        W42659  12.545  13.821   0.058  0.1906  0.1459  0.3422
26851W        W42660   3.779  11.777  10.448 -0.3304  0.3479 -0.2635
26852W        W42661   3.422  11.539  14.425  0.2179  0.0525  0.0841
26853W        W42662   0.374   7.824  11.905  0.2586  0.3390 -0.1128
26854W        W42663   3.382   5.704  12.809 -0.0216 -0.0696  0.0515
26855W        W42664   6.630   9.165   4.911 -0.1066 -0.1451  0.0747
26856W        W42665  15.289   9.230   2.411  0.3738 -0.2034  0.0664
26857W        W42666  14.710   1.618  10.389  0.0116 -0.2428  0.0497
26858W        W42667   6.173  10.542   4.056  0.2407 -0.4000 -0.1854
26859W        W42668   0.728  14.488   2.268  0.0304 -0.1777 -0.2004
26860W        W42669   7.264   3.291  11.106  0.2472 -0.0660 -0.1268
26861W        W42670   6.826   1.492   3.577 -0.4065  0.2885 -0.1019
26862W        W42671   9.876   4.669   0.759  0.0109  0.2302  0.2114
26863W        W42672   1.115  16.537   3.849  0.1770 -0.0622  0.0121
26864W        W42673   2.110  17.200  10.645 -0.1849 -0.2428  0.2919
26865W        W42674  15.151  12.971   5.986 -0.2796 -0.0124  0.1870
26866W        W42675   3.702   3.531   3.161 -0.2253 -0.2764 -0.1237
26867W        W42676   5.681   6.918   3.193  0.0619  0.2049  0.1296
26868W        W42677   1.288   0.770   0.185  0.0457  0.2204 -0.0835
26869W        W42678  14.128  15.554  11.055 -0.0827 -0.1080 -0.0473
26870W        W42679  10.186   7.434   1.353  0.1746  0.0263  0.0165
26871W        W42680   0.990  17.006   3.106  0.1270  0.1255 -0.2373
26872W        W42681   8.393   1.692   2.725 -0.3025 -0.1843 -0.0772
26873W        W42682  10.327   4.816  11.027 -0.0391  0.1420  0.1804
26874W        W42683  13.129  10.302  12.785 -0.2057  0.3877 -0.0303
26875W        W42684  14.779   1.978  12.388  0.0365 -0.1900 -0.0915
26876W        W42685  14.726   1.942   3.994 -0.1005 -0.1204 -0.0078
26877W        W42686   4.327   1.767   5.289 -0.1001  0.0121  0.0065
26878W        W42687   3.550   4.328  12.157  0.0567  0.1228  0.0749
26879W        W42688  14.222   4.838   3.416  0.0012 -0.0914 -0.0137
26880W        W42689  15.225  10.212  11.250 -0.0364  0.0295  0.0947
26881W        W42690   6.909  14.165   1.611 -0.2181  0.0356  0.1598
26882W        W42691   5.889   7.471   1.478  0.2021 -0.1924 -0.1094
26883W        W42692  16.391   7.356   4.755 -0.1431  0.0992 -0.1665
26884W        W42693  18.624  12.042  10.968 -0.0530 -0.1129  0.0172
26885W        W42694   8.337   1.256  14.139  0.0265  0.0987 -0.3218
26886W        W42695  12.099   3.143   2.162  0.2682 -0.1320  0.1642
26887W        W42696  14.745  13.083   3.138 -0.1819  0.1052 -0.0711
26888W        W42697  12.514   0.616   5.183  0.2137  0.0102  0.1064
26889W        W42698   3.962   7.577   2.301 -0.2080 -0.0542 -0.4677
26890W        W42699   5.629  12.727  11.666 -0.1389 -0.1497 -0.1641
26891W        W42700  12.298   9.608  15.082 -0.0028  0.1772  0.0622
26892W        W42701  15.314   0.719  13.400 -0.0022 -0.2160 -0.0058
26893W        W42702   0.881   2.458  11.971 -0.0798 -0.1868 -0.0959
26894W        W42703  14.624   8.141   4.307 -0.0261 -0.1704  0.0014
26895W        W42704  16.782   8.768  11.624  0.2288 -0.3593 -0.1134
26896W        W42705   1.544   6.684  12.063  0.0467  0.0816 -0.3716
26897W        W42706  16.946   1.004  13.073 -0.0114 -0.1898 -0.0204
26898W        W42707   8.197   9.220  11.103 -0.0356  0.2656 -0.4703
26899W        W42708   3.009   5.383   0.764  0.1331 -0.1133 -0.1225
26900W        W42709  10.928   6.301  14.475  0.0006 -0.0034  0.0396
26901W        W42710  13.386   4.536   3.534 -0.0374  0.3890 -0.1130
26902W        W42711  10.925   4.242   5.559  0.0303 -0.1217 -0.3796
26903W        W42712  14.768   8.549  14.088  0.2683 -0.1198  0.2700
26904W        W42713  11.746   0.087   0.518  0.1408  0.2723  0.0916
26905W        W42714   0.404   8.804   3.946 -0.0524  0.4320  0.0868
26906W        W42715   2.182  16.465  15.158 -0.1173  0.0099  0.1094
26907W        W42716  14.721   4.073  11.551  0.0935 -0.3561 -0.0695
26908W        W42717  10.943  17.083   2.428 -0.0026  0.0399  0.1653
26909W        W42718  17.998   9.614   2.984  0.0324  0.1221  0.1689
26910W        W42719   2.390  12.757  12.032  0.1312  0.1756  0.0750
26911W        W42720   8.543  15.581   3.656 -0.0845  0.1931  0.0292
26912W        W42721   7.819   2.826   3.807 -0.2656  0.0962  0.1347
26913W        W42722   6.685   4.771  10.208  0.1096  0.1826  0.0580
26914W        W42723   8.822   3.460   4.299  0.2312 -0.0093  0.3484
26915W        W42724  12.280  16.126   3.283  0.0188 -0.1591 -0.1015
26916W        W42725  15.069  12.271  10.455  0.3177 -0.1642  0.0517
26917W        W42726   6.245  10.669  12.503  0.1112  0.1781  0.0371
26918W        W42727  12.640  10.491   0.086 -0.0999 -0.1771  0.2571
26919W        W42728   0.441   7.918   4.094 -0.0603  0.1828  0.3030
26920W        W42729   0.987  10.688   1.447 -0.0993  0.2755  0.2048
26921W        W42730  10.334  16.185  10.881  0.0031  0.1215 -0.2573
26922W        W42731  14.331   2.944  13.469 -0.1207 -0.0022 -0.0743
26923W        W42732  14.163   6.389   5.520 -0.1264  0.0556  0.0830
26924W        W42733   2.995   8.072   6.072  0.0870 -0.1515  0.1030
26925W        W42734  13.130   2.292   2.103 -0.0039 -0.2167 -0.1713
26926W        W42735   0.346   5.684   5.118  0.1628  0.1855  0.3813
26927W        W42736  12.116   0.925  13.639  0.1050  0.0688  0.2807
26928W        W42737   9.696  13.836  13.981  0.1680  0.0185  0.1529
26929W        W42738  14.183   2.630   0.891  0.3187 -0.0205 -0.0273
26930W        W42739  13.859   5.917   4.278  0.1494 -0.1600 -0.2898
26931W        W42740  17.082   3.087   1.779  0.1641  0.2112  0.0867
26932W        W42741  13.630  16.052   5.561  0.1256 -0.1201  0.2554
26933W        W42742  14.204  12.770   3.892  0.5764 -0.0786  0.3568
26934W        W42743   4.394   9.641   1.911  0.1838  0.5285  0.1702
26935W        W42744  15.082   8.416   3.649 -0.0049  0.3105  0.2775
26936W        W42745   8.471   0.082  14.575  0.0368 -0.1468 -0.0847
26937W        W42746  10.098  11.485   1.595 -0.0241 -0.0207 -0.3046
26938W        W42747  12.295  18.777   2.878 -0.1136  0.1794  0.2045
26939W        W42748   4.741  18.272   4.593 -0.2181 -0.2191 -0.2247
26940W        W42749  12.969  13.619   1.877 -0.0851 -0.2803  0.3452
26941W        W42750   8.827   7.441   1.174 -0.0194 -0.0472 -0.0059
26942W        W42751   6.184  14.445   5.471  0.0361 -0.1123  0.0019
26943W        W42752  16.683  15.625   4.198 -0.2334 -0.0395  0.3289
26944W        W42753  10.579  13.234   1.532 -0.1703  0.1137  0.1689
26945W        W42754  13.730  17.462  14.106 -0.2516 -0.0208 -0.2988
26946W        W42755   5.388   5.292   0.084  0.5252 -0.3084  0.0200
26947W        W42756   0.323   9.191  12.843  0.0102  0.0776  0.2881
26948W        W42757   5.199   6.348   3.710 -0.1133  0.3439  0.0280
26949W        W42758  18.060  10.809   3.496  0.1348  0.0469  0.1599
26950W        W42759   4.902   5.500   1.855  0.2255 -0.2657  0.0149
26951W        W42760  16.760  18.050  14.752  0.2346 -0.1015 -0.2683
26952W        W42761   4.283   1.992  11.722  0.0834  0.2300 -0.1528
26953W        W42762   4.739  11.987   3.493  0.1454 -0.0239 -0.0990
26954W        W42763  15.990  12.887   5.795  0.1865 -0.1942 -0.0124
26955W        W42764  18.415  11.114   4.450  0.0411  0.1594 -0.2387
26956W        W42765  10.807  12.440  10.745 -0.2286  0.0293  0.0777
26957W        W42766  10.500   6.318  12.318 -0.0061  0.0228  0.1305
26958W        W42767  16.641   2.297  11.559  0.0170 -0.2693  0.1785
26959W        W42768  17.237   6.661  13.979 -0.0418 -0.1620 -0.1410
26960W        W42769  17.538   4.844   1.471 -0.4448 -0.1088 -0.1282
26961W        W42770  14.464  15.787  11.347 -0.2297  0.1002 -0.0093
26962W        W42771   2.357   4.711   4.416 -0.0837 -0.0267 -0.2810
26963W        W42772  16.670   1.198  14.167  0.0552 -0.1623 -0.0938
26964W        W42773  14.628  12.308   1.154  0.0533  0.1058  0.1843
26965W        W42774   9.758  12.636  10.783 -0.2317 -0.0641  0.3051
26966W        W42775  17.655  14.760   3.467 -0.1713  0.0587  0.2165
26967W        W42776  15.920  15.246  10.428 -0.2350 -0.1422 -0.1218
26968W        W42777   6.132  13.354   2.468  0.0818  0.1510 -0.1729
26969W        W42778  15.704  17.373   5.376  0.1463 -0.0428  0.0814
26970W        W42779   9.188  11.121  14.455 -0.0882 -0.0633  0.1385
26971W        W42780  13.800  14.143  15.120 -0.1175  0.2342  0.0823
26972W        W42781  13.301   2.833  14.302 -0.2729  0.3885  0.1960
26973W        W42782   5.512  10.901  11.162  0.0137 -0.1681 -0.2173
26974W        W42783  12.388  13.281  14.416  0.0947 -0.0717 -0.2317
26975W        W42784   5.231  18.217   2.275 -0.1871  0.3079 -0.2313
26976W        W42785  11.424  18.387   0.864 -0.3195  0.1916 -0.1198
26977W        W42786   2.526  11.843   2.512 -0.2735 -0.0996  0.1467
26978W        W42787   2.092  10.371  11.258 -0.2874  0.0984  0.0548
26979W        W42788  17.621   3.870   4.195  0.2818 -0.1657  0.2112
26980W        W42789  11.325  13.018   2.263 -0.1646 -0.3867 -0.2139
26981W        W42790   3.910   6.574  11.406 -0.1527  0.0145 -0.1823
26982W        W42791  18.664   3.885   1.476 -0.2352  0.3269  0.1403
26983W        W42792  16.543  12.007   0.945 -0.6479 -0.1114  0.1345
26984W        W42793  13.726   9.095  12.248  0.0519 -0.4017  0.0444
26985W        W42794   8.776  11.586  12.544  0.1307 -0.0817  0.0398
26986W        W42795  17.885  13.964   3.960  0.1165 -0.0557 -0.0161
26987W        W42796  14.062   0.093   5.841 -0.2069 -0.0552 -0.0864
26988W        W42797  14.780   6.820  12.303 -0.2324 -0.0959  0.1233
26989W        W42798  14.940  17.910  12.109  0.2679 -0.1224  0.4352
26990W        W42799  16.779  16.951   0.720 -0.0128  0.0485  0.2847
26991W        W42800   7.039   9.414  11.327  0.0685  0.2345 -0.1826
26992W        W42801  18.358  14.080  15.038  0.3955 -0.1215  0.1267
26993W        W42802  15.687   2.697   3.487  0.2410  0.2422  0.2852
26994W        W42803  16.694   0.781  13.879 -0.0868 -0.2527  0.1780
26995W        W42804  17.315   3.520  13.711 -0.2455 -0.0529 -0.0566
26996W        W42805   0.506  11.973  11.658 -0.1084  0.0082 -0.1592
26997W        W42806  10.896  15.171   1.867  0.0347  0.0184  0.0169
26998W        W42807  11.131   1.499   2.265 -0.3019  0.2665 -0.0455
26999W        W42808  15.796   5.901  11.787  0.1360  0.1862 -0.0149
27000W        W42809   1.763   9.136  12.847 -0.0169  0.2120 -0.1055
27001W        W42810   4.081  12.089  13.961 -0.0263 -0.1724 -0.2101
27002W        W42811  10.442   1.328   1.345 -0.0583 -0.0527  0.2201
27003W        W42812  10.527  15.637  11.042 -0.0938  0.1295  0.0849
27004W        W42813   1.225  16.715  15.136 -0.1665  0.0018  0.2319
27005W        W42814   5.053   0.380  12.744  0.0811  0.1392 -0.1192
27006W        W42815  17.048   4.623   0.075  0.2002 -0.0757 -0.0815
27007W        W42816   6.547   9.142   0.390 -0.2790  0.1328 -0.1018
27008W        W42817   3.752  18.546  14.038 -0.0385  0.4756  0.1554
27009W        W42818   7.081   7.863   0.025  0.0387  0.1812  0.1375
27010W        W42819   4.031  14.806   3.377  0.0914  0.0850 -0.1491
27011W        W42820  11.262  17.650  14.632  0.0567  0.0410  0.1512
27012W        W42821  14.616   9.330  14.736  0.4334 -0.0183 -0.1389
27013W        W42822  16.938  11.328   2.742 -0.2696 -0.1406  0.2798
27014W        W42823   2.195  11.462   2.729 -0.2109 -0.0693 -0.2183
27015W        W42824   9.940   2.492  14.144 -0.1346 -0.2527 -0.3270
27016W        W42825  17.516  16.869   2.673  0.0021  0.0051  0.0170
27017W        W42826  16.018  12.408   5.746 -0.2984 -0.1602 -0.1627
27018W        W42827   4.236  18.595  13.834 -0.1002 -0.2617 -0.1411
27019W        W42828  10.131  18.365  10.857  0.1248  0.4021 -0.0600
27020W        W42829  12.847  16.199   3.879 -0.1435  0.1094 -0.1159
27021W        W42830  16.656  14.966   4.985  0.0981  0.0496  0.0423
27022W        W42831  18.637   8.274   1.278 -0.0774  0.1759 -0.2329
27023W        W42832   3.294   9.176   5.147 -0.0702 -0.2860 -0.0643
27024W        W42833  17.761  16.187   1.092 -0.1690 -0.1718 -0.1893
27025W        W42834  17.518   1.377   3.328  0.0042 -0.0118 -0.1144
27026W        W42835   1.721   6.094  13.338 -0.1326 -0.1932  0.1090
27027W        W42836   0.815  14.351   2.771 -0.0539  0.0263 -0.0139
27028W        W42837   6.752  13.232   4.268 -0.0162  0.3334  0.4377
27029W        W42838   4.335  14.273  11.275 -0.0882 -0.1781  0.1816
27030W        W42839  12.994   1.939   1.317 -0.2569  0.0298 -0.0143
27031W        W42840  14.183  18.267   0.071  0.1461 -0.2900  0.1213
27032W        W42841   7.016  15.168   1.844  0.0569 -0.4565 -0.1380
27033W        W42842   0.434   1.967   2.446  0.0508  0.0730 -0.0747
27034W        W42843  13.129  16.073  12.854 -0.1796  0.0756  0.1838
27035W        W42844   5.926  15.855   5.002  0.3279  0.2861 -0.0978
27036W        W42845   4.400  10.243  10.607 -0.0060 -0.0899  0.2447
27037W        W42846  11.495  13.330   4.813 -0.1027  0.0942  0.1225
27038W        W42847   6.507   5.567  14.412  0.0235 -0.0802 -0.0795
27039W        W42848   0.388   9.999   4.213 -0.1413 -0.1920 -0.2847
27040W        W42849   2.013   1.715  14.338 -0.3215 -0.2890 -0.0617
27041W        W42850  12.931  11.053   2.097 -0.1161  0.1099 -0.3620
27042W        W42851  14.559   4.976  13.760 -0.1547 -0.1116  0.0222
27043W        W42852   9.566  15.312  13.503  0.0651  0.5355 -0.1545
27044W        W42853   0.841  11.589  14.604 -0.0967  0.3026  0.1969
27045W        W42854  12.616   2.263   1.502  0.2543  0.0277  0.1671
27046W        W42855   0.408  16.662  10.427  0.0268 -0.1837  0.1086
27047W        W42856   4.454   7.149  15.111  0.0690  0.1341 -0.0354
27048W        W42857   0.514  10.545   2.771 -0.0706  0.1998 -0.3423
27049W        W42858  17.494  10.175   3.771 -0.0914 -0.4276  0.1830
27050W        W42859  12.630  11.524   2.078 -0.2892  0.6074 -0.0121
27051W        W42860   4.918   9.104   2.299  0.1312  0.1513  0.2547
27052W        W42861   8.956  17.853  14.442 -0.0925  0.0635  0.2505
27053W        W42862  17.689  13.133   1.851  0.0469  0.0183 -0.0961
27054W        W42863  14.464   0.873   1.035 -0.2804 -0.1012 -0.2266
27055W        W42864  11.314   7.789  13.776 -0.0026 -0.2202 -0.0283
27056W        W42865  10.510   1.132  14.063  0.0440 -0.0502 -0.2431
27057W        W42866   3.865  16.326  10.808  0.0886 -0.1684  0.0610
27058W        W42867   0.937  12.097   2.791 -0.1763 -0.4893 -0.0767
27059W        W42868   6.980   8.789   4.986 -0.0964 -0.0873 -0.0614
27060W        W42869  16.180  18.169   0.575  0.0884 -0.3273  0.0742
27061W        W42870   4.275   0.120  10.642  0.1712  0.1696  0.0428
27062W        W42871  18.858  11.846  14.802  0.1126  0.0595 -0.0745
27063W        W42872  10.146   1.104   9.793  0.2563  0.0608 -0.0968
27064W        W42873   3.529   4.129  14.966 -0.0044 -0.1107  0.3343
27065W        W42874  10.665   8.686  10.409 -0.0640  0.2848 -0.2640
27066W        W42875  11.052   3.774  14.607  0.1241 -0.2648 -0.3362
27067W        W42876   4.331  17.598   0.329 -0.0997  0.1185 -0.3364
27068W        W42877   9.391  18.441  12.874 -0.1720 -0.0903 -0.2173
27069W        W42878   4.230  14.398  10.677  0.0007 -0.1064  0.2582
27070W        W42879   2.539   5.494   3.758  0.3054 -0.0512 -0.0035
27071W        W42880   2.016   8.163  12.009 -0.1953  0.0887  0.1498
27072W        W42881   5.392   8.977  10.517 -0.5775  0.1588  0.1055
27073W        W42882   9.938  11.675   0.451 -0.1913 -0.0214  0.0742
27074W        W42883   7.584   7.448  13.461 -0.1956  0.1226  0.2743
27075W        W42884   0.742   2.521   3.074  0.0137 -0.0279  0.3506
27076W        W42885  14.301   3.929  14.365 -0.0818 -0.2066  0.1534
27077W        W42886  13.119   5.372   3.824  0.1230  0.2164 -0.2808
27078W        W42887  13.533   6.733   4.039 -0.0851  0.0290  0.3706
27079W        W42888  11.656   6.535   3.008  0.1363  0.0948 -0.1158
27080W        W42889   8.293   5.720  11.648 -0.3087  0.0195 -0.0411
27081W        W42890   8.971  13.664   3.666 -0.0149  0.0873 -0.1309
27082W        W42891  14.567  15.941   9.831 -0.1573  0.1763 -0.0366
27083W        W42892   8.668  17.065  14.916  0.0008  0.0822 -0.3824
27084W        W42893   5.800  11.650  11.565  0.0067 -0.3031 -0.1721
27085W        W42894   7.118   1.228   5.023  0.0288 -0.0828 -0.1160
27086W        W42895  12.961  17.988   2.721  0.0527 -0.0599 -0.0240
27087W        W42896  18.459  16.188   4.378 -0.2077 -0.2124  0.0624
27088W        W42897  13.048  11.431  14.296 -0.1434 -0.1081  0.1374
27089W        W42898  12.061  16.843  14.389 -0.2296  0.2966 -0.3651
27090W        W42899   0.579   2.722  12.273 -0.3995 -0.2725 -0.0976
27091W        W42900  11.528   8.848   2.529 -0.0225 -0.2392 -0.1953
27092W        W42901  15.847   7.358   2.175  0.0841 -0.4177  0.1839
27093W        W42902   6.352  16.866   3.595  0.2018  0.0463  0.3260
27094W        W42903  13.374   1.931  14.845 -0.0829 -0.0013  0.2684
27095W        W42904   9.443  10.293   5.107 -0.0270 -0.3108 -0.0302
27096W        W42905  15.537  14.654  15.245 -0.0535 -0.1480  0.1779
27097W        W42906  15.366   6.873   4.150  0.0324  0.0795  0.1088
27098W        W42907  16.512  10.719  15.098  0.2900 -0.4659 -0.1843
27099W        W42908   5.743   1.964   1.762 -0.0835 -0.1329 -0.1473
27100W        W42909  18.755  16.322  15.037 -0.0116  0.4694  0.1064
27101W        W42910   9.130   5.175  14.491  0.0332  0.1870  0.1574
27102W        W42911   9.147   6.398   2.475  0.1716 -0.0560 -0.1109
27103W        W42912   7.711  17.149  13.338 -0.3417 -0.0126 -0.0091
27104W        W42913   6.082   9.504   0.330 -0.1423 -0.0769  0.4711
27105W        W42914  17.906   1.077  10.885 -0.1919  0.3151  0.2604
27106W        W42915   0.925   6.259  11.151  0.0456 -0.0434  0.4233
27107W        W42916   8.285   1.486   0.980 -0.4073  0.0034 -0.0285
27108W        W42917  11.345   1.255  15.378 -0.2437 -0.1847 -0.2435
27109W        W42918   4.425  10.547   0.120 -0.1019 -0.0059  0.1008
27110W        W42919  15.263   0.454   1.956 -0.0718 -0.2464 -0.0729
27111W        W42920   6.954   4.586   9.744  0.0032 -0.1078 -0.2735
27112W        W42921  12.986  15.331   4.471  0.2190  0.2667  0.0911
27113W        W42922   1.296   7.193   3.760  0.2317  0.2238  0.0341
27114W        W42923  18.424   7.829   1.476  0.1208 -0.0254  0.0709
27115W        W42924  15.529  14.664   1.444 -0.1547  0.0582 -0.0054
27116W        W42925  10.799  15.600   3.668 -0.0875  0.4012  0.1279
27117W        W42926  17.059  16.193   3.368  0.2379 -0.1504 -0.0652
27118W        W42927   7.491   1.212   0.943 -0.2987  0.4459  0.1834
27119W        W42928   4.793   7.497   3.290 -0.2096  0.0900 -0.3692
27120W        W42929   7.436  18.801   4.924 -0.1943 -0.1915 -0.0296
27121W        W42930  17.660  17.928   0.862  0.1476  0.4983  0.0310
27122W        W42931   4.641   8.461  11.459  0.1251  0.0923 -0.2148
27123W        W42932   2.159   5.520   1.232 -0.1927 -0.0232 -0.0684
27124W        W42933   2.560   1.036  10.989  0.1022 -0.0146 -0.0071
27125W        W42934  12.773  18.427   3.937  0.1283  0.1818 -0.0375
27126W        W42935  10.203   7.082   5.869 -0.1035  0.0155 -0.1292
27127W        W42936   9.581  17.909   9.747 -0.3176  0.0670 -0.2315
27128W        W42937  16.018  11.993   9.207 -0.2812 -0.1746  0.0453
27129W        W42938  15.070  15.544  14.393  0.1224 -0.3404  0.1093
27130W        W42939   8.197   3.831   2.236  0.0332  0.2258 -0.3047
27131W        W42940   5.740  15.602  14.025  0.2293 -0.0085 -0.3980
27132W        W42941   6.773  17.438   5.006 -0.0960 -0.0903 -0.2979
27133W        W42942  11.428  14.279   0.361 -0.0218 -0.0067 -0.0500
27134W        W42943   4.167   6.937   5.080 -0.0109 -0.1313  0.1123
27135W        W42944  14.705  11.972   2.911  0.1632  0.2509 -0.1026
27136W        W42945   2.610   6.757   4.951  0.1436 -0.0509 -0.1325
27137W        W42946  10.685  10.018   4.254 -0.2499 -0.2828 -0.0370
27138W        W42947  10.551  16.779   0.590  0.0396  0.0081  0.0849
27139W        W42948  10.725   6.637   3.286  0.0294  0.1956  0.1477
27140W        W42949   7.435  11.258  12.241 -0.1151 -0.0122  0.1995
27141W        W42950   7.132   1.579  11.590  0.1583  0.3119 -0.1554
27142W        W42951   7.041  17.455  13.765 -0.4052  0.0911 -0.2241
27143W        W42952   0.859  15.023   1.557  0.1006 -0.0631 -0.1546
27144W        W42953  10.115  16.617   3.448  0.1181  0.0662 -0.1782
27145W        W42954   2.906   5.575   4.737  0.1889 -0.1009 -0.1648
27146W        W42955  15.812  13.046  12.135  0.1160 -0.2956 -0.1046
27147W        W42956  17.395  12.558   4.986  0.1333 -0.2901 -0.0416
27148W        W42957  12.033   9.091   1.302  0.1266  0.3096  0.3207
27149W        W42958   8.933   0.582  11.033  0.3593  0.0577  0.0594
27150W        W42959  15.378   3.999   4.240 -0.1198 -0.0575 -0.2032
27151W        W42960  16.246  11.230  14.628 -0.1411  0.0274 -0.0390
27152W        W42961   1.719   7.720  14.809 -0.1595 -0.2479  0.0140
27153W        W42962   5.304  10.836   2.844 -0.2294  0.2765 -0.0094
27154W        W42963  17.153  12.862  10.084 -0.0883 -0.1022 -0.1680
27155W        W42964  10.585  11.841  15.308 -0.0014 -0.3546  0.3640
27156W        W42965  10.024   0.809   3.640  0.0765  0.0062  0.4599
27157W        W42966  17.583  11.961   5.194 -0.0280  0.1663  0.1124
27158W        W42967  13.969   8.315  11.084 -0.1493 -0.1551 -0.1503
27159W        W42968   5.719  17.963  14.637 -0.0524  0.2565  0.0751
27160W        W42969  15.390   1.684  13.680 -0.0424 -0.0933  0.1746
27161W        W42970   9.137   9.109  13.307 -0.1709 -0.0337 -0.4231
27162W        W42971   5.110  13.741  13.036  0.0322 -0.0252  0.0732
27163W        W42972  17.650  12.337   9.639 -0.2866  0.1583  0.0270
27164W        W42973  17.384  18.138  15.177 -0.0436 -0.5325  0.1565
27165W        W42974   0.197  18.403  14.020  0.2531 -0.0992  0.0506
27166W        W42975  14.880   3.834   4.479  0.0378  0.1186  0.2173
27167W        W42976   5.277   2.817   1.673 -0.1292  0.0403  0.3839
27168W        W42977  16.158  10.569   3.246  0.1110  0.2818 -0.1913
27169W        W42978   0.462  10.224  11.697 -0.1249  0.0547 -0.1032
27170W        W42979   0.644   2.989  13.772 -0.0739  0.0646 -0.1435
27171W        W42980   6.738   2.136  12.469  0.3616 -0.2689  0.2160
27172W        W42981   6.944  18.230  14.939  0.1793 -0.1609  0.1501
27173W        W42982  11.918   3.742  14.186 -0.2930  0.0130 -0.0784
27174W        W42983   8.720   6.189  12.351 -0.2454 -0.1092  0.2343
27175W        W42984   4.696  12.988  12.466 -0.2047 -0.0322 -0.2086
27176W        W42985  13.889  11.020   2.525 -0.0654 -0.1468 -0.1956
27177W        W42986   1.023   2.420   4.676  0.2039  0.0362  0.2706
27178W        W42987  14.179  16.730  14.618 -0.3183 -0.1368  0.2321
27179W        W42988   4.899   0.670   4.654 -0.0166 -0.2138 -0.0725
27180W        W42989  17.599  15.692  12.328  0.2112 -0.1327 -0.1624
27181W        W42990  15.463   8.804  14.904  0.1995 -0.1966 -0.0917
27182W        W42991  15.713  15.042   4.108 -0.1759  0.1261  0.2153
27183W        W42992   9.337  18.180  11.258  0.0071  0.1647  0.0012
27184W        W42993   0.228   7.358  11.957 -0.0690  0.0315 -0.0486
27185W        W42994   3.816  14.101  12.746  0.2548  0.4665 -0.1709
27186W        W42995   4.509   3.379   4.171  0.1211 -0.0990 -0.1175
27187W        W42996  10.598  10.307  11.467 -0.0961 -0.0355 -0.0057
27188W        W42997   0.752   3.865   4.261 -0.0076  0.0503  0.2636
27189W        W42998   0.009   0.631  12.675 -0.1381  0.2368  0.0175
27190W        W42999   3.906   5.619   2.666 -0.2874 -0.0852 -0.0444
27191W        W43000  14.776   6.998  13.473 -0.0202 -0.2745 -0.0478
27192W        W43001  14.643   1.712  10.927  0.0669  0.3051  0.0706
27193W        W43002   6.090   8.251   3.371  0.4340 -0.2658  0.1165
27194W        W43003  15.097   5.287  14.446  0.0302 -0.1421  0.2325
27195W        W43004   8.390  10.825   4.125  0.0443 -0.1005  0.0068
27196W        W43005   8.608   2.027   1.818  0.0940  0.1222 -0.0419
27197W        W43006   1.591  11.468  12.626  0.2233 -0.0036  0.0111
27198W        W43007   0.914  15.314  14.169  0.1313  0.1802 -0.0631
27199W        W43008   6.764   8.848  11.537 -0.2207 -0.1269  0.0416
27200W        W43009   3.626  13.796  11.901  0.1915 -0.1848 -0.0229
27201W        W43010   9.595   4.074  14.729 -0.0178 -0.0496 -0.1432
27202W        W43011   1.031   3.019  10.382  0.0176  0.0429  0.1418
27203W        W43012  18.026   7.694  12.548  0.0732 -0.2114 -0.3283
27204W        W43013   4.619  10.320  15.081 -0.3902  0.0703 -0.3657
27205W        W43014   8.638  16.942   3.234 -0.3238  0.1685 -0.3209
27206W        W43015   7.401  14.754   3.741 -0.3170 -0.0453  0.2318
27207W        W43016  18.740  17.333   1.562 -0.2533 -0.0218  0.2212
27208W        W43017   2.821  16.338   0.242  0.0190 -0.0954 -0.0958
27209W        W43018  13.088   0.926  10.169  0.3293  0.2176 -0.1067
27210W        W43019  16.515   5.741  13.401 -0.0498 -0.0547  0.1215
27211W        W43020   2.250   2.775   4.652  0.0086 -0.0870 -0.0915
27212W        W43021   1.116   4.267   4.863  0.2935  0.1754 -0.2057
27213W        W43022  17.767  17.460  12.264  0.0295 -0.0623  0.1339
27214W        W43023  14.362  15.132  11.311 -0.0634  0.1378 -0.3861
27215W        W43024  18.007  18.196  11.069  0.0931 -0.0970  0.2724
27216W        W43025   1.787   6.058  11.119  0.1481  0.0276  0.2934
27217W        W43026  13.010  10.379   0.419  0.1080 -0.0854  0.0998
27218W        W43027  13.182   1.502  13.455  0.0076  0.3710 -0.1274
27219W        W43028  15.983   7.976   0.124  0.5461 -0.1183  0.1477
27220W        W43029   1.232  17.474  12.047 -0.1398  0.1843 -0.1768
27221W        W43030   3.099   7.543  14.591 -0.1505  0.0596  0.0215
27222W        W43031   7.272   8.286   4.148 -0.3778  0.0934 -0.0655
27223W        W43032  16.038   5.349   4.688 -0.1199  0.1046  0.2001
27224W        W43033   2.516   0.066  12.860 -0.0008  0.1418 -0.1195
27225W        W43034   0.392   3.747  11.362  0.0639 -0.0354  0.2691
27226W        W43035   1.339   0.175   1.975 -0.0972 -0.4176 -0.0729
27227W        W43036   1.244   1.173  12.856 -0.0738  0.0839 -0.0227
27228W        W43037   8.396   1.223   0.305  0.0565 -0.0981 -0.1025
27229W        W43038  18.658  16.395   9.884  0.1615  0.1777  0.0055
27230W        W43039   0.836  18.356  10.246  0.2288 -0.3921  0.1194
27231W        W43040   3.132   5.327   1.289  0.0575  0.0260 -0.1868
27232W        W43041   2.579   3.911  13.127 -0.0889  0.0387  0.0737
27233W        W43042  13.787  12.050  14.424 -0.2745 -0.0948  0.0167
27234W        W43043  10.005   1.998  13.861  0.0819 -0.1418  0.3895
27235W        W43044  10.739  15.045   2.732  0.2502  0.1056  0.2660
27236W        W43045  18.774   1.147  12.418  0.1276 -0.1581 -0.1872
27237W        W43046   5.918   1.609   1.101 -0.1270 -0.0659 -0.0691
27238W        W43047   3.621  12.376  15.190 -0.3107 -0.0816 -0.0082
27239W        W43048  18.378   8.997   3.253  0.2263  0.3097  0.3098
27240W        W43049   1.698   1.584  11.299 -0.0909 -0.0648 -0.0343
27241W        W43050   3.453   5.714   3.648 -0.0138 -0.0630 -0.2885
27242W        W43051  17.953  17.506   1.910  0.3248 -0.1390  0.2532
27243W        W43052  17.969   9.033   2.927  0.1042 -0.0650 -0.0247
27244W        W43053   4.760   9.763   3.422  0.1042 -0.0210 -0.2248
27245W        W43054   1.461   1.443  14.339  0.1052  0.3461 -0.0158
27246W        W43055   0.523  15.899   4.306 -0.2640 -0.0204  0.0568
27247W        W43056   1.172  17.894   1.783 -0.0987 -0.1147 -0.1238
27248W        W43057  16.156  10.405   2.441 -0.0048 -0.1253  0.0213
27249W        W43058  15.321   5.062   3.090 -0.1093  0.0511 -0.2923
27250W        W43059  13.156  14.188  12.430 -0.0032 -0.1992  0.0042
27251W        W43060   2.896   7.843   3.922 -0.2458  0.0397  0.5496
27252W        W43061  12.602  13.330   0.756 -0.0668  0.3235  0.0775
27253W        W43062   5.104  17.481   3.383 -0.0172  0.1269 -0.0798
27254W        W43063  18.441   1.835  13.239  0.0954  0.1795  0.1417
27255W        W43064   5.683   1.166  13.211 -0.3536 -0.0568  0.2833
27256W        W43065   1.640  12.264   3.721  0.0099 -0.0890  0.0329
27257W        W43066   6.857  13.680  13.188 -0.1354 -0.1719 -0.0091
27258W        W43067   1.642  15.104   1.147  0.0265 -0.1434  0.3653
27259W        W43068   4.468  11.041  14.654  0.0536  0.1424  0.0459
27260W        W43069   6.311   5.638  12.690  0.2079 -0.3118  0.0674
27261W        W43070   3.844  18.629   3.188  0.2528  0.1071  0.0183
27262W        W43071  15.215   9.656  12.397  0.0638 -0.1847 -0.0096
27263W        W43072  17.727   7.728  10.939 -0.2524  0.2231  0.2119
27264W        W43073   6.438  16.960   0.834  0.0301 -0.1577 -0.3575
27265W        W43074   8.218   2.114   0.115  0.0465  0.1328 -0.0725
27266W        W43075   4.527  14.974   3.275  0.1058 -0.2327  0.3468
27267W        W43076   4.156  16.037   3.711  0.0589 -0.0680  0.0717
27268W        W43077  15.934   0.906   5.190  0.0366  0.0055 -0.1061
27269W        W43078   0.147   7.434   5.221  0.1563  0.0251  0.1780
27270W        W43079  11.194   2.408   5.035 -0.2519 -0.1229 -0.1313
27271W        W43080  17.982  10.169   3.928  0.0500  0.1376  0.3230
27272W        W43081  10.274   9.683   2.619 -0.1003  0.1403  0.1785
27273W        W43082   6.568  15.395  14.333  0.0898 -0.0830 -0.0041
27274W        W43083   1.791  10.265   3.520  0.0861  0.1064 -0.0584
27275W        W43084  17.117  12.658   2.431 -0.0582 -0.2329  0.1044
27276W        W43085  11.415   8.262   2.643 -0.0067  0.1614 -0.0784
27277W        W43086  18.267  14.704   1.263 -0.1982  0.0809 -0.1765
27278W        W43087  18.494   1.587   5.159  0.2979  0.2447  0.1764
27279W        W43088  17.794   3.284   3.808 -0.0615 -0.0005  0.1459
27280W        W43089  15.380  14.170  15.316 -0.1194  0.1032  0.0777
27281W        W43090   4.936   2.971   5.322  0.1514 -0.3133  0.1018
27282W        W43091  11.256  17.134  12.196  0.2649  0.1171 -0.2140
27283W        W43092  15.080   9.388  14.326  0.1735 -0.0568 -0.0758
27284W        W43093  16.802   5.483  13.013 -0.0771  0.2545 -0.0309
27285W        W43094   8.609   3.851   4.571 -0.1487 -0.1029 -0.1100
27286W        W43095   5.843   6.645  11.836  0.2318 -0.0561  0.1582
27287W        W43096   8.568  17.895  13.626  0.0275 -0.0737  0.0723
27288W        W43097   7.006  15.569  13.424 -0.0865 -0.1266 -0.2411
27289W        W43098   5.989   4.352   1.834  0.2083 -0.0349  0.2669
27290W        W43099  18.697  17.215   3.502 -0.0538 -0.0609  0.0195
27291W        W43100   8.795   0.628   0.144 -0.0940 -0.1419  0.3287
27292W        W43101  11.912   8.516   1.064  0.0605  0.0300  0.0814
27293W        W43102  13.435   1.306   0.336 -0.2206  0.1708 -0.0978
27294W        W43103  18.267  11.338   2.870 -0.0943  0.0847 -0.1931
27295W        W43104  13.044  11.279   2.801  0.0669  0.0908 -0.1070
27296W        W43105   1.409   7.583   2.783  0.0843  0.0630 -0.0775
27297W        W43106  16.535   7.380  12.866 -0.1902  0.0741 -0.0138
27298W        W43107   3.136   9.316  11.350  0.0787 -0.1255 -0.0219
27299W        W43108  13.532   3.344  13.251 -0.2780  0.0775 -0.1517
27300W        W43109   7.115   8.090   2.641  0.2103 -0.2862  0.1363
27301W        W43110  11.753  15.697  13.627 -0.0191 -0.2523  0.1018
27302W        W43111   1.829   6.554   4.648  0.0411  0.0618 -0.0048
27303W        W43112  14.242  17.128  13.897  0.0101  0.0736  0.1769
27304W        W43113  14.600   3.521   5.870  0.0668 -0.1074 -0.0826
27305W        W43114   8.059  15.577   1.702 -0.1476 -0.0254  0.1444
27306W        W43115   2.908   8.537   5.875  0.0278 -0.0935 -0.1218
27307W        W43116   0.423  17.223   1.361  0.4792 -0.2090  0.0017
27308W        W43117   6.010   7.650   4.023  0.1271  0.0744  0.0146
27309W        W43118   3.353   8.353   4.757  0.0239 -0.2100  0.0226
27310W        W43119   4.729  14.496   2.009  0.0347  0.1028  0.1116
27311W        W43120   5.077  17.555  11.979 -0.1310  0.1023 -0.1777
27312W        W43121   3.002  12.809  10.614  0.3931 -0.1759  0.0728
27313W        W43122   8.382  13.268   0.968  0.0662 -0.0087 -0.0153
27314W        W43123   9.831   6.734   4.930 -0.1712  0.0040  0.0476
27315W        W43124  11.229   5.176   2.905  0.1437 -0.2412  0.0012
27316W        W43125  17.857  10.819  11.415  0.1869 -0.1270 -0.2935
27317W        W43126  18.464  13.001  10.288  0.0456 -0.1181 -0.2872
27318W        W43127   0.323  11.650  13.976 -0.1123  0.0017 -0.0454
27319W        W43128  10.366  12.438   4.768 -0.0748  0.1876  0.3223
27320W        W43129  15.032   6.621   3.901 -0.1740 -0.1069 -0.2711
27321W        W43130  12.294  11.260   3.513 -0.2953 -0.0735  0.3769
27322W        W43131  18.255   4.611   3.516 -0.1638  0.2488  0.2233
27323W        W43132  10.775   5.994  12.619  0.2141 -0.1701 -0.1397
27324W        W43133   1.227  16.892  13.621  0.0764  0.1634 -0.4228
27325W        W43134  13.834   0.310   2.215 -0.0374  0.1425 -0.0517
27326W        W43135   9.010  12.269  13.178 -0.1084  0.1201 -0.1275
27327W        W43136  16.777  10.842  13.928 -0.0457 -0.1648 -0.0847
27328W        W43137   8.334   5.115  13.063 -0.3507 -0.3553  0.2130
27329W        W43138  17.128   8.190  12.798  0.1052  0.1159  0.2758
27330W        W43139  13.945  10.504   4.958 -0.0665 -0.0130  0.1422
27331W        W43140  16.610   1.374  11.839  0.0967  0.0906 -0.0107
27332W        W43141   1.754  10.009   0.681  0.1088 -0.0827  0.0820
27333W        W43142  10.773  12.848   2.920 -0.1262  0.1585  0.1082
27334W        W43143   3.887   9.088   0.908 -0.0560  0.0065  0.0712
27335W        W43144  18.022  18.632   2.496 -0.1664  0.0137  0.1479
27336W        W43145   8.685  12.706   5.512  0.0231  0.0110  0.2116
27337W        W43146   9.343  10.096  10.871 -0.0956 -0.0713 -0.0448
27338W        W43147   4.060   1.070   3.293 -0.1959  0.0483 -0.3541
27339W        W43148   1.653   2.041   0.278  0.0626 -0.0934  0.2634
27340W        W43149  18.034  12.644   3.382  0.0391  0.1173 -0.3164
27341W        W43150  18.417   4.616  10.822  0.1043 -0.3826 -0.1906
27342W        W43151  11.151   2.448   2.233  0.0921  0.3185 -0.3752
27343W        W43152   9.055   2.539   4.801  0.1426  0.1648  0.0683
27344W        W43153   7.824   1.072   1.557  0.3599 -0.1527  0.3691
27345W        W43154  14.996   8.401  10.739  0.0452 -0.6371 -0.2086
27346W        W43155   5.903  17.623  13.416  0.1398 -0.1605 -0.0314
27347W        W43156  10.189  17.773  12.939 -0.1586 -0.4096 -0.0095
27348W        W43157   4.536  14.266  12.954 -0.0565 -0.2305 -0.0259
27349W        W43158  10.367   2.436  15.162 -0.1281 -0.3926 -0.2461
27350W        W43159   6.025  13.815   0.536 -0.0259  0.1758 -0.1456
27351W        W43160  13.792  13.899   5.737 -0.0372 -0.1801  0.3197
27352W        W43161   5.514   2.868   3.932 -0.3116  0.2543 -0.3350
27353W        W43162   8.336  15.640  12.025 -0.1829 -0.0257  0.0425
27354W        W43163   1.080  16.045   0.350  0.4183  0.1021  0.0627
27355W        W43164   2.467   3.857   2.277 -0.0879  0.1578 -0.0016
27356W        W43165  14.778  10.095   1.190  0.1588 -0.1548  0.1193
27357W        W43166   2.334   1.944   5.358 -0.1254  0.2214 -0.0405
27358W        W43167   3.794   7.161   2.692  0.0487 -0.2224 -0.1567
27359W        W43168  13.596  18.497   3.011 -0.0311  0.0023  0.0801
27360W        W43169   6.231  12.726   3.570  0.0001 -0.0347  0.1651
27361W        W43170   9.649   9.141  11.133 -0.3675 -0.2711  0.0723
27362W        W43171   0.981  12.785   0.005 -0.5181 -0.0431  0.0778
27363W        W43172   6.056  15.251  12.337  0.0519  0.2777  0.2995
27364W        W43173   3.545  18.829   0.398  0.3043 -0.0554 -0.1670
27365W        W43174  15.166   7.911  12.015  0.2468  0.1190 -0.2161
27366W        W43175   4.493  16.012  13.674  0.1480  0.2495  0.0304
27367W        W43176   1.522  14.375   1.971 -0.0941  0.1857 -0.1155
27368W        W43177  18.411  12.653   2.979  0.1941  0.2895 -0.2650
27369W        W43178  12.684   8.291  12.476 -0.0710 -0.1065  0.2329
27370W        W43179  16.014  11.163   0.856 -0.1828 -0.1729  0.1166
27371W        W43180   4.750   2.537   4.103 -0.0313  0.3032  0.2617
27372W        W43181  16.090   7.664  11.383  0.0663  0.0940  0.1714
27373W        W43182   9.719  10.668   2.876 -0.0791 -0.3356 -0.0588
27374W        W43183  13.038  15.735   0.548 -0.1977  0.3761 -0.1610
27375W        W43184   0.794  10.421   0.862  0.0058  0.2721 -0.3760
27376W        W43185   9.053   9.398  12.924 -0.1735 -0.0859  0.1691
27377W        W43186   4.543   5.502   4.364 -0.0294 -0.2314 -0.2002
27378W        W43187   1.280   4.916   3.186 -0.1283 -0.3933 -0.2187
27379W        W43188  16.802   9.998   4.650  0.0067  0.0109  0.0342
27380W        W43189  18.079  16.841  12.626 -0.2755 -0.1596 -0.0617
27381W        W43190   9.482   1.197   1.363 -0.1645 -0.3939 -0.2533
27382W        W43191   3.879  18.835  14.827 -0.0333  0.2806  0.3554
27383W        W43192  12.138   7.697   2.612 -0.0339 -0.1642 -0.3091
27384W        W43193  11.889   2.698  14.226  0.2754  0.0214  0.1331
27385W        W43194  17.548   2.950   1.549 -0.0292  0.2851  0.0411
27386W        W43195  17.499   4.293  14.344  0.0791  0.0728 -0.0654
27387W        W43196  16.943  16.974   2.029  0.0694 -0.0404  0.0249
27388W        W43197  18.915  15.454   3.641 -0.1931  0.0663 -0.2632
27389W        W43198   3.721   0.706  13.568 -0.0877  0.2165  0.4512
27390W        W43199   2.443   4.184  11.225  0.2408 -0.0798  0.0178
27391W        W43200   0.267  17.179  13.467 -0.0290 -0.0003  0.2398
27392W        W43201  15.193   8.640   5.016 -0.1035  0.2880  0.0138
27393W        W43202  16.730  11.778  15.019  0.0217 -0.0072  0.2015
27394W        W43203  16.674  12.849   1.340  0.0658  0.0320 -0.1182
27395W        W43204  15.223   3.525   3.526  0.0154 -0.0187 -0.0766
27396W        W43205   9.889  13.930   3.433  0.3549  0.1192 -0.2601
27397W        W43206   8.839   8.513   2.891 -0.1509 -0.0829  0.2024
27398W        W43207   2.278   3.149  11.192  0.0040  0.3170 -0.1269
27399W        W43208  14.486  14.928   4.288 -0.0728  0.1811 -0.0739
27400W        W43209   5.523  12.224   3.791 -0.0468 -0.1547 -0.3873
27401W        W43210   5.343   7.552   5.765  0.0659  0.1082 -0.1015
27402W        W43211   3.070   3.660   2.410 -0.0593  0.3598  0.0973
27403W        W43212  11.300  11.074   4.763  0.1180  0.0564  0.0060
27404W        W43213   9.494   9.117  10.602 -0.2733 -0.2471  0.1425
27405W        W43214   2.850  13.184   0.851  0.0898  0.2364 -0.1104
27406W        W43215  13.436   3.573   4.136 -0.2073 -0.0257 -0.3255
27407W        W43216  12.847  12.841   0.907 -0.1342 -0.2334  0.0826
27408W        W43217   0.313   1.550  14.868  0.2334 -0.2005 -0.0892
27409W        W43218  12.715  17.194   1.190  0.0127  0.2740 -0.0186
27410W        W43219   3.547  13.086  11.683 -0.0439  0.0450 -0.1034
27411W        W43220  14.417  15.998  12.308 -0.2149 -0.1534 -0.2748
27412W        W43221  17.547  17.853   4.860 -0.1702 -0.1312 -0.1414
27413W        W43222   2.485   0.578  11.663 -0.0393 -0.1905  0.0224
27414W        W43223   4.509   1.092  10.988  0.0400  0.1361 -0.0487
27415W        W43224  15.775  17.009  12.560  0.0237  0.1718  0.0437
27416W        W43225  15.558  11.044   4.362  0.1665 -0.0072 -0.1204
27417W        W43226   6.105   9.419   2.611  0.0327 -0.1644  0.1226
27418W        W43227   6.528   9.716   0.179  0.2258 -0.0747  0.2549
27419W        W43228  15.223   5.518   2.842  0.3635  0.2723  0.3175
27420W        W43229   6.261   2.194   3.805  0.0905 -0.1411  0.3237
27421W        W43230  11.158   1.528   4.353 -0.0688  0.2000  0.1898
27422W        W43231  17.649   3.750  14.166  0.0597  0.0423 -0.0569
27423W        W43232   2.170   0.841  14.520  0.1331  0.0051  0.0468
27424W        W43233  12.234   5.235  11.893  0.0411  0.0546 -0.0873
27425W        W43234   0.417  14.185  14.110  0.2104 -0.0526  0.1091
27426W        W43235   3.767   7.452  14.554  0.1736 -0.2942  0.1901
27427W        W43236  11.677   2.946  12.889 -0.0856  0.0491 -0.1720
27428W        W43237  12.112   2.444  13.507 -0.0788  0.2033  0.2859
27429W        W43238  10.303   4.946  12.513  0.2553 -0.1957  0.0247
27430W        W43239  10.028  14.117  13.156  0.0923  0.1088 -0.0597
27431W        W43240  14.269   1.912   3.371 -0.3742 -0.1251 -0.0503
27432W        W43241   5.968   2.862   4.714  0.0224  0.4030  0.1937
27433W        W43242   4.422  12.293  11.673  0.2002 -0.0680 -0.0293
27434W        W43243  15.322   9.131  12.862 -0.2666 -0.1026  0.1314
27435W        W43244   5.044   3.609  10.992  0.0810 -0.2800 -0.1161
27436W        W43245   3.389  13.785   4.351  0.0067 -0.2791 -0.2408
27437W        W43246  11.618   4.952   3.254  0.0781 -0.1596  0.1844
27438W        W43247   2.169  10.319  14.984 -0.3957 -0.1746  0.0438
27439W        W43248   1.015   5.039   1.629 -0.1911  0.2186  0.0850
27440W        W43249  11.756  12.149  15.163  0.2321 -0.0140  0.1857
27441W        W43250   4.909  10.088  14.242 -0.1772  0.1057  0.2493
27442W        W43251  11.879   4.572   2.333  0.0416  0.0518 -0.1965
27443W        W43252  17.192   2.281   4.017 -0.2629  0.0751  0.4510
27444W        W43253  13.431  10.072  11.586  0.0691  0.2451  0.0948
27445W        W43254  18.160   2.011   3.344  0.0404  0.2459 -0.0958
27446W        W43255  18.182  15.935   4.748  0.0856 -0.1344 -0.0635
27447W        W43256   9.381  17.429  15.038 -0.0845 -0.1683  0.0308
27448W        W43257   4.073  12.185   3.461 -0.0960  0.0697 -0.2246
27449W        W43258   0.734   4.044  11.632  0.1556 -0.2821 -0.1059
27450W        W43259  14.694   6.775  11.697 -0.1499  0.1872 -0.0258
27451W        W43260  14.399   1.370   3.183  0.0313  0.2862 -0.0735
27452W        W43261   6.918  16.836   0.771 -0.0939  0.0470  0.0281
27453W        W43262   8.840  13.350  12.029  0.0593 -0.0796 -0.2859
27454W        W43263   3.439   8.058  13.465  0.1155 -0.3746 -0.0085
27455W        W43264   0.136   2.620   4.176 -0.0090  0.1261 -0.0598
27456W        W43265   6.344   0.099  12.037  0.0711 -0.0965 -0.2757
27457W        W43266  12.929  15.709   3.671 -0.3399 -0.2645  0.1558
27458W        W43267   8.720   0.638   1.545 -0.3697  0.1265  0.2458
27459W        W43268   2.488  17.471   3.723 -0.0027 -0.3494  0.0225
27460W        W43269   3.642   7.592   1.457  0.2127  0.1898  0.0615
27461W        W43270  16.393   5.459  15.032 -0.2000  0.1446 -0.3028
27462W        W43271  12.986  13.950   3.423  0.2393  0.2703  0.2542
27463W        W43272  15.911  13.781   4.296 -0.3458  0.0094 -0.0247
27464W        W43273   1.102   1.456   3.885  0.0973 -0.1798  0.0845
27465W        W43274   4.411   7.119   3.530 -0.0242 -0.0458 -0.2951
27466W        W43275   8.840   8.136  14.281 -0.0306  0.5478 -0.1671
27467W        W43276  13.974  14.548   4.289 -0.0169 -0.0127  0.0894
27468W        W43277   6.472   9.379   1.773  0.0582  0.4353  0.4234
27469W        W43278   6.879   6.728  12.765  0.0165 -0.2201 -0.4622
27470W        W43279   0.720   6.634   5.075  0.3223 -0.0416 -0.1183
27471W        W43280  12.573  18.764  11.168  0.0373  0.2334 -0.0615
27472W        W43281   2.535   3.168   2.921  0.1214  0.2256  0.1322
27473W        W43282   7.467   7.386  10.418 -0.0231  0.1879 -0.1942
27474W        W43283   1.300   5.112  12.482 -0.0635 -0.0195  0.1441
27475W        W43284   8.968   6.327  15.027 -0.3231 -0.1854  0.0546
27476W        W43285  12.741   3.902   1.882 -0.1664  0.0789  0.2566
27477W        W43286  13.453   6.087   4.816  0.1505 -0.3058 -0.1120
27478W        W43287  15.340  13.535  10.075 -0.0820  0.0786  0.1273
27479W        W43288   8.625   9.615  15.155 -0.2634 -0.1878  0.1701
27480W        W43289   0.247  12.725   2.451  0.1722 -0.2003 -0.1561
27481W        W43290   9.375  18.313   2.471 -0.0326  0.0115  0.0351
27482W        W43291   2.894  13.549  12.657 -0.2119  0.0512  0.2244
27483W        W43292   0.940  14.360  13.389  0.3570  0.1070  0.2905
27484W        W43293   8.680  10.650   4.532  0.1290  0.2480  0.0342
27485W        W43294  15.815   1.760  12.989 -0.2327  0.1507 -0.1700
27486W        W43295  10.251  10.475  14.280 -0.5315  0.2129  0.0519
27487W        W43296  14.738  16.619  13.627  0.0656 -0.2555 -0.0726
27488W        W43297  10.149  10.886   5.093  0.1975  0.0160  0.0033
27489W        W43298  18.643   4.446  12.952  0.1721 -0.1026 -0.0733
27490W        W43299  12.384   0.442   4.705 -0.3297  0.0767 -0.1695
27491W        W43300  17.174  12.155  13.513  0.1087  0.0164  0.3109
27492W        W43301  16.251   2.113  13.248 -0.1470  0.1525 -0.1412
27493W        W43302   3.640   7.509  13.538 -0.1175 -0.0101  0.4093
27494W        W43303  12.805  17.860   5.195 -0.3820 -0.0018  0.1097
27495W        W43304   0.710  13.743   3.877 -0.2265 -0.2145  0.1282
27496W        W43305  10.754  16.285   4.113  0.0393  0.2252 -0.0480
27497W        W43306  14.967   2.751   5.100 -0.0766 -0.0686 -0.1117
27498W        W43307   1.338   2.821  14.378  0.1366  0.0445  0.0531
27499W        W43308   1.540   3.916  11.139 -0.2496  0.2778  0.1521
27500W        W43309   8.637   3.210  13.696  0.1928  0.0296 -0.1040
27501W        W43310  16.533  14.858  10.648 -0.0858  0.1035  0.3008
27502W        W43311  12.898  14.505   2.765  0.1230  0.2929 -0.0593
27503W        W43312   4.669   6.217  14.114 -0.0262  0.1963  0.3478
27504W        W43313   9.617  12.013   4.376  0.1088 -0.4837  0.2988
27505W        W43314  11.172  13.736  13.783  0.0011 -0.5907  0.0728
27506W        W43315  18.118   0.843  13.634 -0.2531 -0.0762 -0.2889
27507W        W43316  13.837  12.160   2.318 -0.0942 -0.0347  0.2409
27508W        W43317   9.772   2.964  14.870 -0.0005 -0.2770  0.1530
27509W        W43318   5.512  13.783  15.247  0.0577  0.0355  0.0721
27510W        W43319  17.433  13.580   2.761 -0.1309  0.2696  0.1155
27511W        W43320  12.244  16.959  11.425  0.3936  0.1882  0.3488
27512W        W43321   6.901  17.242   4.268  0.1703 -0.1162  0.1228
27513W        W43322  14.665   2.529  13.065 -0.1371  0.0172 -0.0351
27514W        W43323   2.984   6.957   2.412  0.2565 -0.1258  0.1740
27515W        W43324  13.095   9.906  14.082 -0.3685  0.2498 -0.1927
27516W        W43325   0.552   8.151   0.400  0.1917 -0.0417  0.0438
27517W        W43326  17.665   4.400   1.816  0.1922  0.0927 -0.1363
27518W        W43327   4.160   6.843  14.717  0.1044  0.1154 -0.0517
27519W        W43328   1.107   9.053  12.075 -0.2006  0.0289  0.2582
27520W        W43329   4.631  10.128  13.769 -0.1923  0.1312  0.0671
27521W        W43330  13.259   4.743   4.068  0.2142 -0.0295  0.0808
27522W        W43331  13.377  13.956   9.858 -0.0788  0.2156 -0.1097
27523W        W43332   6.597   2.747   0.422  0.1863 -0.0265 -0.3752
27524W        W43333   2.924  13.189   1.991  0.4222 -0.0745 -0.1262
27525W        W43334  13.924  12.732   5.451 -0.2057  0.0657  0.1001
27526W        W43335  14.020  18.526   4.636  0.2461 -0.5602  0.0338
27527W        W43336  15.656   1.379   1.240  0.2384  0.1821 -0.1637
27528W        W43337  17.331  18.317   0.649  0.2741  0.0440  0.1811
27529W        W43338   3.502   9.581  11.613 -0.0905  0.2087  0.0638
27530W        W43339   4.077  17.799  10.637 -0.1568  0.0833  0.0238
27531W        W43340  16.133   0.660   2.354 -0.0218  0.2499 -0.3518
27532W        W43341  16.283   3.504  10.834  0.1725 -0.2210  0.1845
27533W        W43342   9.215  18.738   1.620  0.0164  0.1858 -0.0292
27534W        W43343  15.844  15.194   0.845 -0.0958 -0.4427  0.4597
27535W        W43344  18.361   7.335   2.824  0.1550  0.1262  0.0987
27536W        W43345   0.398   2.022  15.065  0.1238 -0.0581 -0.1221
27537W        W43346  18.022  15.067  10.381  0.3078  0.1689 -0.2183
27538W        W43347  16.288  13.268   4.415  0.1073  0.0563 -0.1440
27539W        W43348  17.114   8.672  13.479  0.0945 -0.0565 -0.0703
27540W        W43349   6.546  15.766   2.370 -0.0586 -0.3948 -0.1183
27541W        W43350   3.248   5.766   4.223  0.1543 -0.1069 -0.1997
27542W        W43351   6.678  16.805   1.236  0.0630  0.2368  0.0969
27543W        W43352   0.554   9.817  10.528 -0.1027  0.1298 -0.0847
27544W        W43353  12.660   0.150   0.174  0.0617  0.1086 -0.2312
27545W        W43354  13.642  14.392   1.385 -0.1400  0.1469 -0.1293
27546W        W43355  18.316   9.047  13.671 -0.1459  0.1769  0.0283
27547W        W43356   0.310  13.854   0.751 -0.1817 -0.2046 -0.0567
27548W        W43357  10.365  13.349   3.652 -0.1070  0.0324  0.0761
27549W        W43358  10.685  13.339  15.239  0.3280  0.0082 -0.1570
27550W        W43359  12.664   3.282   4.637 -0.2860  0.1896  0.0754
27551W        W43360  18.912   8.675  14.840  0.2356 -0.2527  0.0818
27552W        W43361   7.992  11.684  15.021  0.1365  0.1741  0.1853
27553W        W43362  18.536  15.524   2.930 -0.0589 -0.0626 -0.2001
27554W        W43363   9.220   4.094   1.391 -0.1899 -0.1163 -0.0100
27555W        W43364   6.872   4.287  14.529 -0.0599  0.0525  0.1831
27556W        W43365  10.788   0.422  14.541  0.0445 -0.0772 -0.1970
27557W        W43366  12.755   8.301  14.817  0.1501 -0.2666 -0.1629
27558W        W43367   6.461   9.117   2.171 -0.2780 -0.1182  0.3900
27559W        W43368  17.724   7.796  14.602 -0.2491 -0.1908 -0.1466
27560W        W43369  15.702  17.678   4.914 -0.1555 -0.2009  0.1463
27561W        W43370   4.000  11.157   0.952 -0.2299 -0.1559  0.2627
27562W        W43371  11.969   5.553  11.107 -0.2198 -0.0400 -0.1402
27563W        W43372   8.019  10.925  12.699 -0.3581 -0.0001 -0.0422
27564W        W43373  18.754   6.179   2.145 -0.0707 -0.0962 -0.1877
27565W        W43374  11.589  11.668  10.669  0.1707  0.3462 -0.0429
27566W        W43375   4.731  15.289   3.645  0.0251  0.2760 -0.1899
27567W        W43376   8.100  13.330  15.096  0.1485 -0.3075  0.0657
27568W        W43377   5.498  13.506  14.813 -0.0233  0.0680 -0.1588
27569W        W43378   6.343   6.280   0.867 -0.0036 -0.1207 -0.7340
27570W        W43379   1.163  17.418   2.906  0.0538  0.1741 -0.2642
27571W        W43380  15.264  14.709   0.333  0.3050 -0.0222  0.0253
27572W        W43381   5.214  18.686  14.197 -0.0546  0.1475 -0.1129
27573W        W43382  14.003   8.229  12.593 -0.1189 -0.1400 -0.2841
27574W        W43383  17.584  17.114  10.467  0.1395  0.0828  0.2458
27575W        W43384  11.542   0.856  11.948 -0.0370 -0.0115 -0.1243
27576W        W43385  12.886  16.537  12.051  0.0876 -0.0419  0.2436
27577W        W43386   1.860  16.652  13.762  0.0637  0.0904 -0.0174
27578W        W43387   1.402   9.586  14.140 -0.0374 -0.0523 -0.0561
27579W        W43388   3.659   0.914   4.388 -0.0408 -0.1363 -0.2265
27580W        W43389   3.961  14.826  13.009  0.0074  0.4795  0.1100
27581W        W43390   0.662   1.765  14.485 -0.1819  0.2753 -0.2206
27582W        W43391  12.534   9.840  13.402  0.2389 -0.3577 -0.0056
27583W        W43392  17.936  14.547   1.786  0.2054  0.1688 -0.0923
27584W        W43393  14.743  13.646  11.270 -0.3148  0.3277 -0.2877
27585W        W43394  11.327  18.047   0.406  0.0405 -0.1297  0.2589
27586W        W43395   7.621   9.300   2.741 -0.0783 -0.0331  0.4077
27587W        W43396   5.422  14.927  10.697  0.2641  0.0970  0.0408
27588W        W43397  18.547  10.042   4.661  0.4426 -0.1187 -0.0980
27589W        W43398  15.383  14.478  14.789  0.0195  0.2872 -0.2210
27590W        W43399   7.789   8.991  10.877  0.1767 -0.0436  0.0256
27591W        W43400   0.692   2.140   4.407 -0.1162 -0.1788  0.2125
27592W        W43401   5.878  12.303  14.391 -0.3062 -0.0320  0.0446
27593W        W43402   4.724  16.264  12.768 -0.1577 -0.0776  0.1821
27594W        W43403   4.146  18.783  14.389  0.0679 -0.1075  0.0714
27595W        W43404   7.534   6.426   4.093  0.0300  0.0533 -0.1446
27596W        W43405  13.126   4.604  14.904 -0.0666  0.0383 -0.3144
27597W        W43406   9.811  13.371   1.563  0.2335  0.3046  0.2251
27598W        W43407   3.842   9.343   3.003 -0.2215  0.0126 -0.0410
27599W        W43408  10.254   7.550  14.210  0.1134  0.0158  0.0089
27600W        W43409   1.594  16.977  14.601  0.1098 -0.0129 -0.2659
27601W        W43410   6.265   5.038   4.273 -0.0470  0.4393  0.1040
27602W        W43411  18.477   7.755   4.126  0.0189  0.0030 -0.1270
27603W        W43412  10.025   5.270   1.569 -0.1546 -0.2028  0.0028
27604W        W43413   1.409  16.258   0.008  0.1501  0.0944 -0.4067
27605W        W43414   6.365   9.581  11.089 -0.0162  0.0921 -0.0414
27606W        W43415   7.438   6.060  13.408  0.1074  0.2108 -0.1595
27607W        W43416   9.690  14.684  12.450  0.1010  0.0954 -0.0068
27608W        W43417   8.584  13.728   3.235  0.0105 -0.1724  0.2886
27609W        W43418   7.525   2.931  11.978 -0.0682  0.1729  0.3647
27610W        W43419  16.613   6.689   2.135  0.2350 -0.2404 -0.2079
27611W        W43420  13.936   3.179   0.445  0.5740  0.1035 -0.2238
27612W        W43421  12.706  11.728  11.189 -0.1354 -0.0582  0.0859
27613W        W43422  10.008   4.311  11.231  0.0439  0.3892 -0.0056
27614W        W43423   2.847   5.653  12.615 -0.1696  0.0757 -0.2152
27615W        W43424   7.800   0.356  12.084  0.4974 -0.0794  0.4363
27616W        W43425   2.459  17.029  12.817 -0.2336  0.1431  0.0391
27617W        W43426  18.504  17.574   4.811 -0.1738 -0.0106 -0.4491
27618W        W43427   6.329   4.897  14.920 -0.0081  0.1683  0.2082
27619W        W43428  14.869   9.751  13.202 -0.3499 -0.2368  0.0851
27620W        W43429   8.192   2.974  11.222 -0.1087 -0.1223  0.2439
27621W        W43430   7.119  17.479  10.339  0.2123  0.0702  0.2416
27622W        W43431   2.224  12.045  12.857  0.2010 -0.0096 -0.1091
27623W        W43432  18.234  15.534  14.750  0.3153 -0.1399  0.2648
27624W        W43433   2.584   8.308  14.491 -0.0131  0.2854 -0.2666
27625W        W43434   0.579   1.207  10.915  0.4769 -0.2769 -0.0308
27626W        W43435  10.845   7.283  14.606 -0.2430  0.4574 -0.2487
27627W        W43436   8.919   2.432  10.809 -0.0780 -0.1430 -0.1328
27628W        W43437   4.055   4.016  11.100 -0.0284  0.2974 -0.3432
27629W        W43438  10.696   6.879   2.499  0.2002  0.1902  0.0787
27630W        W43439  10.730   1.944   1.135  0.1943 -0.4457 -0.0360
27631W        W43440   4.567  10.404  11.466  0.0335 -0.0763  0.1398
27632W        W43441  12.950   1.042   1.399  0.1404  0.1060  0.0509
27633W        W43442  17.765  10.066  14.246 -0.0531  0.3991 -0.1029
27634W        W43443   4.260   9.256  13.966  0.0807 -0.1965  0.1110
27635W        W43444   6.714  18.479  10.286  0.0874  0.1403 -0.0100
27636W        W43445   1.466  10.770   1.307 -0.0096 -0.5899  0.1497
27637W        W43446  11.062  11.863  15.177  0.0225  0.2066  0.4154
27638W        W43447  12.567  17.545  12.024 -0.0886  0.0785 -0.2164
27639W        W43448  14.542   3.557   4.127 -0.1103  0.0287  0.0436
27640W        W43449   5.260   6.022  10.563  0.0117  0.1466  0.1348
27641W        W43450   4.181   6.561  10.401 -0.2995  0.1108 -0.1547
27642W        W43451  17.886  13.950  14.259 -0.0074  0.2679 -0.2697
27643W        W43452  12.789   0.601   3.385 -0.2118 -0.3051 -0.4205
27644W        W43453   9.956   3.499  14.181 -0.1848  0.0650  0.1352
27645W        W43454   5.456   5.440   4.139  0.2798  0.1786 -0.0024
27646W        W43455  14.815   2.099  11.900 -0.0115  0.1829  0.3923
27647W        W43456   1.915   1.383   4.231  0.1456 -0.0731  0.2707
27648W        W43457  13.816   6.247  12.868 -0.0154 -0.0461 -0.2642
27649W        W43458   3.750  15.981   4.662 -0.0723  0.4311  0.2247
27650W        W43459  18.164  13.778   5.283 -0.0144  0.0059 -0.1156
27651W        W43460  13.817  11.372  13.412  0.1966  0.0615 -0.0288
27652W        W43461   1.940  16.983  15.006  0.3250  0.0655 -0.1317
27653W        W43462  12.798   7.219   1.142 -0.5010  0.0191 -0.0457
27654W        W43463  15.248   2.209  13.297  0.1222 -0.0992 -0.0743
27655W        W43464   7.806  16.938  14.217  0.0382  0.2625  0.3334
27656W        W43465   5.526  14.489   2.564  0.1272 -0.0229 -0.3217
27657W        W43466   6.421  10.695   3.281 -0.3107 -0.0339 -0.2030
27658W        W43467  13.647  17.310  11.684  0.2899  0.1548 -0.0056
27659W        W43468  10.469   5.911  14.296 -0.1976  0.1368 -0.1476
27660W        W43469  14.640   1.550   4.721  0.1758 -0.1333  0.0660
27661W        W43470  13.317  14.132   5.275 -0.1880 -0.0310  0.2193
27662W        W43471   4.791   1.241  11.434  0.2556  0.1427  0.0528
27663W        W43472  11.040  16.770   0.519  0.0895 -0.1869  0.0701
27664W        W43473  15.066   1.819   4.973  0.0595 -0.1995  0.3334
27665W        W43474   2.476  11.972   3.963 -0.1065 -0.2714  0.0262
27666W        W43475   0.225   1.579  15.355 -0.1014 -0.1505 -0.3126
27667W        W43476   7.096  11.311   2.297 -0.1443  0.0135 -0.0962
27668W        W43477  12.003  11.016  11.755 -0.0022  0.1227  0.0468
27669W        W43478  17.406  12.219  13.938  0.0443  0.0804  0.0564
27670W        W43479   6.033   7.202  12.500  0.0077  0.3400  0.0173
27671W        W43480  11.419   1.530  11.242 -0.0630  0.0073  0.2107
27672W        W43481   3.588  13.342   2.548 -0.1606  0.1575  0.1247
27673W        W43482   1.717   2.661  14.624  0.4797  0.0656  0.1390
27674W        W43483  15.908   7.531   0.330  0.3190  0.1706 -0.0630
27675W        W43484  12.225  11.322  12.928  0.0702 -0.0606 -0.2754
27676W        W43485   4.839   8.354   0.357 -0.0706 -0.0256  0.1134
27677W        W43486  14.884  13.506   3.437  0.0919 -0.1269 -0.0290
27678W        W43487  13.165   8.098  11.074 -0.2689 -0.0396  0.0199
27679W        W43488  16.515   6.156  14.384  0.2739  0.0384 -0.2522
27680W        W43489  15.303   3.690   2.305  0.0540  0.0669  0.2107
27681W        W43490   3.368  16.155   0.377 -0.0856  0.0709 -0.1989
27682W        W43491   4.428   1.322   1.739 -0.0867  0.3062  0.1218
27683W        W43492  18.176  17.795   4.059 -0.0480 -0.0806 -0.1323
27684W        W43493   2.079   9.977  13.681  0.1305 -0.0628 -0.0074
27685W        W43494   8.446   5.766  13.764 -0.0349 -0.2096  0.0057
27686W        W43495  17.309  13.469  14.282  0.0966 -0.1068  0.0258
27687W        W43496   7.001   6.855  13.724  0.2914 -0.3001 -0.4344
27688W        W43497  12.275   0.105  10.801  0.3521  0.1061 -0.2179
27689W        W43498   4.303   4.897   2.013  0.1737 -0.1563 -0.2472
27690W        W43499  17.537  15.293   3.829 -0.2018  0.0594 -0.1421
27691W        W43500  10.151   5.743  13.996 -0.1043  0.1931 -0.0443
27692W        W43501  16.999  15.032  11.486 -0.1342  0.1727  0.3689
27693W        W43502   9.820  10.949   2.302  0.4057  0.0078 -0.1100
27694W        W43503  15.270   5.651  13.980 -0.1109  0.2468 -0.1899
27695W        W43504  11.682   1.495  12.222  0.0446 -0.0861 -0.3356
27696W        W43505   8.577  17.580   2.110 -0.2674 -0.1004  0.0211
27697W        W43506   0.530   8.350   3.275  0.0942 -0.0538  0.0765
27698W        W43507  13.282   6.918   1.623  0.1276 -0.1094 -0.0104
27699W        W43508   7.036   3.680   3.102 -0.0863 -0.1491  0.2251
27700W        W43509  14.697  16.714  14.706 -0.2151 -0.1626 -0.3310
27701W        W43510   7.469   6.588   1.897  0.1294  0.0007  0.0482
27702W        W43511  10.015  11.376   5.191 -0.0137 -0.1703 -0.1917
27703W        W43512  17.688   0.203  14.186  0.0453 -0.1046 -0.1776
27704W        W43513   8.956  17.903  10.475  0.0614  0.2533 -0.3801
27705W        W43514  12.712   0.965   1.841  0.2055  0.1034 -0.0525
27706W        W43515   5.594  14.338   3.973  0.0515  0.1119  0.2454
27707W        W43516   0.869   4.659  13.449  0.2510 -0.1695  0.4251
27708W        W43517  14.144   9.295   3.987 -0.1064  0.1214 -0.1952
27709W        W43518  12.589   3.968  10.805  0.2533 -0.3103 -0.2633
27710W        W43519  18.854  11.162  14.196  0.2395  0.0796 -0.0690
27711W        W43520  16.006   3.272  14.812 -0.0157 -0.0650 -0.3599
27712W        W43521  12.863   6.929   5.919 -0.2006  0.2193 -0.0940
27713W        W43522   1.045   7.610  15.148  0.3533  0.0476 -0.1679
27714W        W43523  10.713  12.779   3.995 -0.0075  0.0406  0.0979
27715W        W43524   7.238   2.049  11.678 -0.1843  0.1552 -0.0437
27716W        W43525   1.356   2.307  13.419 -0.2787 -0.1475  0.2454
27717W        W43526   4.397  10.275   4.384 -0.1456  0.0167 -0.5264
27718W        W43527  17.573  12.156   4.687 -0.2208  0.0045  0.3616
27719W        W43528   8.701   8.724  15.330 -0.1516  0.2935 -0.0597
27720W        W43529   2.176   6.824  13.179 -0.2208 -0.0982 -0.1609
27721W        W43530   9.405  15.902   2.083 -0.2935 -0.1238  0.0399
27722W        W43531   8.271   6.002  12.070 -0.1873 -0.0916  0.0379
27723W        W43532  14.329   8.465  14.285 -0.0002  0.0548 -0.1300
27724W        W43533   0.448  17.073  12.138 -0.2656 -0.0402  0.1806
27725W        W43534   7.620   8.710  12.197 -0.1782 -0.2287 -0.0516
27726W        W43535  11.191   5.601   0.820  0.1028  0.0468 -0.0714
27727W        W43536   6.275   0.170  14.110 -0.0862 -0.0895 -0.0059
27728W        W43537   8.055   6.922  13.571  0.0676 -0.0866 -0.0701
27729W        W43538   0.866   5.534   1.528  0.1595 -0.0298  0.0608
27730W        W43539   9.963   1.275  14.324 -0.2996  0.0660  0.2622
27731W        W43540   0.926  10.503   1.912 -0.0628 -0.1658 -0.3544
27732W        W43541  18.734   1.635   2.743 -0.2516 -0.1503  0.1758
27733W        W43542   6.980   6.996   2.088  0.0179  0.2706  0.3409
27734W        W43543   8.836  17.170  13.944  0.0053 -0.2328 -0.1721
27735W        W43544   2.610  10.004  14.873  0.0295 -0.1865  0.2357
27736W        W43545  13.592   0.649  11.690 -0.2412 -0.2092 -0.1245
27737W        W43546  13.196  15.233  10.929 -0.2145  0.0430 -0.0395
27738W        W43547   3.171  10.762  14.371 -0.1380  0.0389 -0.1506
27739W        W43548   7.939  10.871  14.148  0.0467  0.0059  0.0164
27740W        W43549   9.339   5.690  12.211 -0.0518 -0.0448  0.0776
27741W        W43550  13.332  15.781  14.365  0.1479 -0.0608 -0.2705
27742W        W43551  14.306  10.233   1.110 -0.2536  0.1523  0.1551
27743W        W43552  14.621   0.134  10.882  0.0033 -0.2778 -0.0251
27744W        W43553  18.673  16.205   5.010  0.1733  0.2784  0.1233
27745W        W43554   5.940   2.516   0.503  0.1402 -0.1851 -0.0487
27746W        W43555   1.245   4.676   2.678  0.3232 -0.3989  0.3072
27747W        W43556  18.010   9.054   4.292 -0.0479  0.2339  0.1368
27748W        W43557   0.525  16.198   5.873 -0.1037 -0.0837  0.0911
27749W        W43558   3.285   6.132   3.699  0.1236 -0.4523 -0.0791
27750W        W43559   1.140  15.352   0.926 -0.0240  0.3038 -0.2149
27751W        W43560  10.436   9.315   0.540 -0.2067  0.0401  0.1528
27752W        W43561  11.692  17.398  14.455 -0.0188 -0.1864  0.1348
27753W        W43562   2.756  13.510   2.309 -0.3009  0.0578 -0.1659
27754W        W43563  16.634   8.582   0.244 -0.1011 -0.3651 -0.0707
27755W        W43564  10.625  18.269  10.668  0.0500  0.2073  0.2070
27756W        W43565   4.320  14.764  10.969  0.3541 -0.1698  0.2730
27757W        W43566  10.017  17.263   3.484  0.1429 -0.2018  0.0328
27758W        W43567   1.660  10.669  11.511 -0.1726  0.1916  0.0481
27759W        W43568   6.912   9.091  10.553  0.0095  0.0933 -0.0685
27760W        W43569  15.927  11.908   3.998 -0.0877 -0.1716  0.1449
27761W        W43570  12.582   9.797  11.639 -0.3412  0.2016 -0.4886
27762W        W43571  18.371   1.577  14.293  0.2409 -0.2446 -0.0351
27763W        W43572  12.828   6.055   2.568 -0.0228 -0.0947 -0.0166
27764W        W43573   5.538   3.061  13.010  0.1396  0.2070  0.0303
27765W        W43574  12.542   9.152  14.130 -0.0623 -0.0897  0.2608
27766W        W43575  18.184   6.866   0.487  0.0724 -0.0249 -0.0331
27767W        W43576   2.000  14.254   1.267  0.0029  0.0537 -0.3224
27768W        W43577  16.057  11.915   2.026 -0.1488  0.1430  0.0862
27769W        W43578   2.427  17.860  10.767  0.0550  0.1851  0.0960
27770W        W43579   5.435   6.844  14.164  0.2346  0.1918 -0.2319
27771W        W43580  17.639   5.825  10.958  0.1067 -0.1905 -0.0914
27772W        W43581  14.511  11.916   0.427 -0.2386  0.0534 -0.2320
27773W        W43582  18.693  13.501   3.596 -0.1028  0.0030 -0.0189
27774W        W43583   0.793   7.879   2.320  0.1182  0.2795 -0.0011
27775W        W43584  17.367  12.208   1.549 -0.2026 -0.1916  0.3517
27776W        W43585  17.296  11.077  10.553 -0.0010 -0.3431  0.0435
27777W        W43586  11.894  13.902  10.555 -0.1879  0.1251 -0.2156
27778W        W43587  15.086  15.950  12.486 -0.1572  0.0443  0.0527
27779W        W43588   6.239   2.506   2.233  0.2485  0.0279  0.4570
27780W        W43589   2.552   1.890  15.117 -0.1068  0.0310  0.1175
27781W        W43590  11.102   2.938   2.698 -0.0027 -0.0353  0.0978
27782W        W43591  17.726  10.224   2.697  0.2064  0.3123  0.0102
27783W        W43592  12.276   6.188  12.009 -0.2256 -0.1375 -0.1327
27784W        W43593   6.255   1.542  14.744  0.2592  0.2710  0.4005
27785W        W43594   8.156   3.798   3.373  0.0469 -0.2016  0.1024
27786W        W43595  13.813   5.126   5.623  0.4373 -0.0776  0.3901
27787W        W43596  12.472   8.120  14.430 -0.2415  0.2298  0.1529
27788W        W43597   1.215   3.879   4.504  0.0586 -0.0604 -0.0550
27789W        W43598  17.841   4.628   6.256 -0.2103  0.0043  0.0701
27790W        W43599  17.916   0.056  13.574 -0.0155 -0.0957  0.1342
27791W        W43600   2.564  13.092   4.589  0.1867  0.3867  0.2088
27792W        W43601  16.845   3.356  13.848  0.2774  0.2073  0.1127
27793W        W43602  18.256  16.369  14.318  0.0310 -0.1286  0.1473
27794W        W43603   0.232   4.486  11.948  0.0772 -0.1055 -0.0258
27795W        W43604  14.719  14.113   2.593  0.0059 -0.2257  0.0562
27796W        W43605  10.445  17.313   0.733  0.0841  0.1397  0.0164
27797W        W43606   2.209   4.096   0.405 -0.2689 -0.0856  0.2618
27798W        W43607   5.813   7.432   2.444  0.2114  0.2071 -0.5929
27799W        W43608  17.269  15.315  13.931 -0.3773 -0.0884 -0.1747
27800W        W43609   8.091   0.858  10.955  0.0835 -0.2090  0.0349
27801W        W43610   5.585  16.261   3.978 -0.4075 -0.1848 -0.1496
27802W        W43611   3.752   4.841   0.123  0.2379 -0.3118 -0.1750
27803W        W43612   6.549   6.054  13.400  0.3545 -0.1241 -0.0425
27804W        W43613   1.219  12.072   4.593 -0.0541 -0.2419 -0.1610
27805W        W43614   4.789  10.082  12.667  0.2751 -0.1446  0.1913
27806W        W43615   1.091  17.782  11.198 -0.0657  0.5998  0.0925
27807W        W43616   1.039   6.010   2.277  0.0091 -0.0331  0.1293
27808W        W43617   0.745   3.054  11.341 -0.1961  0.1801  0.1579
27809W        W43618   0.492   3.800   2.274 -0.4594 -0.0630  0.0755
27810W        W43619  14.783   5.760   2.795 -0.0061  0.1236 -0.0174
27811W        W43620  14.056  10.041   0.686  0.2681  0.0824  0.0327
27812W        W43621  11.188  12.446   0.597 -0.0018 -0.1024  0.1445
27813W        W43622  12.621  11.616   0.976  0.2875 -0.1853 -0.0871
27814W        W43623   7.117   2.619   5.795  0.2208  0.1498  0.1296
27815W        W43624   3.218   1.966   4.551  0.0393 -0.0117  0.0861
27816W        W43625  13.336   8.583   1.460 -0.1106 -0.1693  0.2518
27817W        W43626   7.644  18.663   0.695 -0.1953 -0.1012 -0.0285
27818W        W43627  13.723   7.470  12.757  0.0848  0.0644  0.1935
27819W        W43628  12.578  14.947   2.020 -0.1969  0.0246  0.0776
27820W        W43629   1.108  14.889  11.720  0.1874 -0.0137  0.6057
27821W        W43630   0.322  15.560  10.721 -0.0312 -0.3019 -0.0511
27822W        W43631  15.782   2.718   1.241 -0.0182  0.0146 -0.3181
27823W        W43632   6.659   2.753   3.140  0.2154  0.0122 -0.0625
27824W        W43633  10.106   3.604   5.005  0.3437  0.0286  0.2170
27825W        W43634   7.075   2.751  13.679  0.1596 -0.3469 -0.0268
27826W        W43635   5.508   8.544  10.983  0.0755 -0.1339 -0.2033
27827W        W43636   8.593   4.224  14.389 -0.3235 -0.1212  0.0627
27828W        W43637   3.884  13.057   5.648 -0.2762  0.0600 -0.0132
27829W        W43638   3.183  18.598  11.635 -0.1442  0.0258  0.1871
27830W        W43639   8.486   0.272   0.955  0.1538  0.0142 -0.1356
27831W        W43640   6.748   0.720  14.905 -0.4660  0.0365  0.1645
27832W        W43641  17.140  15.574   3.396 -0.1490 -0.2007  0.1633
27833W        W43642  16.953  18.394   2.079  0.0577  0.0744  0.3050
27834W        W43643  15.122  14.911  13.206 -0.0679  0.0511 -0.1286
27835W        W43644  13.815  17.048   3.227  0.1891 -0.0414  0.0561
27836W        W43645   4.724   9.729  10.769  0.0641 -0.0823 -0.1104
27837W        W43646  16.688   9.529   2.570 -0.2788  0.0045 -0.5322
27838W        W43647  10.384   4.415  14.580 -0.2392  0.3318  0.0150
27839W        W43648   9.758   4.681   2.190  0.1721 -0.0646 -0.1488
27840W        W43649   9.587  17.636   3.768  0.0159  0.1286 -0.1010
27841W        W43650   6.949  17.679   1.037 -0.2119 -0.1891  0.2527
27842W        W43651  13.058   8.490   1.933 -0.1010  0.0447  0.4100
27843W        W43652  11.241   0.321   0.218 -0.1323  0.1227  0.3030
27844W        W43653   7.109  15.110  11.076 -0.0689 -0.0601 -0.2402
27845W        W43654  12.826  12.280   4.650  0.1079  0.1071  0.0866
27846W        W43655  17.852   4.343  11.856  0.0355 -0.2301  0.3508
27847W        W43656   9.933  13.408  11.682  0.0388  0.1736 -0.0974
27848W        W43657  17.656  14.260   0.489  0.4525 -0.2795  0.2569
27849W        W43658   8.640   0.316   3.672  0.1438  0.3178  0.0270
27850W        W43659  12.162   3.248   4.509 -0.1686  0.0737  0.1529
27851W        W43660  10.836   3.573  11.064  0.3198  0.0544 -0.6085
27852W        W43661   8.904   0.587   0.670 -0.0636  0.1505 -0.3134
27853W        W43662   9.934  13.685  12.910  0.1243 -0.1301 -0.0790
27854W        W43663   5.505   2.563  13.138 -0.1411 -0.0396  0.0180
27855W        W43664  10.913   3.677  12.796 -0.0520  0.0818 -0.4573
27856W        W43665   9.522  14.820   4.872  0.3527  0.2893 -0.0148
27857W        W43666  17.348   6.591   0.624 -0.1577 -0.0538 -0.0950
27858W        W43667  13.212   9.322   0.018 -0.1421  0.1804  0.0186
27859W        W43668  12.186   9.341   4.188 -0.0327  0.3690  0.0973
27860W        W43669   6.682  10.196   0.116  0.1364  0.0597  0.2867
27861W        W43670  12.970   4.574   2.355 -0.0332  0.0156 -0.1824
27862W        W43671   9.002   5.456  13.779 -0.2578  0.4250 -0.5183
27863W        W43672   2.722  10.983  14.281  0.2150  0.1653 -0.0989
27864W        W43673   3.883  17.493  14.064 -0.0155 -0.1387 -0.0450
27865W        W43674   0.022   2.191   1.066 -0.1918  0.1783 -0.2309
27866W        W43675  16.307   2.633  11.805  0.0406  0.0221  0.0117
27867W        W43676   6.370  11.136   2.967 -0.2585  0.1672  0.0089
27868W        W43677  15.671  11.122   5.917  0.1370 -0.0091 -0.2627
27869W        W43678  10.908   4.999  11.745 -0.2183  0.2615 -0.2602
27870W        W43679  11.088   7.366   1.444 -0.1488 -0.0439  0.3355
27871W        W43680  11.402  13.498   3.035 -0.2237 -0.3382  0.3721
27872W        W43681  16.831  15.933  14.538 -0.3028  0.1171  0.1159
27873W        W43682  16.400  13.634   3.187 -0.1780 -0.2684  0.2914
27874W        W43683   8.337  10.997  10.152 -0.2646  0.0290  0.0301
27875W        W43684   5.329   4.994  10.293 -0.1274  0.0279  0.1833
27876W        W43685  17.367   0.340  11.868  0.2790 -0.2971 -0.1187
27877W        W43686   4.419   0.441   4.603  0.0161  0.2282 -0.2137
27878W        W43687   9.112   3.989  11.952 -0.4439  0.1965  0.1701
27879W        W43688   1.456   6.726   0.205  0.0448 -0.3304 -0.0584
27880W        W43689  12.057  10.486   2.811  0.2264 -0.0996 -0.1960
27881W        W43690   2.511  11.135   4.459 -0.0851 -0.2066  0.2855
27882W        W43691   9.488   3.302   1.980  0.0002  0.2426  0.2901
27883W        W43692   5.272   9.027  14.394  0.1238  0.3528 -0.2128
27884W        W43693  13.593  14.290  12.732 -0.1013  0.2211 -0.2009
27885W        W43694   0.550  16.065   2.525 -0.1468  0.3778 -0.1411
27886W        W43695   4.371   9.912  12.433 -0.1004 -0.1279 -0.1577
27887W        W43696  16.075   6.903   6.085  0.2134  0.2586 -0.3124
27888W        W43697   2.605  12.977   2.376  0.3408  0.2024  0.2075
27889W        W43698   8.125   7.205   1.971 -0.0333  0.0632 -0.2538
27890W        W43699  14.377  14.456  14.523 -0.1379 -0.1451  0.1222
27891W        W43700  15.200  12.543  12.403  0.0089  0.3598 -0.4937
27892W        W43701   2.358  11.392   4.888 -0.0436  0.0643  0.2445
27893W        W43702   6.043   1.116   3.018 -0.0856  0.2040  0.1511
27894W        W43703   6.174  18.703   0.502  0.0763 -0.1829 -0.3355
27895W        W43704  13.988   0.414  13.540  0.0457 -0.0300 -0.1341
27896W        W43705  16.950  15.612  13.509  0.0597  0.1425 -0.4765
27897W        W43706   9.167   0.720   4.986  0.2943 -0.0086  0.2045
27898W        W43707  17.876  10.478  12.779 -0.2404 -0.1423 -0.2871
27899W        W43708  11.887   3.478  12.650  0.0578 -0.1052  0.3809
27900W        W43709   1.902  10.446  10.138 -0.0903  0.1838  0.1130
27901W        W43710  12.071  18.511   2.492  0.1846  0.2886  0.0658
27902W        W43711   6.372  15.517   1.082 -0.0924  0.5960  0.1504
27903W        W43712   0.634   6.048   1.895 -0.2723  0.0330  0.2149
27904W        W43713   7.914  14.164   0.433 -0.2065 -0.1556 -0.0867
27905W        W43714  10.387   0.438   3.409 -0.1974 -0.2161 -0.1901
27906W        W43715   8.992  12.942   9.573 -0.1506  0.2739 -0.0834
27907W        W43716   3.581   2.374  12.917 -0.0606  0.1169 -0.0932
27908W        W43717   9.645  10.841  10.536 -0.0136 -0.2050  0.3643
27909W        W43718  15.061  13.663   0.689  0.1410  0.0834 -0.0146
27910W        W43719   8.919   1.556   2.502  0.1105  0.0213 -0.2097
27911W        W43720  16.338  12.629  10.660  0.2668 -0.1687  0.0549
27912W        W43721  15.992   2.387  14.867  0.1827 -0.2351  0.1090
27913W        W43722   5.304  12.046  13.158 -0.1805  0.3827  0.2311
27914W        W43723   9.687   0.139  14.695  0.0066 -0.1512 -0.4718
27915W        W43724   9.510   3.575  12.324  0.2807 -0.0742 -0.1687
27916W        W43725  16.915  13.001  13.153 -0.2479 -0.2242  0.2665
27917W        W43726   7.012  13.406  14.154  0.1101 -0.1097 -0.0335
27918W        W43727  16.541   2.345   0.690 -0.0093  0.0577  0.1532
27919W        W43728   8.263   3.977  13.594  0.1205  0.0252 -0.0487
27920W        W43729  17.317   5.997   4.598 -0.1803 -0.0055 -0.0934
27921W        W43730   4.447   0.700   3.231 -0.2023  0.0091 -0.0372
27922W        W43731   6.788  12.027   4.146 -0.0426 -0.0016 -0.0237
27923W        W43732  12.808   6.490   2.821 -0.1675  0.1210 -0.2142
27924W        W43733  14.240  14.120   4.785 -0.0569 -0.0656  0.4425
27925W        W43734  13.490   6.220   3.965  0.2804 -0.1928 -0.1993
27926W        W43735   1.363  16.227   1.670  0.0885 -0.0384  0.3352
27927W        W43736   6.479  16.473  11.382  0.1687  0.2531 -0.1150
27928W        W43737  15.618  13.798   0.162 -0.0088 -0.0490  0.1303
27929W        W43738  14.310   5.238  10.252  0.0809 -0.0358 -0.1058
27930W        W43739  15.957   0.219  13.629  0.1916  0.0740 -0.0237
27931W        W43740   1.948   5.437  13.602  0.1852 -0.2176 -0.2745
27932W        W43741  11.140  11.668  13.680  0.2601 -0.1927  0.1898
27933W        W43742   0.374   0.013   5.629 -0.2099 -0.0626  0.0703
27934W        W43743   9.268   8.477   2.069 -0.1342  0.0789  0.0499
27935W        W43744  10.354  13.649   3.139  0.0403  0.2686  0.1483
27936W        W43745  15.322   5.291  11.301  0.0834 -0.0379 -0.1462
27937W        W43746  17.565   0.276   3.028  0.1512  0.1312  0.1126
27938W        W43747   4.280   3.602  12.240 -0.2065 -0.1318  0.1540
27939W        W43748  17.911  12.771  11.939 -0.2992 -0.1364 -0.3460
27940W        W43749   4.344   6.864  12.656 -0.1803 -0.2436 -0.0971
27941W        W43750  15.334  14.830   4.340  0.1192  0.2128  0.0834
27942W        W43751  10.606   7.596   4.536 -0.2938  0.1557  0.1421
27943W        W43752   3.324   9.736   0.955 -0.2635 -0.1181  0.2582
27944W        W43753  12.000  11.812  13.125  0.0603  0.1750 -0.1875
27945W        W43754  14.273   1.284   1.924 -0.3480 -0.3191 -0.0647
27946W        W43755  12.319   6.283  11.557  0.0565 -0.3986  0.2663
27947W        W43756   2.093  13.861   2.142  0.3519 -0.3217  0.1290
27948W        W43757  16.144  12.754  12.841  0.0624 -0.2699 -0.2130
27949W        W43758   3.525  13.964  10.445  0.2580 -0.1356 -0.0317
27950W        W43759  15.636   0.470   1.271  0.3693 -0.3739  0.0157
27951W        W43760  12.944   2.914   2.931  0.0840 -0.0486 -0.2322
27952W        W43761  11.898  14.482   0.978 -0.2244 -0.1747 -0.0562
27953W        W43762   0.288   1.416  11.398  0.0809  0.0261  0.0104
27954W        W43763   9.918  17.921  14.049 -0.0585  0.0053 -0.2500
27955W        W43764   3.627  16.511  15.099  0.1634 -0.1310  0.2939
27956W        W43765  12.942   6.151   4.811  0.0304  0.0257  0.2533
27957W        W43766  17.761  17.402   0.972  0.0700  0.0546  0.0346
27958W        W43767   0.940   0.392   1.106  0.4578 -0.3891  0.0654
27959W        W43768  12.887  10.667   1.100 -0.2275  0.0987  0.1160
27960W        W43769   4.797   0.525   5.107 -0.0041  0.4800 -0.3501
27961W        W43770  10.808   8.931   2.662 -0.2083  0.0213  0.1913
27962W        W43771  17.999   5.779   0.407 -0.1140  0.0194 -0.0978
27963W        W43772  13.738  14.808   4.660 -0.0399  0.1306  0.1794
27964W        W43773  10.440  14.120   4.916 -0.5123 -0.0537  0.0577
27965W        W43774   0.779  17.365   2.548 -0.0680 -0.1489  0.0700
27966W        W43775   3.985  17.573   0.738  0.2509  0.0410 -0.0103
27967W        W43776  14.677  18.565   2.690 -0.0380 -0.0366 -0.1915
27968W        W43777  16.190  16.182  10.896 -0.1733  0.0631 -0.1277
27969W        W43778   2.591   9.479   5.840  0.2553  0.0942  0.3802
27970W        W43779  11.295  17.027   2.105  0.0404  0.2919  0.0995
27971W        W43780  15.306   5.326  12.696  0.2433  0.1696 -0.0099
27972W        W43781  11.702  13.289   0.365  0.2063 -0.0336 -0.2763
27973W        W43782   6.580   5.603   4.334  0.0640 -0.5296  0.0990
27974W        W43783  15.629  10.814  13.920  0.0730 -0.3074 -0.2062
27975W        W43784   7.354  10.569   2.831 -0.2167 -0.1624  0.3426
27976W        W43785   2.676  13.394   0.364 -0.1301  0.0799 -0.0374
27977W        W43786  15.037   1.631   9.602  0.0421  0.1254  0.1071
27978W        W43787  14.116  12.162   1.129 -0.1144 -0.1460 -0.1207
27979W        W43788   7.662   6.542  12.116 -0.2249  0.0007 -0.2648
27980W        W43789   0.058  10.130  14.610 -0.2415  0.1439  0.3617
27981W        W43790   3.444   3.954   1.131 -0.5079 -0.5585  0.2945
27982W        W43791   2.730   1.624   0.715 -0.2016 -0.1866  0.1760
27983W        W43792  14.112   6.157  15.416  0.0840 -0.1057 -0.1280
27984W        W43793  11.020  17.985  14.402 -0.1055 -0.1307  0.2140
27985W        W43794   1.986  13.885   2.933 -0.0098 -0.1614  0.1409
27986W        W43795   8.039  14.239   4.982 -0.2613 -0.0876 -0.0100
27987W        W43796   3.629  16.515  10.222  0.0678 -0.0845  0.0868
27988W        W43797  11.622   3.610   5.319  0.0306  0.1211 -0.1934
27989W        W43798  15.109  10.105   4.457 -0.1501  0.2001  0.0349
27990W        W43799   1.601   1.685  10.782  0.2100  0.0068  0.1407
27991W        W43800  14.510   3.844   1.653  0.0697  0.2633 -0.1120
27992W        W43801  13.940   1.442  12.361  0.1267 -0.2138 -0.2408
27993W        W43802  11.566  18.912  14.518 -0.0457 -0.0539 -0.1281
27994W        W43803  18.112  10.458  14.207 -0.1069  0.4611 -0.1560
27995W        W43804  18.445   7.908  13.882 -0.0738 -0.2214  0.0812
27996W        W43805  11.726   4.274   1.465  0.4437 -0.2739  0.3252
27997W        W43806   7.162  10.304   2.338 -0.2086  0.1600 -0.3617
27998W        W43807  14.829  11.575   1.198  0.0910 -0.3870  0.1396
27999W        W43808   3.371  11.923  12.518  0.1004 -0.1225 -0.1584
28000W        W43809   3.092   9.744  13.366 -0.0507 -0.0644  0.6219
28001W        W43810   1.260   9.556   4.059 -0.3429 -0.1303 -0.0999
28002W        W43811  17.931   8.725   0.801  0.0471  0.0401  0.0317
28003W        W43812  14.119   2.603  10.919 -0.0277  0.4201 -0.0893
28004W        W43813   2.650  12.141   1.788  0.0093 -0.1373 -0.0031
28005W        W43814   1.251  14.629  11.223 -0.0452  0.1385 -0.2322
28006W        W43815   0.135   7.394  13.380 -0.0212  0.3333 -0.6456
28007W        W43816   9.513  10.894   0.899 -0.1298 -0.5916 -0.2585
28008W        W43817   1.946  11.232  11.695 -0.0381 -0.1952  0.0704
28009W        W43818  16.226  16.340  14.390 -0.4411 -0.2339  0.4790
28010W        W43819   6.749   0.767   0.864  0.4003 -0.1840 -0.0734
28011W        W43820   7.059  15.108  15.134  0.0203  0.2517  0.1284
28012W        W43821   5.989   0.502   3.262  0.1774 -0.0752 -0.0239
28013W        W43822  16.247  13.665   5.342 -0.0925  0.0314 -0.0646
28014W        W43823  17.376   7.944   5.719  0.2700  0.0818  0.0882
28015W        W43824  17.209  11.733  14.707 -0.0405 -0.1360  0.3329
28016W        W43825   7.043   2.106  14.153  0.0105 -0.0076  0.1140
28017W        W43826  10.725   5.652  13.944 -0.1224  0.2431  0.0494
28018W        W43827  12.219  16.929   3.679  0.0847 -0.3974  0.3341
28019W        W43828  15.518   6.249   3.004 -0.2264 -0.0893 -0.1210
28020W        W43829   6.074  13.871  11.922  0.0108 -0.3315 -0.1067
28021W        W43830  17.607   6.037   3.460  0.1412  0.3289  0.1979
28022W        W43831   2.190   2.058  12.528 -0.0705 -0.0507  0.0329
28023W        W43832   8.676  15.954  14.307  0.0851 -0.1620  0.1709
28024W        W43833  14.197   8.855  13.298 -0.0409  0.2179 -0.1726
28025W        W43834  10.830   0.663   2.552  0.1193 -0.1387  0.4633
28026W        W43835  17.521   7.550   4.357  0.0885 -0.1078 -0.0488
28027W        W43836  18.573  12.934  11.134 -0.2892 -0.1716 -0.0730
28028W        W43837   4.934   6.324  14.822 -0.1980  0.0523 -0.0430
28029W        W43838  13.512   5.551  10.009  0.1592 -0.3419 -0.2201
28030W        W43839  17.911  18.292   0.369  0.0517  0.3062 -0.0215
28031W        W43840   4.055  15.374   1.051  0.1305 -0.3053 -0.0362
28032W        W43841  10.315  12.579  13.555  0.0193  0.2054 -0.1474
28033W        W43842  12.293  12.166  15.285 -0.1118 -0.1118  0.0023
28034W        W43843   9.580   8.158  14.463 -0.0669  0.1662 -0.0205
28035W        W43844  15.615   8.440  14.427  0.3159 -0.2347  0.1238
28036W        W43845  10.522   5.861  13.578 -0.1676  0.0064 -0.0285
28037W        W43846  11.016  10.188   5.879 -0.3518 -0.2515 -0.1412
28038W        W43847   5.406  15.952   0.014 -0.1208 -0.0395 -0.3666
28039W        W43848  13.561   6.235   0.534 -0.1405  0.1173  0.4541
28040W        W43849   9.820  17.267   1.133 -0.3456 -0.2011 -0.0784
28041W        W43850   3.019   2.470   0.677 -0.0012 -0.3265 -0.0382
28042W        W43851  12.550   8.960   0.094 -0.1205 -0.0154 -0.3012
28043W        W43852  15.078  17.741  14.150  0.0404 -0.2241 -0.1068
28044W        W43853   3.779  12.590  11.377 -0.1018  0.1221  0.4806
28045W        W43854   1.314  16.524   5.479 -0.0112 -0.2448 -0.4212
28046W        W43855  16.070   2.541  13.397 -0.2935 -0.0181 -0.1281
28047W        W43856  12.202  18.645   3.389  0.2251 -0.2760 -0.2170
28048W        W43857   3.764  16.356  12.561 -0.4615 -0.0097  0.1960
28049W        W43858  15.111  10.796   3.339 -0.0085  0.0234 -0.0829
28050W        W43859  18.468  13.720   1.535 -0.0004 -0.1239 -0.3256
28051W        W43860   8.821   8.756   5.914 -0.0873 -0.0861 -0.0065
28052W        W43861  12.332  17.740  10.615 -0.1013 -0.1852 -0.0267
28053W        W43862   7.529  18.449   2.020  0.0497 -0.0178  0.0967
28054W        W43863   7.033  12.628   1.520  0.0268  0.0464 -0.1438
28055W        W43864   8.306   0.372  12.177  0.1239 -0.0221  0.2701
28056W        W43865  16.857   9.938   1.681 -0.0313  0.3591  0.0788
28057W        W43866  15.179  18.477  12.872 -0.0113  0.2029 -0.0837
28058W        W43867  10.737   5.837  11.500 -0.3375  0.0530  0.2949
28059W        W43868   7.056   1.995   1.800 -0.0764 -0.2494 -0.0800
28060W        W43869  14.932  12.794  14.328  0.0055  0.0442  0.0037
28061W        W43870  15.566   6.452  14.663 -0.1115  0.0144  0.0374
28062W        W43871   3.635   9.340  13.970  0.2110 -0.3449 -0.0907
28063W        W43872   8.269  14.136  13.362 -0.2529 -0.1490  0.3984
28064W        W43873   4.300   9.316  10.172 -0.0444 -0.3402 -0.0074
28065W        W43874   5.670   7.763   4.741  0.0894  0.0255 -0.0530
28066W        W43875   8.311   1.819   1.494 -0.1449 -0.0721 -0.3747
28067W        W43876  17.527   8.422   0.505 -0.1737  0.3122  0.0883
28068W        W43877  11.990   4.621   3.913  0.2563  0.4306  0.2076
28069W        W43878  16.518  11.918   4.847  0.1034  0.0297  0.1990
28070W        W43879  13.790   8.533  13.462  0.3085  0.2014 -0.0146
28071W        W43880  17.239  15.879  12.586  0.0754  0.1999 -0.1468
28072W        W43881   1.448   1.795   4.784  0.0148 -0.1887 -0.1744
28073W        W43882  11.997  14.240   2.600  0.1566 -0.0960 -0.0484
28074W        W43883   4.495   4.565  10.549  0.1341 -0.0821 -0.0520
28075W        W43884  17.507   5.594  10.460 -0.3240  0.2300 -0.3994
28076W        W43885  13.843   1.606   1.662 -0.0557 -0.2192 -0.0346
28077W        W43886   4.414   5.448   2.044  0.0657  0.2895  0.0771
28078W        W43887   9.755  16.013   5.131 -0.2140 -0.1794 -0.1175
28079W        W43888   6.008   4.157   1.101 -0.1673  0.3732  0.0325
28080W        W43889   2.364   5.531  15.318  0.0034  0.0412  0.0224
28081W        W43890   0.849  16.031   2.113 -0.1080 -0.0604  0.1311
28082W        W43891  14.024  17.519   9.889  0.1233  0.2381  0.1473
28083W        W43892  18.671  11.322   3.357  0.1065 -0.1031 -0.2774
28084W        W43893   0.283   1.444  14.405 -0.0646 -0.0313  0.2909
28085W        W43894   2.881  10.581  13.939  0.2118  0.4630 -0.1904
28086W        W43895  13.450  17.271  12.921 -0.2576 -0.0741  0.0465
28087W        W43896   0.195   5.498   3.313 -0.1064  0.4030  0.3880
28088W        W43897   8.975   3.319  14.106  0.3016  0.0271  0.1403
28089W        W43898   6.592   8.299   0.361 -0.0596  0.0414 -0.1957
28090W        W43899  14.482  13.185  13.384 -0.1207  0.3983  0.2157
28091W        W43900  16.690  15.159   1.781  0.4156 -0.2176 -0.0368
28092W        W43901  18.320  17.386  13.389  0.3014  0.0285 -0.0830
28093W        W43902  15.303   8.802   2.179  0.2142 -0.0499  0.1557
28094W        W43903  13.241   4.569   0.267  0.1860 -0.0126 -0.2342
28095W        W43904   0.124   4.202  12.896  0.0620  0.2359 -0.2038
28096W        W43905   5.217   0.880  12.257 -0.1093  0.0217  0.2147
28097W        W43906  10.847  11.622   4.002 -0.0985 -0.0471 -0.0522
28098W        W43907   3.622   0.421  12.669  0.0019  0.1353 -0.1245
28099W        W43908  16.207   4.998   2.956  0.2555 -0.0671 -0.0238
28100W        W43909   3.653   2.591  11.246 -0.1451 -0.0628  0.0925
28101W        W43910  14.835   1.869  15.077 -0.1477  0.2792 -0.0483
28102W        W43911  12.533   6.617  11.293  0.3041  0.0197 -0.4068
28103W        W43912   0.858   1.238   4.269  0.1115 -0.2944 -0.0520
28104W        W43913   8.529   0.659  14.814  0.0538  0.0852  0.0078
28105W        W43914  10.769   4.774   0.533  0.1420  0.1223  0.1318
28106W        W43915  11.456   5.935  11.553  0.4386  0.2386  0.3352
28107W        W43916   5.946  16.452   4.368  0.2633  0.4813  0.0682
28108W        W43917  11.157   6.166  12.918  0.1093 -0.0180 -0.0707
28109W        W43918   2.036   8.141   5.047  0.1122  0.3058 -0.1739
28110W        W43919   6.147  12.986  14.688  0.0346 -0.2065  0.1905
28111W        W43920   9.186  17.946   2.856 -0.0819 -0.0002 -0.0221
28112W        W43921   5.738   2.800  15.098 -0.6020 -0.1185  0.0018
28113W        W43922  15.862  10.448   2.025 -0.0130  0.0784  0.1111
28114W        W43923  15.708   7.054  12.434  0.1382  0.0849  0.0327
28115W        W43924  11.910  16.065  12.256  0.1703 -0.0883 -0.1435
28116W        W43925  12.502   9.804  10.976 -0.0681 -0.3406  0.4006
28117W        W43926  11.362  11.248  11.151  0.0288 -0.1338 -0.2918
28118W        W43927   8.036  14.176  12.470 -0.3173 -0.1069 -0.1604
28119W        W43928  14.503  11.616   0.839 -0.2980  0.0875 -0.0801
28120W        W43929  13.384   9.203   5.010  0.1802  0.0018 -0.1488
28121W        W43930   3.302  14.177   3.317  0.1128  0.1075 -0.0774
28122W        W43931   8.002  11.510   2.613  0.0756  0.1655  0.4555
28123W        W43932   7.420   4.049  11.770  0.5174 -0.1125 -0.1467
28124W        W43933  16.104   1.387  10.896  0.1635 -0.1102 -0.0552
28125W        W43934   2.237   9.642   4.012  0.0806 -0.1777  0.1630
28126W        W43935   1.113   6.922  14.356 -0.2472 -0.2520 -0.0051
28127W        W43936   6.311   8.999   2.853 -0.0166  0.1235  0.1808
28128W        W43937   9.086   2.790  14.917  0.3417  0.1192 -0.2560
28129W        W43938   2.864  11.801  10.597  0.1741  0.1974 -0.1166
28130W        W43939   5.867   1.641  13.520  0.2534  0.2404 -0.1330
28131W        W43940  16.368   7.463   4.281 -0.1085 -0.4724 -0.1037
28132W        W43941   4.458  16.407   1.804 -0.0841 -0.3742 -0.0813
28133W        W43942  18.161   3.378   2.637 -0.1447 -0.1414  0.1949
28134W        W43943   2.818   7.341  10.391 -0.2259  0.0972  0.0681
28135W        W43944   6.789  15.410  11.276 -0.1859 -0.0313 -0.0644
28136W        W43945  11.506   4.068  14.002 -0.3366 -0.1478 -0.1545
28137W        W43946   5.507   1.653  11.288 -0.0041  0.3732 -0.0538
28138W        W43947   8.563   1.645   0.414 -0.1037 -0.5099  0.0049
28139W        W43948   1.827  15.189  15.021 -0.2201  0.0067  0.1196
28140W        W43949  12.725  10.893   3.601 -0.1577 -0.1464 -0.0860
28141W        W43950  17.013  17.643   3.477 -0.1120  0.3747 -0.0242
28142W        W43951   5.360   5.009   1.834 -0.1202  0.1676 -0.0977
28143W        W43952  14.128  11.996   3.324 -0.1465  0.3412 -0.0310
28144W        W43953  13.068  17.551   2.902 -0.1799 -0.2234 -0.2461
28145W        W43954   7.363  16.754   4.031  0.0613 -0.2950 -0.0205
28146W        W43955  18.719   3.061  11.008  0.0298  0.3333  0.0536
28147W        W43956   6.242  17.245  13.498  0.1921  0.2686  0.1087
28148W        W43957  16.643   2.188  10.965 -0.1904  0.1998 -0.0723
28149W        W43958   8.769  12.810   3.591  0.2767 -0.0408  0.2156
28150W        W43959  11.934  16.907   1.703  0.4205 -0.0434  0.0383
28151W        W43960   2.300  10.827  11.450  0.2881 -0.0141 -0.0555
28152W        W43961   1.837   5.163  10.460 -0.0239  0.1612 -0.1060
28153W        W43962  14.108  12.828   3.003 -0.1032 -0.3708 -0.1340
28154W        W43963   2.950  16.127   1.774  0.1536 -0.1374 -0.3054
28155W        W43964   0.025  12.989   0.735 -0.2240  0.1296  0.4228
28156W        W43965  10.377  16.346   3.792  0.0149 -0.0379  0.2021
28157W        W43966  12.202  16.099   4.763 -0.0889  0.0384 -0.0544
28158W        W43967  18.573   3.210   1.237 -0.1664  0.1387 -0.0116
28159W        W43968  15.443   0.625   0.407  0.0761  0.0732  0.0697
28160W        W43969  16.349   6.237  13.189 -0.0969 -0.1249  0.1577
28161W        W43970  14.859  14.417   3.050 -0.1969  0.2225 -0.1653
28162W        W43971  17.654   2.130  13.103 -0.0026 -0.1353  0.1596
28163W        W43972   1.683  12.611  13.631  0.1054  0.1325 -0.0200
28164W        W43973   9.171   5.628  11.743 -0.0475 -0.1026 -0.0870
28165W        W43974   6.302  15.881   1.821  0.0857 -0.2236 -0.0088
28166W        W43975   2.158   9.041   1.485  0.0186 -0.0321  0.2682
28167W        W43976  10.534   0.001  14.342 -0.2310 -0.3088  0.0003
28168W        W43977   3.603  17.738   3.755 -0.2670  0.0996  0.0449
28169W        W43978  11.392   1.087  12.403 -0.4235 -0.2177 -0.0065
28170W        W43979   8.210   6.999   1.529  0.1405  0.2171  0.1916
28171W        W43980  12.196  12.466   2.515  0.0813  0.1295 -0.1506
28172W        W43981  17.952   7.934  13.666  0.2261  0.0759  0.3463
28173W        W43982  15.409  13.932  14.762 -0.0798  0.0758  0.0482
28174W        W43983   1.408   6.457  11.172 -0.0341  0.1543 -0.1602
28175W        W43984  15.149   5.785   6.313  0.2758  0.0068  0.1039
28176W        W43985  15.492   3.186   3.688  0.1552  0.1685  0.0207
28177W        W43986  15.703   4.042  11.737 -0.0377 -0.1290  0.3872
28178W        W43987  16.998  13.577  14.734 -0.0382 -0.0962 -0.1985
28179W        W43988  11.356  16.044   0.614  0.1800 -0.1078  0.1204
28180W        W43989   1.469  10.999   3.235  0.2147 -0.1481 -0.0965
28181W        W43990  10.588   0.745   2.121  0.3243 -0.0952  0.2146
28182W        W43991  18.320   7.830   0.482  0.1717 -0.2535 -0.0096
28183W        W43992   4.255   9.906  10.113  0.0212 -0.2478 -0.4782
28184W        W43993  18.698  12.604   2.566  0.0232  0.0773 -0.0434
28185W        W43994   9.563  13.473   4.440 -0.2201 -0.0609 -0.0047
28186W        W43995   4.458   7.375   1.435  0.0696  0.3501 -0.0790
28187W        W43996   5.782   9.086  15.176  0.4308 -0.0144  0.3469
28188W        W43997   8.854  12.161   2.984 -0.2302 -0.0783 -0.0505
28189W        W43998  12.004   8.890   9.732  0.0645 -0.0323 -0.0543
28190W        W43999   0.709  14.778  13.290 -0.0480  0.4857 -0.2571
28191W        W44000  17.300   6.824  14.799 -0.0783 -0.1159  0.0788
28192W        W44001   9.133   5.224  11.459 -0.0428 -0.0822  0.1137
28193W        W44002   4.679  13.561   1.707 -0.3773  0.0316  0.0400
28194W        W44003  15.731   2.145  11.973 -0.0398  0.0367 -0.1954
28195W        W44004  18.264   3.309  10.395 -0.2484 -0.2530  0.0931
28196W        W44005  11.462   1.820   9.987  0.1667 -0.2561  0.0223
28197W        W44006   6.862  16.724   2.961  0.6190  0.0592 -0.3060
28198W        W44007   8.492  17.046   0.767 -0.1248 -0.0110 -0.1108
28199W        W44008   4.293   5.829  11.150 -0.1590  0.2665 -0.0940
28200W        W44009   6.828   4.370   1.477  0.0185 -0.0644  0.0906
28201W        W44010  18.893   2.288  15.208  0.4546  0.4996 -0.2742
28202W        W44011  12.043  18.309   3.797 -0.0353  0.0821 -0.0311
28203W        W44012  10.385   5.316  13.847 -0.1399  0.0833  0.2855
28204W        W44013   1.641   5.694  10.625 -0.3393 -0.0216 -0.2527
28205W        W44014   7.604   8.686   5.272 -0.3382 -0.4458  0.0839
28206W        W44015  16.299  12.323   2.212 -0.0337  0.0358  0.1101
28207W        W44016   4.627  15.861   3.582  0.1613  0.0707 -0.0330
28208W        W44017  16.642  14.333  10.673 -0.0392  0.0386  0.3006
28209W        W44018  15.621  13.187  15.249 -0.0241 -0.0679  0.0290
28210W        W44019  13.210   9.037   5.497  0.4754  0.0289 -0.0790
28211W        W44020   9.182   6.983  12.505 -0.5144  0.1666  0.0143
28212W        W44021   4.651   0.708  13.902  0.4050  0.0277 -0.2225
28213W        W44022  18.339   0.872  11.073  0.2747 -0.1388 -0.3718
28214W        W44023  14.847  14.004  15.105 -0.4335 -0.2148 -0.1469
28215W        W44024  17.976  13.000   0.574 -0.4068  0.2142 -0.2951
28216W        W44025  12.993   7.232  13.329 -0.4656 -0.3571  0.1086
28217W        W44026   1.570  16.007   3.936  0.0509 -0.3332  0.2536
28218W        W44027  12.153  11.478   1.126 -0.2547 -0.2476  0.0348
28219W        W44028  15.860   8.973   0.166  0.2791 -0.2294 -0.0259
28220W        W44029   5.906  16.225  13.387 -0.1729 -0.0425  0.1227
28221W        W44030   7.999   2.453  12.062 -0.0013 -0.2321 -0.3628
28222W        W44031  17.739  13.076  11.521  0.1367 -0.3309 -0.1883
28223W        W44032  16.688  18.099   3.442  0.2003 -0.1822  0.4135
28224W        W44033   9.432  13.669   0.901  0.1008 -0.2266  0.0845
28225W        W44034   6.718  14.190   0.479 -0.0804 -0.0007  0.0367
28226W        W44035   3.294  17.260  12.766 -0.0454  0.0319 -0.0401
28227W        W44036   6.837   0.552   3.310  0.3183  0.0548 -0.1558
28228W        W44037  18.889  10.072   3.965  0.3160  0.2173 -0.2920
28229W        W44038   2.651  18.090  11.171 -0.1817  0.1043 -0.1544
28230W        W44039  14.920  15.796  12.923  0.0550  0.0873 -0.4420
28231W        W44040   1.579  16.196   0.458 -0.0257 -0.2929  0.1405
28232W        W44041   1.497   7.422  15.118  0.0392  0.0604 -0.0864
28233W        W44042  17.353  17.802  12.261  0.0396  0.2212  0.0720
28234W        W44043   0.855   1.285   9.529  0.1393 -0.0152  0.0128
28235W        W44044  15.658  11.770   5.043  0.0957 -0.3357 -0.1337
28236W        W44045   2.893  18.871   5.360 -0.0454  0.2694 -0.1312
28237W        W44046   5.572   9.032  13.944 -0.0164  0.1304  0.0849
28238W        W44047  15.652   0.891  12.056  0.1475 -0.0358 -0.0470
28239W        W44048  16.542  18.174  12.140  0.1336 -0.0082  0.1225
28240W        W44049  12.103   8.189   3.799  0.1210 -0.2336 -0.4508
28241W        W44050  13.522  11.672   2.013  0.1407 -0.0136  0.1215
28242W        W44051   6.873   3.735  12.515 -0.0998 -0.0943 -0.2333
28243W        W44052   3.596   7.944  12.906  0.3225  0.1737  0.2958
28244W        W44053  14.559  17.623  15.056 -0.0551 -0.0125  0.0548
28245W        W44054  10.034   0.141  15.111 -0.0367 -0.2725  0.2183
28246W        W44055  18.288  13.268  10.717 -0.1606  0.0298 -0.0053
28247W        W44056  18.267  17.840   1.712  0.4461  0.0332  0.1216
28248W        W44057  16.630  17.017  12.755  0.0005  0.2290  0.1456
28249W        W44058   0.110  14.841  13.439 -0.0684 -0.0271  0.1404
28250W        W44059  10.444   6.893  12.378 -0.1103  0.4634  0.2405
28251W        W44060  12.359  18.825  13.656 -0.6167  0.2344  0.1613
28252W        W44061   9.710   3.056   0.699  0.0681  0.2203 -0.2055
28253W        W44062   0.917   4.704  14.473 -0.3336 -0.1022 -0.0331
28254W        W44063   3.549   9.076   2.626 -0.2559 -0.1701  0.1919
28255W        W44064   3.284  17.249   2.073  0.0904 -0.5107  0.1391
28256W        W44065  14.555   9.152  10.876 -0.3291 -0.1559 -0.0422
28257W        W44066  14.449   4.614  11.087 -0.0861 -0.4488 -0.1636
28258W        W44067  15.284  13.653   1.371 -0.0185  0.1337 -0.1598
28259W        W44068  17.963   3.893   1.783 -0.3331 -0.1182 -0.1517
28260W        W44069   0.584  15.127  11.285  0.1794  0.0052 -0.0287
28261W        W44070   8.126   8.616   0.737 -0.0588 -0.1389 -0.0898
28262W        W44071   3.383   5.870  11.745  0.1471 -0.0008  0.1480
28263W        W44072  10.842   6.876  10.798 -0.1222  0.1994 -0.0427
28264W        W44073   5.416  18.306   0.825 -0.2936 -0.2075 -0.2506
28265W        W44074  10.647   4.282   0.936  0.0476 -0.1325  0.5810
28266W        W44075   7.565  13.700   0.883 -0.2874  0.1348 -0.1231
28267W        W44076  15.098  11.627   3.918 -0.0709 -0.1991 -0.3267
28268W        W44077  16.405  15.987   1.201  0.0133  0.1488  0.1170
28269W        W44078   8.267   7.180  11.781 -0.0922  0.1765  0.1040
28270W        W44079  16.646   4.913   5.848  0.1882  0.1164 -0.2283
28271W        W44080  12.064  18.751  11.186 -0.2772 -0.1011  0.0716
28272W        W44081   0.150  14.267   2.408  0.0460  0.0700 -0.0739
28273W        W44082  11.730  14.335  14.533 -0.1648  0.0440  0.0522
28274W        W44083  16.060  15.768   0.829  0.4295  0.0315 -0.1091
28275W        W44084   7.748  17.154   2.001 -0.0931 -0.2120 -0.0108
28276W        W44085  16.263   5.930  14.878  0.0349  0.0319  0.0422
28277W        W44086   2.452  13.987  13.491 -0.1130 -0.1809  0.2130
28278W        W44087  13.070  12.582   3.497 -0.0782 -0.2492 -0.1866
28279W        W44088  13.982  17.574  12.202 -0.0410  0.4657  0.2836
28280W        W44089   1.197   3.691  11.607 -0.0380  0.0575  0.0177
28281W        W44090   4.819  17.984  14.916 -0.3428 -0.3062 -0.1678
28282W        W44091  11.728  16.810  11.035  0.0128  0.0151 -0.1218
28283W        W44092   7.401  14.321   4.562 -0.5356 -0.1502  0.0056
28284W        W44093   5.812   8.839   2.903  0.1213 -0.0808  0.1113
28285W        W44094  15.883  17.140  11.059  0.2425 -0.1125  0.3066
28286W        W44095   4.323  12.209   3.996  0.3907 -0.0865  0.1569
28287W        W44096  11.619   4.880   4.293  0.5463  0.1231 -0.3156
28288W        W44097  13.533   0.790   1.456 -0.0622  0.2031  0.0191
28289W        W44098   7.562   7.487  12.636 -0.0098  0.2970 -0.1102
28290W        W44099  10.254   8.095   2.732 -0.1328 -0.3323 -0.1399
28291W        W44100   9.629  11.217  14.188  0.1797 -0.0825 -0.3451
28292W        W44101  12.451  13.165  13.031  0.2068  0.1942 -0.2142
28293W        W44102   7.614  16.049  11.562 -0.1396 -0.2673  0.1615
28294W        W44103   7.779  10.653   3.487 -0.1944  0.0134  0.0606
28295W        W44104  17.915  13.909   0.858  0.0335  0.1118 -0.2277
28296W        W44105   8.634  15.004   5.203  0.0799 -0.0122 -0.1213
28297W        W44106  11.467  11.025   0.682 -0.0779 -0.1396  0.2174
28298W        W44107  13.470  18.126   2.645  0.0095 -0.0958  0.1476
28299W        W44108  17.641   7.281  14.739 -0.0978 -0.3863 -0.0658
28300W        W44109   4.140  10.387  12.557  0.1696 -0.1954 -0.3547
28301W        W44110   4.868  16.377   0.493 -0.0137 -0.2142 -0.1231
28302W        W44111   9.615  12.131   3.374  0.1640 -0.1783  0.1668
28303W        W44112   3.341   5.365  14.989 -0.0036  0.3057  0.1135
28304W        W44113   4.483   2.085   4.323  0.3307 -0.2014  0.0415
28305W        W44114   1.911   2.430  12.302 -0.1049 -0.3254 -0.3524
28306W        W44115   3.097   7.411   3.796  0.3282 -0.1203  0.1406
28307W        W44116   9.578   4.153   1.850  0.1987 -0.0760 -0.2795
28308W        W44117  17.645   4.804  14.838  0.1571 -0.0853  0.1322
28309W        W44118  14.527  11.590  14.172 -0.0363 -0.0933 -0.3816
28310W        W44119   5.056  12.561  14.736 -0.1126 -0.1261 -0.0374
28311W        W44120   2.418   5.749   6.114  0.1663 -0.2235  0.1578
28312W        W44121  16.301   0.162   5.045  0.1345  0.1576 -0.0202
28313W        W44122  13.197  15.954   5.194 -0.1174 -0.1547 -0.2207
28314W        W44123   9.295   9.928  13.073 -0.2034 -0.0752  0.2398
28315W        W44124   1.738   3.423  10.875 -0.1571 -0.1795 -0.2245
28316W        W44125  16.134   1.629   1.665  0.0257  0.3737  0.0927
28317W        W44126   1.971  12.477   0.588  0.0680  0.0200  0.0596
28318W        W44127   9.490   9.735  11.293  0.0434 -0.1898 -0.0676
28319W        W44128   6.428   0.236   0.643  0.1332 -0.1072 -0.1911
28320W        W44129  16.609   6.167  12.731 -0.0765 -0.3751  0.2044
28321W        W44130   6.720  14.114   4.070 -0.1287 -0.1681 -0.2004
28322W        W44131   7.190  11.791   3.227 -0.0744  0.1982  0.0386
28323W        W44132   9.506   3.664  12.840 -0.3321 -0.0756  0.1876
28324W        W44133  11.971  15.369  11.760 -0.1318 -0.3058 -0.0690
28325W        W44134   7.436  12.520   0.428  0.3422  0.0833 -0.2916
28326W        W44135   8.107  18.883   4.372  0.3276  0.3391  0.2515
28327W        W44136   7.837  17.863   0.183  0.0824  0.2738  0.0880
28328W        W44137   6.704  14.478  11.539  0.2129 -0.0504  0.2151
28329W        W44138   8.922  15.985  11.096  0.4131  0.3288  0.2677
28330W        W44139   4.761   4.977  13.582 -0.1632  0.0752 -0.0128
28331W        W44140  12.571   2.851  15.365 -0.0118 -0.1009 -0.1317
28332W        W44141  12.788  11.659   0.327  0.2569  0.0161 -0.0717
28333W        W44142  18.732  11.374  14.730  0.1496  0.0899  0.1476
28334W        W44143   9.160  16.893   1.862  0.2354 -0.1833 -0.2786
28335W        W44144   7.019   9.560  13.080 -0.1793 -0.1050  0.1099
28336W        W44145  11.000   4.631   0.964  0.3694  0.2734 -0.3915
28337W        W44146   0.696  14.720  12.559  0.0508 -0.0847 -0.1203
28338W        W44147  14.083   9.059   0.979  0.4081  0.4755 -0.1470
28339W        W44148   4.093  10.800   1.339  0.0582 -0.2936  0.1848
28340W        W44149  12.596   5.428   5.464  0.0301  0.0530 -0.0656
28341W        W44150  13.092   7.917   4.905 -0.0805  0.2679 -0.0155
28342W        W44151  15.404   8.997  14.355 -0.0214  0.0096 -0.2976
28343W        W44152  15.330   7.556  13.098 -0.1132 -0.1287  0.0894
28344W        W44153  18.697  16.858  11.022 -0.0244  0.2044  0.1720
28345W        W44154   8.753  17.929   1.023  0.1597 -0.3318  0.0727
28346W        W44155  15.239  16.328   4.686  0.1751  0.1283  0.3648
28347W        W44156  17.180   9.378  15.294  0.0929  0.2276 -0.4947
28348W        W44157  18.727  13.190   1.571 -0.0922  0.1978 -0.1836
28349W        W44158   2.165   0.371   0.067  0.0111  0.1044  0.1504
28350W        W44159  15.502  18.544  11.086 -0.0709 -0.0661  0.3847
28351W        W44160  17.148  14.950  11.949 -0.0888 -0.1854  0.4418
28352W        W44161   3.381   6.889   2.206 -0.0303  0.4106  0.2228
28353W        W44162  16.126  15.640   3.403 -0.1445 -0.1798  0.1418
28354W        W44163   2.868   4.489  13.234  0.1681 -0.1352 -0.0792
28355W        W44164  15.772  12.743   2.378 -0.1411  0.4540  0.1718
28356W        W44165  15.305   3.522   0.526  0.2420  0.2010  0.0914
28357W        W44166   6.032   1.877  15.074 -0.5015 -0.0503 -0.1079
28358W        W44167  10.625   8.782  11.354 -0.6030  0.2924 -0.1516
28359W        W44168   1.416  15.247  14.255 -0.3412 -0.0788  0.1024
28360W        W44169  18.400   2.345  13.733 -0.1379 -0.2011 -0.0522
28361W        W44170   4.821  12.554   2.484 -0.2968 -0.1580 -0.0223
28362W        W44171   4.521  13.563   3.615  0.1236 -0.1215 -0.2555
28363W        W44172  14.317  16.677  10.704 -0.1907 -0.2136  0.0370
28364W        W44173  11.899  17.877   3.392  0.4034 -0.1603  0.1410
28365W        W44174  11.072   8.275  13.547 -0.0222 -0.1003 -0.1074
28366W        W44175   4.201   9.976  10.968 -0.1505  0.0771 -0.0172
28367W        W44176   1.971  10.059   3.992 -0.0981  0.1658 -0.2094
28368W        W44177  16.902  18.056   4.415  0.3499 -0.0827  0.0489
28369W        W44178   2.713  14.600   4.395  0.1718 -0.0395 -0.4273
28370W        W44179  18.253   5.085   1.808 -0.2929 -0.2393 -0.1833
28371W        W44180  17.485  15.696  13.510  0.0461 -0.1320  0.1304
28372W        W44181   6.143   0.216  13.420 -0.1497 -0.0896 -0.0893
28373W        W44182   9.661  13.784  13.304  0.2753 -0.1423  0.1894
28374W        W44183   0.318   1.934  10.666 -0.2196  0.0608 -0.0932
28375W        W44184   9.902   0.565   4.193 -0.0040 -0.2752 -0.1549
28376W        W44185   3.186  11.917  11.021 -0.3540  0.2480  0.2352
28377W        W44186   7.271  12.635   4.665 -0.0646 -0.0918  0.0013
28378W        W44187   6.060   8.696   3.798 -0.1091 -0.0681  0.3676
28379W        W44188  10.304   6.768   0.551  0.0930  0.0887 -0.4006
28380W        W44189   0.239  18.179   1.830  0.3303  0.3708 -0.0775
28381W        W44190  15.799   9.670  12.288  0.1445 -0.0340 -0.0231
28382W        W44191  14.052  17.114   3.656 -0.2541 -0.0283 -0.0392
28383W        W44192   6.658  12.127   1.999 -0.2207 -0.0125 -0.1372
28384W        W44193  10.575   9.775  13.665  0.3462 -0.2140  0.1491
28385W        W44194  17.003   2.616  13.581 -0.0915  0.0252 -0.1719
28386W        W44195   1.592   3.685  11.957 -0.0061 -0.1719 -0.0463
28387W        W44196  18.357  16.098  14.820  0.0450 -0.2456 -0.0832
28388W        W44197   9.862   3.605  11.936  0.0401  0.2263 -0.1082
28389W        W44198   1.600   6.844  13.805  0.0893  0.3774  0.1837
28390W        W44199   6.572  18.613  10.812  0.0674 -0.2148 -0.2587
28391W        W44200   8.596   6.678  12.479 -0.2724 -0.2305 -0.0715
28392W        W44201   2.707  11.273  13.289 -0.3060  0.0002  0.0978
28393W        W44202  10.531  13.943  14.774  0.0202 -0.0420 -0.0157
28394W        W44203  13.493   3.137  10.391 -0.2202  0.1513  0.3728
28395W        W44204   6.478  13.117  11.991 -0.1294 -0.1371  0.0697
28396W        W44205  13.934  13.110  14.481 -0.0342 -0.0368 -0.3994
28397W        W44206   9.125  15.741  12.575  0.1831  0.2795 -0.0663
28398W        W44207  12.447   4.393  14.140 -0.0697 -0.3762  0.0584
28399W        W44208  13.479  17.572   5.002  0.0428 -0.0697 -0.2500
28400W        W44209   3.596   0.037   1.326 -0.2529 -0.2112  0.4260
28401W        W44210   4.159  18.795  12.477  0.0791 -0.2061  0.1612
28402W        W44211  14.238  14.315  11.598  0.1660  0.0812  0.1336
28403W        W44212   8.247   2.188   2.553  0.1625  0.0683  0.4376
28404W        W44213   7.067  18.538   3.815 -0.0078 -0.2091 -0.1934
28405W        W44214  14.025  11.379   0.750 -0.1558 -0.1016  0.0374
28406W        W44215  13.118   5.231   4.964 -0.4360 -0.0350 -0.1136
28407W        W44216  14.981   2.404  12.603  0.4993 -0.2439 -0.1057
28408W        W44217  17.167  12.297  12.505 -0.4022 -0.0714 -0.1620
28409W        W44218  14.503  17.314  12.920  0.1698 -0.0633  0.1365
28410W        W44219  15.330   6.791   0.174 -0.0274 -0.2771  0.2409
28411W        W44220   7.337  10.684  13.491 -0.0502 -0.1978  0.0711
28412W        W44221  14.774  12.198   4.830 -0.1029 -0.0758 -0.0790
28413W        W44222   9.156   7.411  11.472  0.1211 -0.0890 -0.2437
28414W        W44223   8.993  18.566  13.064  0.2898 -0.0583 -0.0039
28415W        W44224  11.843   3.770   0.534  0.0158  0.1921  0.3563
28416W        W44225   1.054  11.932   1.901  0.1192  0.0273 -0.0241
28417W        W44226   7.492   6.640   4.600  0.0408  0.0114  0.0072
28418W        W44227   0.046  12.964  12.368  0.0905  0.0278 -0.1909
28419W        W44228  14.510  11.827  13.122 -0.2421 -0.0641  0.2067
28420W        W44229   8.095   8.417  11.783  0.0182 -0.1234 -0.0802
28421W        W44230   2.947   2.570  15.269  0.1669  0.0237  0.0088
28422W        W44231   4.814   0.549  12.254  0.1314  0.1357 -0.0344
28423W        W44232  17.678   6.440   1.984 -0.0751  0.1414  0.1849
28424W        W44233   4.382   3.157   2.492 -0.1412 -0.0874 -0.1136
28425W        W44234  12.099   3.776   5.381  0.1450  0.0022 -0.1931
28426W        W44235   0.870   1.925  13.971 -0.0932  0.0656 -0.3122
28427W        W44236   9.939  13.340  13.340  0.1415 -0.0432 -0.3147
28428W        W44237   7.191   1.958   0.378 -0.1256 -0.0344  0.0639
28429W        W44238  12.745   4.537  12.307  0.0720  0.0027  0.1064
28430W        W44239   3.713  15.811  12.713 -0.0237  0.3007 -0.3685
28431W        W44240   6.113  12.853   2.657  0.4258  0.3601  0.1087
28432W        W44241  16.084   2.767  12.879 -0.0998  0.1114  0.0681
28433W        W44242  16.316   3.947   0.424 -0.2358  0.2646 -0.0157
28434W        W44243   4.078   1.942  14.432  0.0072 -0.0754 -0.0205
28435W        W44244   7.665  16.580   4.370  0.1530 -0.1369  0.1247
28436W        W44245  14.367   0.838  13.388 -0.0301 -0.1219 -0.1198
28437W        W44246  14.255   3.837   2.100  0.6801 -0.2830  0.0003
28438W        W44247  15.738   9.821  13.164  0.2283 -0.0056  0.1064
28439W        W44248  12.733   0.524  11.503  0.1403 -0.3465 -0.1222
28440W        W44249   5.387  16.903   1.120 -0.3525 -0.1715 -0.1210
28441W        W44250  16.904   8.075   4.237 -0.2572 -0.0120  0.2596
28442W        W44251   3.426   4.502  11.728 -0.5775  0.2547 -0.0063
28443W        W44252   9.871  10.227   3.248  0.3314  0.1299 -0.1365
28444W        W44253   6.013  14.052  10.570 -0.0889  0.5051  0.0394
28445W        W44254   9.867  18.695  12.834  0.1462 -0.0858 -0.1625
28446W        W44255  16.397   7.227   2.069 -0.0784  0.0771  0.0162
28447W        W44256  14.536  14.048   4.086  0.0056  0.0693 -0.0271
28448W        W44257   9.562   3.421   0.348  0.2501  0.0740  0.3752
28449W        W44258  15.122   1.929  10.539  0.0162  0.0272 -0.0863
28450W        W44259   5.406   1.798   0.842 -0.0337  0.0592 -0.3201
28451W        W44260  15.901   6.515  13.322 -0.1180 -0.1771  0.1115
28452W        W44261  10.025   0.784   5.704  0.2121 -0.1085 -0.1310
28453W        W44262   1.207   0.425  15.282 -0.0196 -0.1942  0.0134
28454W        W44263  13.473  15.483   0.819 -0.0538  0.2679  0.1433
28455W        W44264  12.430   0.739  12.022 -0.0761 -0.1232 -0.0134
28456W        W44265   5.002   4.804  13.978  0.0149  0.2267  0.1433
28457W        W44266  13.811   6.502  12.427  0.6513  0.2878 -0.1837
28458W        W44267   5.952  10.535   3.627  0.1006 -0.0108 -0.0189
28459W        W44268   6.667  16.493  15.439  0.0456 -0.1046  0.4352
28460W        W44269   5.726  14.123   1.802  0.2883  0.0898  0.0001
28461W        W44270   1.263   7.302  13.675  0.0024  0.1513 -0.0337
28462W        W44271   3.034  16.979   5.261 -0.4243  0.3589  0.0657
28463W        W44272   1.326  13.615  14.395 -0.0825 -0.3469 -0.0194
28464W        W44273  16.275  14.212   3.453  0.2197  0.2130  0.4480
28465W        W44274   2.013  18.706  10.591 -0.0990  0.0376  0.3385
28466W        W44275  16.156  10.055  11.562 -0.0119 -0.2654  0.0203
28467W        W44276  11.274  10.326   2.234  0.3508  0.3590  0.0054
28468W        W44277  12.954   0.124  14.988 -0.0901  0.0247  0.0583
28469W        W44278  17.822   1.264   2.054  0.0578  0.1466 -0.1692
28470W        W44279   3.648  14.776  13.483 -0.1367 -0.1094 -0.1235
28471W        W44280   7.157   5.666  12.066  0.2498 -0.4462  0.2929
28472W        W44281   6.820   7.546   3.012  0.3982 -0.0780 -0.0524
28473W        W44282   9.657   6.511   3.131  0.0463  0.0777 -0.1015
28474W        W44283   1.276  10.799   5.093 -0.2613  0.0667 -0.0909
28475W        W44284   7.592   5.524  11.190  0.1251  0.2787  0.1583
28476W        W44285   0.995  12.160   5.063 -0.0268  0.1174 -0.2732
28477W        W44286  12.944  15.523  13.546  0.2180  0.0882  0.0238
28478W        W44287  17.178   6.965  11.802 -0.5339  0.4406 -0.1786
28479W        W44288  14.164   2.735   3.812 -0.1009  0.0361 -0.0306
28480W        W44289  10.884   0.680  15.034  0.2661 -0.2079 -0.2566
28481W        W44290   4.474  18.140   0.313  0.0318 -0.2226  0.1067
28482W        W44291   1.988  18.595   1.942 -0.2033 -0.0964 -0.0456
28483W        W44292   5.888  13.911   4.155  0.2019  0.3027 -0.0704
28484W        W44293  18.177   6.143   0.714  0.2457  0.2166  0.0691
28485W        W44294   4.268  12.363  10.999 -0.2011 -0.2424 -0.0643
28486W        W44295  16.948   1.056   4.006  0.0991  0.0201  0.1141
28487W        W44296   2.049   2.226  14.453  0.1011 -0.0728 -0.0379
28488W        W44297  16.175   4.821   0.681 -0.1382 -0.1520  0.0130
28489W        W44298  10.603   5.072   4.984  0.0331  0.1793 -0.1720
28490W        W44299  11.784   3.053   3.641 -0.0481  0.2255 -0.2589
28491W        W44300  14.328   4.012  11.249 -0.1009  0.2913  0.2452
28492W        W44301  14.301  12.709  11.922 -0.1905 -0.1532  0.0825
28493W        W44302   1.787  15.153   2.457  0.0479  0.2894  0.2269
28494W        W44303  13.675  10.491   4.519 -0.2274 -0.3682  0.0561
28495W        W44304   4.544   5.944  12.179  0.2760  0.2356  0.0127
28496W        W44305   3.385  16.807  13.695  0.2810 -0.0325  0.2110
28497W        W44306  12.170   3.961  12.748 -0.2669  0.1999 -0.4791
28498W        W44307   2.914   8.049  11.445 -0.0893  0.0030  0.0209
28499W        W44308  16.679   1.991  12.520 -0.4170  0.0645  0.0673
28500W        W44309  10.139   8.993  12.647 -0.3391  0.0219 -0.0594
28501W        W44310   6.695   5.613  14.958  0.0767 -0.0219 -0.0845
28502W        W44311   8.540  10.635  14.336  0.0932 -0.2226  0.2627
28503W        W44312   9.543  11.638  11.770 -0.0146  0.0100  0.0042
28504W        W44313   3.440   9.044  10.644 -0.0886  0.3000 -0.2008
28505W        W44314   7.947  15.845  13.212 -0.0609 -0.0134 -0.3720
28506W        W44315   2.765   5.080   2.837 -0.1105 -0.2149  0.2117
28507W        W44316   3.956  15.566   3.915  0.0258  0.2720  0.3172
28508W        W44317  11.191   0.258  14.187  0.0967  0.0731 -0.1233
28509W        W44318   1.872   9.245   3.236  0.0564 -0.0534 -0.0203
28510W        W44319   6.155   6.185   0.056  0.0101 -0.2061 -0.0534
28511W        W44320  17.204  13.830   1.470 -0.1815 -0.0909 -0.3397
28512W        W44321   5.558   4.882  12.773 -0.0459 -0.2018  0.0345
28513W        W44322  10.099   1.677   0.080  0.1925 -0.0431  0.0816
28514W        W44323   2.180   3.050  12.659 -0.1668 -0.1805  0.3053
28515W        W44324  18.905   7.080   3.205 -0.3802 -0.2645 -0.0277
28516W        W44325   8.219  15.623   0.672 -0.0906 -0.5500 -0.1579
28517W        W44326  16.436   1.843  11.453 -0.0964  0.0773 -0.0786
28518W        W44327  18.735  14.893   1.219  0.0661  0.0927 -0.1339
28519W        W44328   5.059  15.940  12.917  0.3295 -0.3156 -0.0007
28520W        W44329   0.873   9.366  12.336 -0.2337  0.1364 -0.2373
28521W        W44330   0.415   8.812   1.894  0.1325 -0.1858  0.3637
28522W        W44331  10.294   8.376  12.118  0.0796 -0.0571 -0.2411
28523W        W44332   3.187  18.214   2.154  0.0292 -0.1661  0.5048
28524W        W44333  11.653  15.195   3.983  0.0322  0.1747 -0.2426
28525W        W44334   2.796   7.745  13.908  0.2508  0.0020  0.2305
28526W        W44335   6.045   0.829  11.330 -0.0467 -0.1117 -0.1344
28527W        W44336   3.952   6.726  15.131 -0.1516  0.0661  0.2178
28528W        W44337  12.879  13.331  14.300  0.2530  0.2193 -0.3115
28529W        W44338   6.766  10.265  10.484 -0.2107  0.0601 -0.0948
28530W        W44339   3.596   1.528   2.012 -0.0068  0.0975  0.0047
28531W        W44340  10.120   8.606   5.196 -0.3315  0.0493  0.4127
28532W        W44341   3.548   7.983  10.115  0.0913  0.0615  0.1147
28533W        W44342   3.790   2.172   3.683 -0.0291  0.3209 -0.0233
28534W        W44343   3.874   1.653  13.234 -0.1571  0.0632 -0.1927
28535W        W44344  10.604   8.754   1.031  0.0656  0.0648 -0.0265
28536W        W44345   3.261  11.536  12.202  0.2450 -0.1189 -0.3437
28537W        W44346  16.749   6.981   1.762 -0.1368 -0.0826  0.1271
28538W        W44347  12.833   7.433  12.889  0.3324 -0.1866 -0.1966
28539W        W44348  16.516   3.920  13.233 -0.1482 -0.1293  0.0509
28540W        W44349   0.669  11.150  10.648  0.0072  0.0780  0.1420
28541W        W44350   4.813   9.365  11.120  0.2537 -0.2500 -0.3086
28542W        W44351  15.120   7.147   3.826  0.2003  0.1791 -0.2422
28543W        W44352   4.607  17.547   2.809  0.0576 -0.1387 -0.1116
28544W        W44353  14.603   2.227  14.670 -0.0903  0.1003  0.1475
28545W        W44354   7.565   2.802   1.029  0.3306  0.1043  0.0112
28546W        W44355  12.166   0.372  13.775  0.1802  0.0957  0.1041
28547W        W44356   3.490  16.647  14.204  0.0414  0.3854 -0.0314
28548W        W44357  12.568   8.594  14.328  0.1796  0.1415 -0.1337
28549W        W44358  17.429   0.361  13.387 -0.1021  0.2968  0.2297
28550W        W44359   8.569   9.623  11.168 -0.1373  0.1173 -0.0801
28551W        W44360  15.480  13.805  14.199 -0.1550  0.3229 -0.0280
28552W        W44361   0.084  16.405  14.028  0.0450 -0.0591 -0.2105
28553W        W44362  15.204   1.658  12.605  0.3014 -0.0320 -0.2920
28554W        W44363   6.791   8.371   4.195  0.0942  0.1624 -0.3165
28555W        W44364   7.297   8.537  14.147 -0.0281  0.2456 -0.1337
28556W        W44365   3.431   6.080  10.743  0.2342 -0.4696 -0.1708
28557W        W44366   8.511  13.231  10.865  0.0880 -0.2045  0.3357
28558W        W44367   4.803  15.267  13.318 -0.1910 -0.4291  0.2248
28559W        W44368   6.250   5.106  14.463  0.2510 -0.3322 -0.1003
28560W        W44369   7.408   0.237  13.870  0.1064  0.1769  0.0765
28561W        W44370  17.124  14.289   4.476 -0.2527  0.0846 -0.2098
28562W        W44371   7.438  15.548   0.981  0.3873  0.0362 -0.0834
28563W        W44372   9.711  16.477   4.906 -0.0423  0.1927  0.3130
28564W        W44373  12.226   3.083  12.807 -0.1800 -0.3375  0.1155
28565W        W44374  14.466   7.342   5.299  0.1315  0.0408 -0.0139
28566W        W44375  18.770   5.600   0.452 -0.1575 -0.1423 -0.1246
28567W        W44376  12.683  13.387  12.025 -0.1039  0.4387 -0.0968
28568W        W44377   7.553  14.301   3.610  0.0172  0.1476 -0.0495
28569W        W44378   6.230  16.788  11.053  0.2661 -0.0523 -0.0673
28570W        W44379   1.130   4.299  13.627 -0.5350 -0.2386 -0.2030
28571W        W44380  13.678  16.919   5.690 -0.1182  0.0223 -0.1092
28572W        W44381   1.048  18.017  13.512 -0.0215  0.2787 -0.2010
28573W        W44382  17.888  18.546   9.807  0.2395 -0.0924  0.1170
28574W        W44383   3.661   9.571  12.069  0.0942  0.0661  0.1683
28575W        W44384  14.812  13.428   0.322  0.1197 -0.3189  0.2096
28576W        W44385   7.940  17.003   1.113  0.2166  0.1723 -0.0211
28577W        W44386   9.182   0.636  14.173 -0.5081  0.2266  0.1466
28578W        W44387   9.599   9.256  13.778  0.1491 -0.3507 -0.0181
28579W        W44388   1.556   3.334   1.402 -0.2223 -0.3672 -0.0809
28580W        W44389   2.561  14.896  14.116  0.0279 -0.0570  0.0056
28581W        W44390   6.235  10.907  15.048  0.2701  0.0742  0.0170
28582W        W44391   0.039   6.401  11.487  0.2489  0.4945 -0.0634
28583W        W44392  10.689  17.604  13.477 -0.0238  0.0593  0.0640
28584W        W44393  17.994  13.873   1.577  0.1708 -0.0927 -0.3797
28585W        W44394   9.697  13.065   0.496 -0.1113  0.3272 -0.1954
28586W        W44395   0.360  11.022  12.722  0.1582  0.2875 -0.2032
28587W        W44396   0.702   5.578   2.320  0.1867  0.0683 -0.1031
28588W        W44397  10.799  13.033  13.712  0.0039  0.0848  0.2429
28589W        W44398  16.650  17.363   1.710  0.2178 -0.0720  0.0322
28590W        W44399   7.064  14.920   4.190  0.0154  0.2202  0.0658
28591W        W44400   5.055   3.471   5.178 -0.4325 -0.2185  0.3352
28592W        W44401  16.641   9.825   2.929 -0.1262 -0.0575  0.0328
28593W        W44402   6.404  14.562  12.737  0.2297 -0.0060  0.2653
28594W        W44403   9.448   2.042   3.204  0.0420  0.1643  0.0058
28595W        W44404  17.820  13.388  14.501  0.3620 -0.1697  0.3129
28596W        W44405  15.181   0.825  12.050  0.1230 -0.1226  0.2124
28597W        W44406  15.218  18.600   2.572 -0.0910  0.0602 -0.1153
28598W        W44407  14.808  12.296  14.578 -0.2871  0.0878 -0.0243
28599W        W44408   0.473   2.469  15.241 -0.0743 -0.0014  0.1533
28600W        W44409   2.606   2.508  10.463  0.0491 -0.1481 -0.0134
28601W        W44410   7.581  18.787  13.480  0.2151 -0.0015 -0.0049
28602W        W44411  17.108   0.536   2.269  0.0837  0.1408 -0.5047
28603W        W44412  15.166   7.769   4.597  0.0580 -0.0331 -0.0867
28604W        W44413  17.245   4.027  14.792 -0.0222 -0.6199 -0.0470
28605W        W44414  15.532   0.118  10.883  0.1590 -0.1900 -0.0040
28606W        W44415  13.874   5.823   0.195 -0.1131 -0.0361  0.2031
28607W        W44416  18.547   4.951  11.249 -0.1843  0.2962 -0.0763
28608W        W44417  15.959  10.592  13.458  0.0148 -0.2385  0.0867
28609W        W44418   6.198  17.117  14.920  0.0794  0.0472 -0.2926
28610W        W44419  12.477   4.526   0.683  0.0634  0.3541 -0.0143
28611W        W44420   1.051  15.796  15.244  0.1389  0.1070 -0.2285
28612W        W44421  16.553   4.738   1.345  0.4312 -0.2325  0.2872
28613W        W44422  15.848   0.748   4.680  0.0812  0.1205  0.1445
28614W        W44423  14.889   1.790   1.077  0.0726  0.1081 -0.1497
28615W        W44424   8.695   7.643   0.386 -0.0246  0.1384 -0.1036
28616W        W44425   7.793   5.080  13.155  0.1323 -0.5602  0.0062
28617W        W44426   3.310   2.215  11.244  0.1114 -0.0206  0.0463
28618W        W44427   0.805  17.004  15.210 -0.0135 -0.2762 -0.0845
28619W        W44428   4.846   5.358   2.968  0.1129  0.1830  0.1106
28620W        W44429  14.776   2.605  14.067 -0.3946  0.0218  0.2206
28621W        W44430   9.125  14.677   0.702 -0.2745 -0.2780 -0.0500
28622W        W44431  17.424   3.771  11.661  0.2739  0.0586  0.0242
28623W        W44432   6.918   3.925   1.771  0.3135  0.0826  0.0508
28624W        W44433  16.643  13.354   4.004 -0.0951 -0.0990  0.3380
28625W        W44434   4.813  15.276  14.356  0.1047  0.2607  0.1310
28626W        W44435   1.299   7.129  12.983 -0.3710 -0.3716  0.1630
28627W        W44436  15.722   8.725   4.378 -0.0500  0.0821 -0.0859
28628W        W44437   9.643  14.025   5.159  0.1639 -0.3904 -0.2549
28629W        W44438  11.203   4.615   1.711 -0.0095 -0.2953 -0.1532
28630W        W44439   6.669   4.763  15.321  0.1018  0.0710  0.1826
28631W        W44440  18.878  12.008   5.066  0.0602  0.0345 -0.0030
28632W        W44441  18.862  17.866  15.040  0.2352  0.2315 -0.1721
28633W        W44442   0.670  12.897  11.581 -0.0722 -0.1270 -0.0112
28634W        W44443   2.873   6.712  11.367 -0.0809  0.3097  0.2400
28635W        W44444  14.660  16.727   1.894 -0.3001  0.2703  0.1992
28636W        W44445  10.744   7.233  14.001 -0.0398 -0.3785 -0.0096
28637W        W44446   4.737   7.946  12.478 -0.0730  0.0452  0.0347
28638W        W44447  14.338  12.018   2.322 -0.0235  0.1485  0.2202
28639W        W44448  17.384   1.895   1.419 -0.2396 -0.3316 -0.1194
28640W        W44449  13.583   0.004   0.434  0.2965 -0.0643 -0.1839
28641W        W44450  15.198  12.565   4.956  0.2083  0.0738 -0.2202
28642W        W44451  16.275  18.232   5.222  0.1309  0.0813  0.2107
28643W        W44452  16.308   2.353   2.664  0.3558  0.0259  0.1464
28644W        W44453  17.499   9.682  14.470  0.0371  0.0367  0.0033
28645W        W44454  13.839  14.633   3.603  0.1802  0.1195 -0.2020
28646W        W44455   5.824  16.655  10.234  0.0088  0.3260  0.2393
28647W        W44456   7.147   6.759   2.754  0.0310 -0.2758  0.2104
28648W        W44457  12.395   9.792   4.324 -0.4056 -0.3773  0.4794
28649W        W44458  12.081   3.760   4.468 -0.1021  0.1773 -0.1808
28650W        W44459  15.431   1.256   0.785 -0.1562 -0.0108 -0.0143
28651W        W44460   3.564   9.766  13.684  0.0178  0.3220 -0.1381
28652W        W44461   0.749  16.830  10.702 -0.0355 -0.0642  0.0567
28653W        W44462  18.638   8.000  11.060  0.2671 -0.0307  0.0714
28654W        W44463  17.852  11.473   4.513 -0.2759 -0.2140 -0.2375
28655W        W44464  15.468   5.752   0.864  0.2220  0.3415  0.1817
28656W        W44465  18.857  10.588   0.057  0.0902  0.0467 -0.1008
28657W        W44466   0.919  12.996   2.320 -0.2410 -0.1387 -0.1734
28658W        W44467   0.896  15.126   2.133 -0.0355 -0.1377 -0.7427
28659W        W44468  13.867  13.163   2.576  0.0184  0.2441  0.0140
28660W        W44469   0.427   2.511   5.245 -0.0930  0.0208 -0.1456
28661W        W44470   8.984   0.264  12.301 -0.2393  0.1363 -0.0076
28662W        W44471  17.004   7.125  11.269  0.2761  0.1656  0.1360
28663W        W44472   4.480  10.657   1.632 -0.0990  0.2073 -0.4618
28664W        W44473  10.137   2.971   4.137  0.1937 -0.0219 -0.1860
28665W        W44474  14.965   2.558   2.858 -0.0937  0.0454 -0.1959
28666W        W44475  12.223  15.672   2.329 -0.3643  0.0655 -0.0069
28667W        W44476   2.698   8.009   3.004 -0.1067 -0.0031 -0.0651
28668W        W44477   3.077  14.231  11.775  0.3048 -0.0626 -0.1720
28669W        W44478  13.383  12.129  11.462  0.0545  0.2913 -0.1274
28670W        W44479   2.804   8.242  15.064 -0.0568 -0.1451 -0.1707
28671W        W44480   2.247  11.030   1.390  0.0016  0.0746 -0.2996
28672W        W44481   4.375   6.612   3.761 -0.2316  0.1443  0.0500
28673W        W44482  13.553   9.245   2.842  0.2056 -0.0616 -0.2292
28674W        W44483  16.983   2.678   1.369 -0.1086 -0.2245  0.1085
28675W        W44484   2.350   9.732  14.091 -0.4067  0.3495 -0.1082
28676W        W44485   2.887   8.407  12.466  0.1993 -0.0245 -0.0434
28677W        W44486  16.820  14.498  12.616  0.3266  0.1909  0.4109
28678W        W44487  12.118   6.505   5.411  0.0289  0.1823 -0.0131
28679W        W44488   3.170   7.283   3.156 -0.2155 -0.1309 -0.2232
28680W        W44489   6.064  13.875   2.211 -0.0002  0.4168 -0.0388
28681W        W44490  13.574  17.969   3.173 -0.3438  0.2997 -0.0622
28682W        W44491   6.992  16.778  12.949 -0.2498 -0.1843  0.0653
28683W        W44492   8.124   6.753   9.429  0.0635  0.0073  0.2877
28684W        W44493  17.941  10.864   4.475 -0.0146  0.0383 -0.0121
28685W        W44494   0.670   4.174   2.696 -0.0315 -0.1885  0.2198
28686W        W44495  10.479   9.528  14.912 -0.1635  0.1255 -0.0713
28687W        W44496  16.960  11.154   5.819 -0.0228  0.0270  0.0349
28688W        W44497  10.525   8.569  13.051 -0.0828 -0.2523 -0.0122
28689W        W44498  13.872   2.322  11.798  0.1712 -0.2126 -0.3570
28690W        W44499  16.462  15.067  15.303 -0.1958  0.1535  0.1103
28691W        W44500   3.754  12.876   3.312 -0.1620  0.3019  0.1337
28692W        W44501  12.387   5.425  14.342 -0.3169  0.1091 -0.3047
28693W        W44502  18.898  17.618  14.522  0.1898 -0.1462  0.0593
28694W        W44503   8.276   5.052   1.667  0.3454  0.1319  0.0292
28695W        W44504   4.651   4.361  12.529  0.0247 -0.0034  0.0010
28696W        W44505   0.810   3.002  13.212 -0.0174  0.1632  0.0695
28697W        W44506   6.395   6.426   3.445 -0.0107 -0.0990 -0.1121
28698W        W44507   1.100  16.195  10.938 -0.1360  0.0362 -0.1598
28699W        W44508  12.619   3.663   0.486  0.2224 -0.0651  0.1757
28700W        W44509   6.794   5.511   3.823 -0.2437 -0.1341 -0.3033
28701W        W44510   2.508  17.699   3.024  0.1042 -0.0094  0.3223
28702W        W44511  10.371   2.123  14.174  0.0173  0.0576  0.0595
28703W        W44512  12.325   7.800   0.618  0.0389 -0.0142  0.2080
28704W        W44513   0.745  17.466   0.609  0.1199 -0.0290  0.0491
28705W        W44514  15.736   3.359  13.508  0.0560  0.0666 -0.1207
28706W        W44515  17.401   2.769   3.820  0.2857 -0.0188 -0.1933
28707W        W44516   6.939   9.522   0.941  0.0620  0.2364 -0.2651
28708W        W44517  15.310  12.457   4.007  0.2221 -0.0065 -0.1245
28709W        W44518  13.482   7.544  11.127  0.1922  0.0096 -0.1923
28710W        W44519  18.383   6.618   3.983 -0.2131  0.1764 -0.0167
28711W        W44520   6.479   5.047   0.402  0.1769  0.4132  0.0784
28712W        W44521  14.267   7.881  11.338  0.0990  0.3203  0.0463
28713W        W44522  16.554  16.434  13.971  0.2868  0.2937 -0.1099
28714W        W44523   2.158  16.424  11.562  0.0154  0.3357  0.1054
28715W        W44524   3.364   5.463  11.480 -0.1869  0.0317  0.0644
28716W        W44525  11.190   2.656   1.147 -0.1193 -0.0792 -0.2718
28717W        W44526  18.078  14.081   0.065 -0.0977 -0.2175  0.1790
28718W        W44527  16.953  18.042  11.098  0.0317 -0.4032 -0.0113
28719W        W44528   5.752   3.339   4.140 -0.2370 -0.0228  0.2114
28720W        W44529  14.421   0.025   3.117  0.1316 -0.0824 -0.1104
28721W        W44530   4.074   8.122   1.945 -0.2243  0.1717  0.1439
28722W        W44531   7.839   6.017  10.381 -0.3153  0.0814  0.0359
28723W        W44532  16.963   0.231  13.499 -0.0433  0.0942 -0.0754
28724W        W44533  18.306   0.435  13.418  0.0928 -0.1254  0.3278
28725W        W44534   4.666   4.153  13.378 -0.0562  0.3918  0.1603
28726W        W44535   8.261   6.213  11.531  0.3665  0.3623  0.0349
28727W        W44536  17.471   4.166   0.173 -0.0545  0.0182 -0.1914
28728W        W44537  16.397  10.792  11.681 -0.1061  0.0114 -0.1448
28729W        W44538  14.212   1.685   2.808 -0.1402  0.0427  0.0566
28730W        W44539  10.319  12.916   5.688 -0.0768  0.0270  0.1855
28731W        W44540   3.328   6.013   1.967 -0.0770  0.0353 -0.0537
28732W        W44541   4.235  15.534  12.131  0.0130 -0.1097 -0.0602
28733W        W44542   2.904   6.931  12.100  0.1567  0.0471 -0.0658
28734W        W44543   2.369  11.753   1.465  0.1894  0.2965  0.3374
28735W        W44544   3.585   6.564   0.878  0.0124 -0.1130 -0.1367
28736W        W44545  10.365  13.266  11.402  0.0660  0.1128  0.0761
28737W        W44546   7.051  16.702  11.677 -0.3685  0.0481  0.0966
28738W        W44547   7.522   4.203  11.313  0.1311 -0.1007  0.1990
28739W        W44548  18.643  15.082   0.053  0.1729 -0.0760  0.0743
28740W        W44549  10.206   7.356   3.324 -0.0368 -0.0260 -0.1580
28741W        W44550  11.709   2.323   3.252 -0.0145  0.1685  0.2642
28742W        W44551   9.226  18.077   0.184  0.0364 -0.0552  0.1813
28743W        W44552   7.058   3.441   1.621 -0.0891  0.1034  0.0164
28744W        W44553   7.256  14.151   0.735 -0.0520  0.2800 -0.0616
28745W        W44554   1.340   1.180  13.408  0.2101 -0.3464 -0.1873
28746W        W44555   8.365  14.621  13.266 -0.0687 -0.2112  0.0911
28747W        W44556   8.297  10.195  11.129 -0.0016  0.3519  0.2455
28748W        W44557  13.080  12.904   4.376 -0.1662  0.1231 -0.2577
28749W        W44558   3.257  10.796  11.688 -0.1384 -0.0379 -0.1042
28750W        W44559   4.287  13.903  14.929  0.1427 -0.1899 -0.3233
28751W        W44560   8.347   3.337   6.022 -0.2786  0.1188 -0.0467
28752W        W44561   2.584   4.035   4.599  0.0466  0.2604  0.0599
28753W        W44562   0.399   4.028  14.645  0.1990  0.0785  0.1712
28754W        W44563   2.341  11.384   3.248  0.1401 -0.1290  0.2439
28755W        W44564  11.247  11.420   1.435 -0.2292  0.0883  0.0948
28756W        W44565  10.182   2.438  13.710  0.0093 -0.1212  0.1051
28757W        W44566  18.247  14.972   4.581  0.0318  0.0938  0.0551
28758W        W44567   1.169   4.292  10.893  0.1924  0.1195 -0.1128
28759W        W44568   7.158   9.383   2.418  0.1339 -0.1671  0.4605
28760W        W44569  17.123  17.214   4.808 -0.2018  0.2762  0.0532
28761W        W44570   5.575  15.647   2.328  0.3578  0.1808 -0.1590
28762W        W44571  15.598  13.420  11.844  0.2073  0.0036 -0.0387
28763W        W44572   5.213  14.165  12.468 -0.0544 -0.0166  0.1432
28764W        W44573  16.862  10.617  11.453  0.0655 -0.0424 -0.0689
28765W        W44574  17.238   0.893  12.217  0.1026  0.0132  0.2481
28766W        W44575  17.464   3.220  12.339 -0.0006 -0.1114 -0.0880
28767W        W44576   3.386  11.154   3.789 -0.1967  0.1899  0.1367
28768W        W44577  11.229  14.988  11.995  0.3342 -0.2807  0.2499
28769W        W44578   0.690  14.634   4.094  0.1521  0.4541 -0.0466
28770W        W44579   2.011   4.374  11.500  0.3609 -0.2071 -0.2171
28771W        W44580   2.611   4.171   1.911  0.0170  0.0687 -0.0027
28772W        W44581   1.289   4.164  12.563  0.3493  0.0000 -0.1806
28773W        W44582   2.434  13.905   3.306  0.1504 -0.0489 -0.2778
28774W        W44583  16.016  15.914  12.577 -0.1891  0.2552 -0.1961
28775W        W44584  10.501   4.604   2.602  0.1199  0.1778  0.0922
28776W        W44585  12.364  17.313  12.987  0.0887 -0.1221 -0.0231
28777W        W44586   7.718   8.776   2.844  0.0594  0.1510  0.1401
28778W        W44587   4.106   4.171   0.485 -0.4453  0.0013  0.0097
28779W        W44588  13.640   6.163   3.495 -0.0090 -0.0268 -0.1202
28780W        W44589   6.594   9.142  14.501 -0.2674 -0.1444  0.2557
28781W        W44590  14.559   2.378   4.288 -0.1671 -0.1258 -0.2612
28782W        W44591   5.977  15.056  10.627  0.4238 -0.2540 -0.3196
28783W        W44592  12.703  14.995  13.514  0.2988  0.3868  0.0037
28784W        W44593   3.939   9.824   4.736  0.1435  0.0870 -0.1856
28785W        W44594   8.097   0.920  12.225  0.2389  0.0848 -0.2459
28786W        W44595   4.737  18.714   2.899 -0.1053 -0.0109 -0.0849
28787W        W44596  17.388   7.289   2.421  0.1227 -0.0504 -0.0097
28788W        W44597   1.956   3.220   0.912 -0.2400 -0.0764  0.0476
28789W        W44598  18.686   7.178  10.725  0.0131 -0.0533 -0.0311
28790W        W44599  14.730  10.506  14.268  0.0177  0.3706  0.0128
28791W        W44600  18.728  17.713   0.668 -0.0197 -0.0526 -0.1613
28792W        W44601  13.603  16.743  13.531  0.0881 -0.3922  0.1381
28793W        W44602  18.831   2.052   0.541 -0.0903 -0.1570  0.0342
28794W        W44603   9.076   7.639   0.801 -0.0045 -0.0010  0.1768
28795W        W44604  11.049   0.158   4.533  0.1030 -0.0966 -0.0536
28796W        W44605   8.102   6.250   0.108  0.0663 -0.1901  0.3294
28797W        W44606  11.735   3.372   4.816  0.1522 -0.1118 -0.2491
28798W        W44607  12.974  12.526   5.302  0.0027 -0.2322  0.0199
28799W        W44608   8.579   9.263  14.778  0.3140  0.1279  0.1094
28800W        W44609  11.461  12.494  13.431  0.1219 -0.2761 -0.0429
28801W        W44610  13.247  18.625  15.238  0.5245  0.1155 -0.0847
28802W        W44611  18.246   2.829   2.482 -0.0204  0.4107 -0.1067
28803W        W44612  16.225   4.256  13.102  0.1570  0.2215  0.0597
28804W        W44613   2.391  16.974   2.577  0.0114 -0.4405 -0.2480
28805W        W44614   5.441  12.326   1.696  0.1622 -0.1620 -0.1818
28806W        W44615   7.460  13.835   4.437 -0.1641  0.1136  0.1462
28807W        W44616  13.097   4.491   4.563 -0.1435 -0.2244 -0.0709
28808W        W44617   6.060   4.688   4.676 -0.2108 -0.0074  0.0560
28809W        W44618  18.739  16.762   0.546 -0.2460  0.1326  0.1879
28810W        W44619  17.599   1.961   0.851  0.0383  0.1256  0.1314
28811W        W44620   8.593   1.023  13.771 -0.1983  0.2140 -0.1766
28812W        W44621   9.404   9.398  14.635 -0.0727 -0.1196 -0.2851
28813W        W44622  15.320   6.598  11.026  0.0380  0.0150 -0.0643
28814W        W44623  13.156   5.540  15.166 -0.0050  0.4518 -0.2591
28815W        W44624   9.326  18.389  12.297 -0.2688 -0.0259  0.2673
28816W        W44625   4.461  17.380   1.200 -0.1209  0.0348 -0.6553
28817W        W44626  10.703  18.233  14.095 -0.0446 -0.1879 -0.1793
28818W        W44627  10.051   2.788   3.660 -0.2595 -0.1816  0.0023
28819W        W44628  11.220  15.155  11.404 -0.0855  0.0930  0.1559
28820W        W44629  15.735  16.515   4.869  0.0103  0.0153 -0.2745
28821W        W44630   3.449   1.481  10.699  0.1910 -0.0619 -0.0545
28822W        W44631  12.838   1.122  11.722 -0.1732 -0.2354  0.2870
28823W        W44632   5.813  14.177  11.499  0.1976  0.0075 -0.0807
28824W        W44633   9.041   1.416   3.582  0.2091 -0.3930  0.3207
28825W        W44634  12.517  18.619   4.328 -0.0310  0.1882  0.0378
28826W        W44635  14.664  16.171  12.746 -0.2187 -0.0156  0.0880
28827W        W44636   6.596  14.971   1.649 -0.0725 -0.1860 -0.0730
28828W        W44637   0.289  16.879  14.014 -0.0459 -0.1065 -0.2105
28829W        W44638   3.899   0.654   2.485 -0.2848  0.1254  0.1062
28830W        W44639  15.529  10.214  14.277  0.0805  0.1479  0.1386
28831W        W44640  16.833  12.145  11.372 -0.0305 -0.1122 -0.2152
28832W        W44641  13.639  11.011  15.049 -0.0850 -0.0214 -0.0093
28833W        W44642  13.376   8.529  13.046 -0.1919 -0.4443  0.2798
28834W        W44643  10.073   2.393   2.720 -0.1049  0.1193 -0.0486
28835W        W44644   7.715   7.064   1.055  0.0403  0.2913 -0.0956
28836W        W44645   1.615   5.235   3.497  0.0972 -0.0581  0.4867
28837W        W44646  14.440   9.692  10.962 -0.0263  0.5253 -0.0455
28838W        W44647   3.944   2.844  12.404 -0.0141  0.1623  0.0575
28839W        W44648   0.741   6.029  14.505 -0.0464 -0.1097 -0.1564
28840W        W44649  15.637  16.026   0.107 -0.0982  0.1561 -0.0636
28841W        W44650   5.066   0.351   2.790  0.1429  0.0013  0.1047
28842W        W44651   7.188   0.910   0.711 -0.2803 -0.0692 -0.1373
28843W        W44652   6.220  18.502  11.961  0.2128  0.0132  0.0512
28844W        W44653  14.550   6.242  12.410  0.0342 -0.2932 -0.1896
28845W        W44654   0.342  15.279   1.733 -0.2639 -0.4327  0.0547
28846W        W44655  11.243  15.989  10.393 -0.2022  0.1086 -0.1578
28847W        W44656  17.164   1.429  15.344 -0.0173  0.2160  0.0197
28848W        W44657   9.825  15.270  10.847  0.0179  0.0043 -0.0876
28849W        W44658  10.038  12.803  11.190  0.2246  0.2631  0.0240
28850W        W44659  12.172   4.227  10.679 -0.0683 -0.0928  0.0732
28851W        W44660  17.819  13.277   1.420  0.0123  0.1221  0.3979
28852W        W44661   8.053   1.678  13.341  0.0556  0.2789 -0.1239
28853W        W44662  16.731   2.177   0.233 -0.2855 -0.1041  0.0311
28854W        W44663   0.799  13.384   0.960  0.2595 -0.1596  0.0226
28855W        W44664   8.668   0.424  11.465 -0.1953  0.0410 -0.2646
28856W        W44665   5.866  11.295  14.423  0.1137 -0.0935 -0.3150
28857W        W44666   1.290  18.696  13.122  0.2106  0.0226  0.0072
28858W        W44667   2.372   7.650  13.053  0.2949  0.1496 -0.0949
28859W        W44668   1.166   9.000  12.668  0.0508  0.1323 -0.0424
28860W        W44669   8.880  11.519  10.726 -0.1581 -0.1279  0.0287
28861W        W44670   6.899   4.205   0.102 -0.2432 -0.1065  0.0855
28862W        W44671  13.373   4.486  12.400  0.1292 -0.0254  0.2283
28863W        W44672   7.360   7.846  13.405  0.2965 -0.2514 -0.0196
28864W        W44673  12.601   8.730  15.088  0.2517 -0.0312  0.1711
28865W        W44674   7.298  17.087  11.106 -0.0953  0.0524 -0.1923
28866W        W44675  14.603   5.800  15.197 -0.1509  0.2466 -0.1231
28867W        W44676  11.181  15.352   1.425  0.0057  0.0612 -0.3421
28868W        W44677  17.711   1.080   4.604  0.0408  0.2032  0.0496
28869W        W44678  12.024  16.351   2.351  0.0639 -0.0124 -0.0942
28870W        W44679  18.907  17.311   4.004  0.1872  0.2392 -0.0012
28871W        W44680   8.683   7.549  14.578  0.2009  0.0482  0.1067
28872W        W44681   8.100  13.335  14.074 -0.3278  0.0794 -0.2455
28873W        W44682   9.334   2.336  14.954 -0.0150  0.2435 -0.3078
28874W        W44683  15.255   0.000  11.685 -0.0301  0.0290  0.0168
28875W        W44684   4.875  14.580  11.502  0.0361 -0.3157 -0.1917
28876W        W44685  17.712  13.480   3.635 -0.3162  0.1391  0.2439
28877W        W44686   3.573  14.707   2.683  0.1836  0.0963 -0.4037
28878W        W44687  16.652  14.455  13.094  0.0517  0.0500 -0.1304
28879W        W44688  10.556   0.708  13.199  0.1564 -0.4671  0.0268
28880W        W44689   0.778  18.776   4.703 -0.2159 -0.0634 -0.1662
28881W        W44690   2.627  16.529   2.828  0.0665 -0.0231  0.1977
28882W        W44691   6.329  12.990   5.005 -0.0733 -0.0329 -0.0125
28883W        W44692   9.773   3.670   0.693 -0.1134 -0.1289 -0.3337
28884W        W44693   9.874   7.322  10.887 -0.0249 -0.0784 -0.1857
28885W        W44694   9.127  10.097  12.607  0.3941 -0.4192 -0.2418
28886W        W44695   3.201  15.355   3.842 -0.1293 -0.0501  0.0121
28887W        W44696  10.460   8.076  14.181 -0.1181  0.0892 -0.2420
28888W        W44697  14.562  10.077   0.693 -0.1268  0.0490  0.2535
28889W        W44698   7.360   1.551   3.357  0.2760  0.3590 -0.3025
28890W        W44699   7.931   2.554   1.709  0.0645  0.0814  0.2891
28891W        W44700   0.714   4.585   0.695  0.0013  0.0781 -0.1792
28892W        W44701   8.363   3.104  10.487  0.0725 -0.0532  0.0386
28893W        W44702   2.668   3.842  11.604 -0.0726 -0.2354 -0.1393
28894W        W44703  14.431  12.180  13.671  0.0766 -0.1940  0.0855
28895W        W44704   1.124  14.490   3.177  0.0976  0.0865  0.1204
28896W        W44705  18.308   7.998  15.255 -0.1420  0.0580 -0.0130
28897W        W44706  12.878  14.929   3.035  0.1687  0.0246 -0.0622
28898W        W44707  17.379  18.648  10.228 -0.3172 -0.2636  0.2259
28899W        W44708   6.825   8.952  14.027  0.1433 -0.2626  0.1565
28900W        W44709   4.293  14.067   4.070 -0.0184  0.4019  0.0219
28901W        W44710   7.583   3.231   0.471  0.0917  0.1673  0.3251
28902W        W44711   8.467   6.956  13.865 -0.0851  0.2157  0.1457
28903W        W44712  18.117  16.464  13.590 -0.1742 -0.1236 -0.0390
28904W        W44713  18.017  16.432  13.137 -0.1111 -0.0952 -0.0304
28905W        W44714  14.241   2.972  14.095  0.1510 -0.1390 -0.2873
28906W        W44715   2.032   5.858  14.472 -0.5164 -0.3001  0.0679
28907W        W44716  15.293   4.908   4.021  0.0890 -0.2576  0.1917
28908W        W44717   3.589  18.232  13.704  0.0067  0.4690  0.0860
28909W        W44718  12.853  15.273   2.444  0.1716  0.2092  0.0272
28910W        W44719   5.404   0.138   0.140 -0.3102  0.0338  0.3248
28911W        W44720  17.333  16.578   3.582  0.4510 -0.1234 -0.1639
28912W        W44721   3.318   7.189  11.494 -0.0004 -0.0281  0.1639
28913W        W44722   5.179  11.185  11.557  0.0459 -0.0407 -0.0959
28914W        W44723   5.103  16.052  14.466 -0.1073  0.0298  0.1977
28915W        W44724  14.587   4.361  13.627 -0.0712  0.1679 -0.0420
28916W        W44725   2.805   8.623   0.868  0.2030  0.4651  0.0081
28917W        W44726  11.290  12.420  11.804 -0.1397  0.1273  0.1163
28918W        W44727   9.400  16.873   0.521  0.1526 -0.2304  0.1222
28919W        W44728   3.861  13.649   1.688  0.0402  0.3269  0.1416
28920W        W44729  13.330   3.544   5.020  0.1415 -0.1858 -0.0809
28921W        W44730   5.351   2.339  11.501  0.2182  0.0643 -0.2829
28922W        W44731  10.680   1.264  13.293 -0.1972  0.1742 -0.1573
28923W        W44732   9.366   8.334  11.743  0.1133  0.1372 -0.2000
28924W        W44733   4.472  13.405  12.258 -0.0052 -0.0783 -0.0061
28925W        W44734   0.269   7.732   2.063  0.1153 -0.2646 -0.0432
28926W        W44735   3.425  16.160  10.609  0.2164  0.1305 -0.1084
28927W        W44736   4.957  15.246   0.616 -0.0260 -0.0016  0.0420
28928W        W44737  12.876  15.430   2.909  0.0522  0.1942 -0.2593
28929W        W44738  15.016  13.119   1.434 -0.1222  0.0119 -0.1621
28930W        W44739  18.032   4.642  15.116 -0.1884  0.0234  0.0119
28931W        W44740   1.803  10.225   1.349 -0.0443  0.0237  0.1746
28932W        W44741   1.293   6.112   3.396  0.1801  0.0238  0.2142
28933W        W44742  10.617   2.701   1.436 -0.3923 -0.0146  0.1392
28934W        W44743  16.754   5.818  14.885  0.2853  0.1408 -0.2014
28935W        W44744   9.007   2.432   0.653  0.2136  0.0945 -0.1724
28936W        W44745  17.141  14.354   2.248 -0.0803  0.2426 -0.0509
28937W        W44746   7.848   4.581  11.323 -0.1588  0.1884 -0.1619
28938W        W44747  10.297  15.284   3.008 -0.3267  0.0708  0.3006
28939W        W44748   1.079  11.665   0.262  0.1012  0.0470 -0.1085
28940W        W44749   1.237   4.047  15.308  0.0116  0.0186  0.2175
28941W        W44750  13.589  18.444   1.203 -0.3073  0.0730  0.0186
28942W        W44751   9.957  16.092  14.183 -0.1291  0.1762  0.0779
28943W        W44752  14.113   8.869   3.642 -0.4198 -0.2614  0.2708
28944W        W44753   0.581   4.964  12.604 -0.1462  0.1854  0.0904
28945W        W44754  14.655   0.994   3.787 -0.0615  0.0147 -0.2917
28946W        W44755  10.198  18.181  12.035 -0.0499 -0.1337  0.1815
28947W        W44756   0.383   8.637   2.335  0.3159 -0.0564  0.4307
28948W        W44757   3.635  10.331   5.586  0.0169  0.0839 -0.2724
28949W        W44758  17.071  16.239  10.057  0.1421 -0.2813 -0.0688
28950W        W44759   6.459  14.469  13.559  0.0309  0.0308 -0.4644
28951W        W44760  18.292   5.652  15.015 -0.1132  0.2222 -0.3166
28952W        W44761  15.103   4.665  13.525  0.0184 -0.0847  0.0366
28953W        W44762   9.437   2.083   6.082  0.0003  0.0461 -0.0489
28954W        W44763   3.605   3.076   5.683  0.0553  0.1080  0.2745
28955W        W44764  18.777   5.097  13.607 -0.1433 -0.2418 -0.0120
28956W        W44765  18.763   1.509  13.027  0.0401 -0.1996  0.0116
28957W        W44766  13.564  14.501  14.842  0.2185 -0.4409  0.0093
28958W        W44767   8.420  17.834  12.209  0.0304  0.0115  0.2328
28959W        W44768  18.542   7.842   3.428  0.0431  0.0465 -0.0204
28960W        W44769   9.691   8.628   2.495 -0.1530 -0.2511  0.3333
28961W        W44770  14.006  16.371   2.543  0.0730  0.1636  0.1359
28962W        W44771   2.233  11.142  13.097  0.1092 -0.0712 -0.1389
28963W        W44772  16.979   7.328   4.810 -0.5486  0.0314  0.1916
28964W        W44773   8.300  10.828   2.705 -0.0232  0.1785  0.2276
28965W        W44774   3.917  12.423   2.333 -0.1171 -0.2951 -0.2074
28966W        W44775  15.141   3.801  10.714 -0.1649 -0.2712 -0.3273
28967W        W44776   8.731  14.253  13.229  0.1229  0.1052 -0.2333
28968W        W44777   7.788  11.763  11.328 -0.0218 -0.0222 -0.1807
28969W        W44778  12.667  11.731   3.003 -0.3809 -0.0348  0.2067
28970W        W44779   1.159   8.764   0.228 -0.2108 -0.1809  0.0752
28971W        W44780   1.314  12.575   4.213  0.0702  0.4141 -0.0679
28972W        W44781   9.341  12.511   4.254 -0.0645 -0.2767 -0.1491
28973W        W44782  13.431   6.677  14.363 -0.0647  0.4381  0.0384
28974W        W44783   2.612   1.538   5.403  0.1832 -0.0284 -0.2997
28975W        W44784   2.305   0.745   2.536  0.0224  0.1015 -0.0019
28976W        W44785  14.994   3.175  11.286  0.1924  0.6299 -0.0217
28977W        W44786   2.253   3.101   1.323 -0.1423 -0.1388 -0.0508
28978W        W44787   2.478   3.474   0.129 -0.1074 -0.1720 -0.1102
28979W        W44788  11.641  13.014   2.954 -0.0897 -0.0114 -0.2283
28980W        W44789  10.152  15.536  12.831 -0.1239 -0.0986  0.0312
28981W        W44790   7.129  16.783  15.439 -0.0241  0.1448 -0.1571
28982W        W44791  13.846  15.206  11.225 -0.0222  0.0097 -0.2144
28983W        W44792  14.000   1.059   2.286  0.0512  0.0126  0.0655
28984W        W44793   4.381  14.120  13.512 -0.2309 -0.0792  0.1395
28985W        W44794   4.454   9.152   2.776 -0.1757 -0.0475 -0.1995
28986W        W44795  16.924   2.435   3.184 -0.0370 -0.0622 -0.1903
28987W        W44796   6.246  13.709  13.219 -0.0414  0.0428  0.3314
28988W        W44797   1.039  11.739   3.210 -0.1047  0.4654 -0.1028
28989W        W44798  12.083  11.073   3.995 -0.0685  0.2989 -0.1662
28990W        W44799  11.075   5.648  11.775 -0.4644 -0.1386  0.1869
28991W        W44800   9.424   7.044  13.054  0.0855  0.0284 -0.1462
28992W        W44801   6.671   9.996   0.984 -0.1295 -0.1281 -0.1167
28993W        W44802   8.109   5.431  13.411 -0.1803  0.1009 -0.4901
28994W        W44803  13.522   3.169  15.229  0.1268  0.1493 -0.1814
28995W        W44804   5.495  13.515   4.037  0.1438 -0.0554  0.0738
28996W        W44805  16.173   6.453  11.095 -0.0321 -0.0924  0.5555
28997W        W44806  13.360   1.332   3.769 -0.0162  0.2226 -0.3754
28998W        W44807   5.607   7.323  10.644  0.2898  0.2586  0.0256
28999W        W44808  17.680  10.560   4.757 -0.0501  0.1464  0.3008
29000W        W44809  10.466  10.561   0.792  0.0395 -0.1688  0.0915
29001W        W44810  11.914   7.230  11.625 -0.0559 -0.1785  0.1977
29002W        W44811  10.797   3.617  15.245  0.4394  0.0241 -0.3464
29003W        W44812   5.471  12.086  10.487  0.5253  0.3703 -0.0819
29004W        W44813   2.117   6.008  13.620  0.3325 -0.1048  0.1246
29005W        W44814   2.245   4.502   3.729  0.0429  0.1718 -0.1177
29006W        W44815  15.870   3.497   4.383  0.1910  0.1230  0.2161
29007W        W44816   7.757  11.821  12.867 -0.1236 -0.4679 -0.2415
29008W        W44817  11.875  17.616  10.951  0.0123 -0.0212 -0.1244
29009W        W44818   4.993   7.129   5.519 -0.3393  0.3094  0.4650
29010W        W44819   3.200  17.628  12.397 -0.2332  0.0183  0.2525
29011W        W44820   4.890  18.646  13.771  0.2051 -0.1888  0.1747
29012W        W44821  13.858   7.877   1.842 -0.1652 -0.0580 -0.1973
29013W        W44822   6.753   4.644  13.281  0.3036  0.1466  0.0631
29014W        W44823  13.896   4.630  11.823 -0.0441 -0.3981  0.2495
29015W        W44824  15.012   9.215  11.270 -0.2112  0.1828 -0.1151
29016W        W44825  11.792   2.059   5.120  0.1796 -0.0196  0.0061
29017W        W44826  15.489  17.492   2.878 -0.3665  0.0190 -0.2572
29018W        W44827  15.992   0.060  13.015  0.2857  0.3670 -0.2691
29019W        W44828   1.233   0.438  11.028  0.1018 -0.0417  0.0084
29020W        W44829   6.764   3.044   2.688 -0.0475  0.2047 -0.3017
29021W        W44830   8.760  12.417   4.960  0.1636  0.2596  0.4846
29022W        W44831   2.213  15.520   4.419 -0.3015 -0.3111  0.0098
29023W        W44832   6.758   0.131   0.321  0.2479  0.2535 -0.0436
29024W        W44833   0.118   1.737   3.649  0.0961  0.1914  0.0394
29025W        W44834  14.883  15.022   3.003 -0.1008  0.1653  0.1054
29026W        W44835  10.358   6.358   1.780  0.2411  0.2345 -0.3008
29027W        W44836  10.727   8.312   0.573  0.0234  0.1964 -0.0749
29028W        W44837   7.152  18.221   0.441 -0.3429 -0.1350 -0.1101
29029W        W44838   4.914  12.229  14.375 -0.0566  0.1686  0.0440
29030W        W44839   4.815   5.949   2.801  0.3501 -0.1962  0.1014
29031W        W44840   1.927  18.727   2.911 -0.3360  0.1318  0.0388
29032W        W44841   3.009  18.641   0.274 -0.0586 -0.1193  0.3996
29033W        W44842  12.135  15.733   4.202 -0.2955  0.1075 -0.1350
29034W        W44843  12.591  14.456  13.638 -0.2055 -0.2444 -0.2657
29035W        W44844  13.261  17.080   2.032 -0.1207 -0.0162  0.1961
29036W        W44845  15.178  11.112  14.440 -0.2669  0.3164  0.1652
29037W        W44846  14.183  10.457  14.623  0.0534 -0.0518 -0.0562
29038W        W44847  12.511   1.473  12.592  0.0721 -0.3014 -0.4550
29039W        W44848   5.084  16.489  12.284 -0.0972 -0.0635 -0.1679
29040W        W44849   2.414  17.818   0.446  0.0962 -0.0152 -0.0645
29041W        W44850   8.322   0.508   1.869  0.0861 -0.2389  0.0014
29042W        W44851  12.387   2.415   0.277  0.4198  0.1613  0.0438
29043W        W44852  15.476   0.288   0.780  0.0300 -0.2751 -0.3644
29044W        W44853   1.928   1.835  12.198 -0.1713 -0.0970 -0.1067
29045W        W44854   8.399  12.194   3.144 -0.0929  0.0541 -0.2874
29046W        W44855   2.242   6.162  14.146 -0.2093  0.1759  0.2983
29047W        W44856   0.755  10.052   2.836  0.0069 -0.0222  0.0250
29048W        W44857   4.565  17.733   3.938 -0.2366 -0.1621  0.0052
29049W        W44858   9.430  10.058   3.621 -0.0740  0.0277  0.2555
29050W        W44859   8.621   8.602   0.853 -0.3537 -0.0581  0.1257
29051W        W44860   4.368  13.736  11.289  0.1286  0.0225 -0.1549
29052W        W44861   9.217   2.342  13.474 -0.1028 -0.1504  0.1056
29053W        W44862   0.443  14.229   4.797 -0.2686 -0.0444 -0.3176
29054W        W44863   5.242   3.078  10.649 -0.0499 -0.1005 -0.0349
29055W        W44864  10.470  13.313  10.564 -0.1451  0.0798 -0.2461
29056W        W44865   5.952  12.479  13.539 -0.1798  0.1623  0.2344
29057W        W44866   9.753   5.409  14.001 -0.0224  0.1172 -0.0114
29058W        W44867   6.509  17.350   1.219  0.0120  0.2162 -0.2935
29059W        W44868  11.673   7.784   5.158 -0.0772  0.0182 -0.0075
29060W        W44869  18.219   8.274  10.626  0.0333 -0.0201  0.0308
29061W        W44870   7.042  10.683  10.480  0.0818  0.2635 -0.1736
29062W        W44871  18.029   4.006   0.115  0.1315  0.1322 -0.1244
29063W        W44872  11.947  11.219   0.670  0.0499 -0.1391  0.0739
29064W        W44873  17.522  17.657   1.711 -0.3822  0.1495 -0.0246
29065W        W44874   1.494   4.453   3.072 -0.0898 -0.2123  0.0474
29066W        W44875  15.632   5.553   1.504  0.0508  0.0170 -0.1532
29067W        W44876  18.321   9.326  14.531  0.2198  0.0223 -0.0709
29068W        W44877  15.662  13.535   0.593  0.3013  0.2140  0.1738
29069W        W44878  14.725  14.651  13.161  0.1523  0.0311 -0.1527
29070W        W44879   5.330  13.616  12.004 -0.0279  0.0424 -0.2800
29071W        W44880   7.670  11.966  10.772  0.0166 -0.0816  0.3415
29072W        W44881  12.562  15.275  15.321  0.0044  0.2954 -0.0513
29073W        W44882  12.697  18.066   3.140 -0.0425  0.0457 -0.4713
29074W        W44883   3.163  11.913   0.268  0.2529  0.0313  0.1555
29075W        W44884   8.852  14.684   0.273  0.3815  0.1467 -0.0621
29076W        W44885  14.003  16.463   0.026  0.1190  0.0433  0.3897
29077W        W44886   4.383   8.239  14.311  0.0664 -0.0449 -0.0993
29078W        W44887   3.302  13.137  10.970 -0.5968 -0.2230  0.1944
29079W        W44888  13.375  16.470  13.177  0.1025  0.2567  0.0199
29080W        W44889  15.982  18.682   1.900 -0.1127 -0.3570 -0.0519
29081W        W44890   0.368   7.251   1.684 -0.4680 -0.1100  0.1520
29082W        W44891  13.206   7.498   5.187 -0.1183 -0.0436  0.0746
29083W        W44892   1.387  12.084   4.150 -0.0787 -0.3113  0.0775
29084W        W44893   7.183  13.093  10.716  0.1657  0.0135  0.0319
29085W        W44894   8.108   7.682   1.792 -0.3984  0.0909 -0.0962
29086W        W44895  13.941  17.928   3.556 -0.0267 -0.1116 -0.1339
29087W        W44896   6.106  16.964  14.047 -0.0757  0.1282 -0.0204
29088W        W44897   2.428   6.667   3.662  0.0321 -0.2668  0.1060
29089W        W44898   5.660   2.581   2.016  0.1067  0.3495 -0.1336
29090W        W44899  17.479   3.969   4.994 -0.3460  0.1949 -0.3271
29091W        W44900   9.923  12.120  11.970 -0.2402  0.0855  0.1824
29092W        W44901   5.299   8.290  10.531  0.0072  0.2186  0.1486
29093W        W44902  10.196   4.845   1.860  0.1560 -0.0176  0.0027
29094W        W44903   6.017   7.451   4.525 -0.0707  0.2834  0.2735
29095W        W44904   7.608   1.347   2.048  0.2637  0.2478 -0.1792
29096W        W44905  15.122  17.103   0.068  0.0436 -0.0614  0.0364
29097W        W44906   8.872  12.531   0.661  0.1439  0.1692 -0.0669
29098W        W44907  14.988   7.441  13.512  0.1180  0.1234 -0.0005
29099W        W44908  12.251   6.470  15.221  0.0598  0.0817  0.0563
29100W        W44909   5.008   2.299  14.128  0.2194 -0.2700 -0.0411
29101W        W44910  16.281  14.192  14.581  0.1733 -0.3303 -0.1941
29102W        W44911  10.604  10.584  13.967 -0.1695  0.0402 -0.3647
29103W        W44912  13.202  17.200  10.116  0.3652  0.1052 -0.2694
29104W        W44913  14.676   0.931  14.281  0.0215  0.0987 -0.3593
29105W        W44914   8.796   4.675  13.118  0.2017  0.0892 -0.0037
29106W        W44915  18.004  15.538   2.909 -0.3247 -0.1507 -0.2297
29107W        W44916   8.225   0.103  11.390 -0.2619  0.1147 -0.1403
29108W        W44917  15.619  12.282   3.070 -0.0140 -0.1490 -0.1409
29109W        W44918   6.743   1.932   3.785 -0.1043  0.4380  0.0841
29110W        W44919  15.318   8.476  11.929  0.0769 -0.1087  0.0983
29111W        W44920   9.515  16.233  12.391 -0.1786  0.1554 -0.4876
29112W        W44921   4.608  12.636   1.697 -0.2964 -0.0540 -0.3341
29113W        W44922   4.049   0.440   0.857 -0.2135 -0.0381 -0.0568
29114W        W44923  16.082  11.313   2.633 -0.0926  0.2193  0.0929
29115W        W44924   3.632  15.879  11.569  0.2232 -0.1638  0.0417
29116W        W44925   6.358  18.641   1.850 -0.3484  0.3193 -0.1275
29117W        W44926  17.604   1.532   2.690  0.4103  0.0864  0.1244
29118W        W44927   7.363   9.333  11.777  0.0108 -0.1495  0.3015
29119W        W44928  16.101   2.535  15.402  0.0864  0.3202 -0.0500
29120W        W44929  10.531  17.707   5.092  0.0486 -0.1448 -0.1450
29121W        W44930  15.455  17.088   2.097 -0.0060  0.1096  0.2781
29122W        W44931   6.504   0.004   2.729  0.2069 -0.1783  0.1002
29123W        W44932  17.050  13.142  15.147  0.1477 -0.0210 -0.1747
29124W        W44933  18.166   7.838   1.011 -0.0524  0.4717  0.1294
29125W        W44934  14.366  13.876  14.418  0.1388  0.2070 -0.1281
29126W        W44935  17.599  17.542  10.706  0.1807  0.0696  0.4113
29127W        W44936   7.567   5.442   9.445  0.3152  0.4133  0.0099
29128W        W44937   9.002   3.812   0.721  0.1472 -0.2685 -0.4365
29129W        W44938   3.739   3.834  13.271 -0.0221 -0.0060  0.1673
29130W        W44939   3.527  12.899   4.343  0.1615  0.0573  0.2401
29131W        W44940   3.517  12.513   3.549  0.1212  0.0617  0.1665
29132W        W44941   9.613  11.142   2.981 -0.2557 -0.1554  0.0302
29133W        W44942   9.599   3.905   4.936 -0.1497 -0.0785  0.2499
29134W        W44943   2.624  15.973  10.522 -0.0006  0.0580  0.1457
29135W        W44944  16.903   4.106   0.233 -0.4388  0.1530 -0.1806
29136W        W44945   8.473   9.254   5.644  0.1500 -0.1909  0.0531
29137W        W44946   2.200   9.486  13.642  0.3366 -0.0873  0.1220
29138W        W44947   3.291  12.779   1.202 -0.0736 -0.1449  0.0029
29139W        W44948   9.979   5.461  15.094 -0.0570  0.0229  0.2994
29140W        W44949  13.212   9.141  10.940  0.2090 -0.0126 -0.1750
29141W        W44950  12.377   8.652   3.736 -0.1547  0.0472 -0.0714
29142W        W44951  15.171   5.225   3.621  0.1235 -0.3729  0.1037
29143W        W44952   6.547  18.071   3.277  0.0953 -0.0877 -0.3554
29144W        W44953   4.131  10.177   0.389  0.1339 -0.2325  0.1344
29145W        W44954   4.928  13.161  10.701 -0.1097 -0.3566  0.2628
29146W        W44955   9.633   2.721   1.897 -0.0243 -0.1898  0.0031
29147W        W44956   3.362   0.685  11.749  0.3678  0.0434  0.2902
29148W        W44957   0.432   4.177   4.070 -0.1603 -0.0680 -0.2563
29149W        W44958  10.723  11.655  11.037  0.1566  0.2583 -0.0902
29150W        W44959   5.006   4.734  10.635  0.1373 -0.1361 -0.2248
29151W        W44960  14.244   3.557  14.697  0.2094 -0.0924 -0.0695
29152W        W44961   9.359   8.643  13.021  0.0766 -0.1559  0.0796
29153W        W44962   0.489  13.693   0.246 -0.0509  0.1094  0.4221
29154W        W44963   6.771   7.747   1.542 -0.0123 -0.2236 -0.0764
29155W        W44964  13.026  11.264  13.412 -0.1277 -0.0638 -0.0391
29156W        W44965  18.719  15.004  12.858  0.0872 -0.1394  0.1479
29157W        W44966   6.419  15.452   3.390 -0.0878  0.0084  0.0255
29158W        W44967   2.451  15.554  12.231 -0.2185 -0.2287 -0.0029
29159W        W44968   4.607   0.045   2.061 -0.2074 -0.3156 -0.0629
29160W        W44969  17.476   9.306   0.274  0.0273  0.3088  0.2131
29161W        W44970  13.373  13.842   0.404  0.0932 -0.1565 -0.5288
29162W        W44971  17.179   0.571  12.563 -0.1236 -0.0454 -0.1318
29163W        W44972   0.964   4.413   3.732 -0.1154  0.2515  0.1073
29164W        W44973   9.390  15.074   3.918  0.2180  0.0474  0.0733
29165W        W44974   3.243  11.296   1.003  0.0783  0.0814 -0.0684
29166W        W44975  11.547  15.933   4.080  0.0414 -0.0562  0.0505
29167W        W44976   9.829  10.715   1.218 -0.4403 -0.0223 -0.0575
29168W        W44977   7.233   7.391  15.216 -0.0266 -0.0101 -0.1536
29169W        W44978  14.906   2.593  14.527 -0.2076  0.3076  0.2337
29170W        W44979   1.626   8.563   3.989  0.0365 -0.0130  0.1143
29171W        W44980  10.013   4.435   1.586 -0.0992 -0.0788 -0.0462
29172W        W44981  13.320   5.443   1.395 -0.1954 -0.1245  0.1896
29173W        W44982  11.580  18.885  15.403  0.0791  0.1612 -0.2345
29174W        W44983  18.277  11.093  10.239  0.2124 -0.1390 -0.1844
29175W        W44984   9.058  16.213   0.523  0.0524  0.2553  0.0948
29176W        W44985   6.292   4.785  13.261  0.1666  0.0437 -0.3186
29177W        W44986  10.917   7.501  13.665  0.0429  0.2037 -0.1208
29178W        W44987  14.756  15.623  12.217  0.0992  0.3115  0.0206
29179W        W44988  12.141  17.823   0.104 -0.3287 -0.2327  0.0693
29180W        W44989   3.589  17.405  13.173 -0.0746  0.1363 -0.1599
29181W        W44990  10.278  12.318  12.493 -0.0846 -0.1964 -0.1889
29182W        W44991  18.109   3.251   1.097 -0.1074  0.4286 -0.1703
29183W        W44992  15.249  16.017   1.159  0.0784 -0.2415 -0.1295
29184W        W44993   7.439   7.449   9.337  0.1037  0.0697  0.1413
29185W        W44994  13.132   8.582  15.064  0.2200  0.0685 -0.0934
29186W        W44995  13.241   4.494  14.393 -0.1064 -0.2739  0.3851
29187W        W44996  14.525   9.015  11.355  0.1430 -0.0179 -0.0790
29188W        W44997   5.959   9.051   2.364  0.2444 -0.1721 -0.2522
29189W        W44998  17.995  12.120  11.837 -0.2720 -0.1025  0.1153
29190W        W44999   3.845  17.576  11.534  0.0147  0.2087 -0.1471
29191W        W45000   6.551   9.891   4.463  0.1324 -0.0633  0.1313
29192W        W45001   6.577  15.576   0.574  0.2207  0.3536 -0.1236
29193W        W45002   4.133  11.906  11.791  0.0490 -0.2304 -0.2376
29194W        W45003  15.375   4.875  14.397 -0.1803 -0.0332  0.2760
29195W        W45004   7.978   9.954   5.143  0.3628  0.1831 -0.0494
29196W        W45005   0.618  14.867  11.795 -0.0920  0.4899 -0.2712
29197W        W45006  17.519   7.198  11.025  0.3349  0.3257  0.1490
29198W        W45007   7.751   7.189  13.879 -0.2912  0.3622 -0.0444
29199W        W45008  12.188  15.149   2.246  0.0103 -0.0708 -0.0609
29200W        W45009   1.459   7.488  10.429 -0.1039  0.0369  0.1812
29201W        W45010  17.452   4.464  10.760 -0.1678  0.2462 -0.0961
29202W        W45011  10.690  13.603   1.827 -0.2031 -0.0390 -0.1501
29203W        W45012  16.575  10.046  13.258 -0.0622 -0.3063  0.0616
29204W        W45013   0.750  16.578   0.595 -0.0059  0.1183  0.0010
29205W        W45014   3.604   6.657   3.436  0.1125  0.0498  0.0664
29206W        W45015   2.269   3.289   5.030 -0.1961 -0.0221  0.0845
29207W        W45016   6.750   1.838   4.315 -0.0769 -0.0401  0.0171
29208W        W45017   2.927   6.471   4.766 -0.0954  0.1608 -0.0721
29209W        W45018   6.470   8.729  11.087 -0.3174  0.0092 -0.1793
29210W        W45019  18.374   8.578   4.960 -0.2091 -0.3137 -0.0026
29211W        W45020   3.684   8.403   1.801 -0.0622  0.2102 -0.0384
29212W        W45021   3.468   0.791   0.878 -0.1564  0.1646 -0.0660
29213W        W45022   3.206   7.636   4.232 -0.0676  0.0285 -0.2341
29214W        W45023  14.970  11.576  11.532  0.4852 -0.0527 -0.1079
29215W        W45024   6.289   6.894   0.634  0.1701  0.1776 -0.2118
29216W        W45025   6.525  13.732   4.344 -0.1466 -0.2645  0.2855
29217W        W45026  12.093  16.983  15.202 -0.4133 -0.1549  0.0771
29218W        W45027  15.017   8.906   3.826 -0.2738 -0.4080  0.1736
29219W        W45028   5.323   8.010   0.894 -0.2365 -0.1406  0.0389
29220W        W45029   1.337  18.411  15.218 -0.3237  0.1177  0.4305
29221W        W45030   1.246  13.255   0.122  0.1173 -0.0201 -0.3180
29222W        W45031  13.831   2.806  11.491  0.0871  0.3354 -0.1286
29223W        W45032   3.051  13.713   1.411  0.2374  0.2291 -0.0761
29224W        W45033   4.045   4.518  11.565 -0.0917 -0.1110  0.0969
29225W        W45034   1.626   1.454  12.603  0.1541 -0.2104  0.1683
29226W        W45035  14.516   1.408   0.989  0.0851  0.1262  0.2296
29227W        W45036   9.548  16.125   3.786 -0.3299  0.2111 -0.0061
29228W        W45037  11.079  16.159   2.382  0.0973  0.0093  0.1545
29229W        W45038   2.849   4.988   1.044  0.1278  0.2403  0.4172
29230W        W45039   6.784  12.029  13.263 -0.0519 -0.1850 -0.0030
29231W        W45040  15.790   7.362   3.195 -0.0097  0.4833 -0.0638
29232W        W45041  15.528   6.231  12.908 -0.0707  0.2812 -0.1400
29233W        W45042  16.791  11.884   1.336 -0.0139  0.2248 -0.0054
29234W        W45043  17.116  15.490   0.776 -0.1862 -0.0225  0.2185
29235W        W45044   8.290  13.108   0.476 -0.0470  0.0049  0.1909
29236W        W45045   0.469  14.545  13.644 -0.0166 -0.0958  0.2072
29237W        W45046  18.167   9.829  11.711  0.0045 -0.0642 -0.0833
29238W        W45047  16.237  11.547   4.699 -0.1284  0.1601  0.0787
29239W        W45048   2.343   4.731   2.813 -0.1879  0.1481 -0.1188
29240W        W45049   1.769  10.886   5.237 -0.2256  0.1969  0.2349
29241W        W45050  11.226  16.390   2.894 -0.1205  0.0426 -0.2207
29242W        W45051   0.568  15.457   1.063 -0.1235 -0.0248 -0.0575
29243W        W45052   7.396   9.350  15.353 -0.1069  0.0381 -0.2557
29244W        W45053  12.560   8.199   5.784  0.0001  0.2040 -0.3575
29245W        W45054  17.325  11.330  11.020  0.0585 -0.0584  0.1361
29246W        W45055  11.348  14.367   1.715  0.0162 -0.1124 -0.0320
29247W        W45056  15.863  16.879   3.062  0.0345  0.2471 -0.0786
29248W        W45057  10.379  15.620   4.764 -0.0970 -0.2708  0.3798
29249W        W45058   6.374  17.682  13.268 -0.2414  0.0192 -0.1748
29250W        W45059   6.342   6.485  11.248  0.0066 -0.3077  0.0181
29251W        W45060  11.381   5.180  14.367  0.1599 -0.0070  0.2745
29252W        W45061  13.289   7.045  11.202 -0.3144 -0.1550  0.0160
29253W        W45062  11.897  11.552  12.643 -0.2437  0.2140  0.0762
29254W        W45063  16.031  11.792  12.834  0.0722 -0.1295 -0.1669
29255W        W45064   6.625  18.790  12.543  0.2982  0.0043 -0.1116
29256W        W45065  11.150   8.133   0.346 -0.0835  0.0285  0.2094
29257W        W45066   5.323   4.966   4.195 -0.1547  0.0196  0.0845
29258W        W45067   2.843   1.045  13.418 -0.0209 -0.3651 -0.3303
29259W        W45068   6.658  13.769  12.366 -0.0149  0.0100 -0.3241
29260W        W45069  11.257   5.449   1.338  0.1733 -0.4081  0.0952
29261W        W45070   7.155  16.246  12.819  0.3145  0.0217  0.2332
29262W        W45071  17.118   6.236  10.947 -0.0562 -0.1856  0.0302
29263W        W45072   8.912  10.393  15.110 -0.2074  0.0347  0.2679
29264W        W45073  10.116   0.703  12.335  0.1842 -0.0831  0.1913
29265W        W45074   5.547  14.087   4.452 -0.4935 -0.0257 -0.2429
29266W        W45075   4.098  18.207  13.555  0.1599  0.3008 -0.2584
29267W        W45076   9.762  16.131  15.133 -0.0776 -0.4686  0.1948
29268W        W45077   8.761   7.273  12.679 -0.2402 -0.2802 -0.4663
29269W        W45078   1.057  17.287  13.899  0.0533  0.0159 -0.3406
29270W        W45079  13.480   5.343  13.354 -0.0638 -0.0579 -0.0266
29271W        W45080   6.687  18.439  13.201 -0.2625  0.3106  0.0554
29272W        W45081  17.716  14.301   1.256  0.3545 -0.4444 -0.1880
29273W        W45082  17.643  13.639   4.892  0.0499 -0.0098 -0.2324
29274W        W45083   5.384  13.498  14.108  0.0492 -0.1603 -0.2455
29275W        W45084   7.871   2.389   3.106  0.0931  0.0727  0.2215
29276W        W45085   9.319   6.229  13.594 -0.2761  0.0339  0.1960
29277W        W45086  12.696  16.914  11.642 -0.2407 -0.1617 -0.4896
29278W        W45087   0.712  14.030   4.364 -0.1216  0.0770  0.0530
29279W        W45088  17.175  16.596   0.743 -0.2746  0.4034 -0.0045
29280W        W45089   2.374   6.938   5.400 -0.1928 -0.0209  0.1649
29281W        W45090  18.157   7.770   5.395 -0.4674 -0.2805 -0.0077
29282W        W45091   9.490  13.070   5.012  0.1215  0.1179 -0.0623
29283W        W45092  10.189   2.628  10.529 -0.3346 -0.2047  0.1323
29284W        W45093  13.286  17.138   3.037 -0.2580  0.1544 -0.1944
29285W        W45094  14.542   5.306  12.250 -0.3118 -0.3754 -0.1231
29286W        W45095   7.053  16.393   1.010 -0.3449 -0.1124 -0.4362
29287W        W45096   5.105  10.185  11.312  0.2257 -0.1990  0.1810
29288W        W45097   8.858   7.285  13.641  0.1214 -0.2422  0.2474
29289W        W45098   9.458  16.132   0.235  0.2300 -0.1207  0.0500
29290W        W45099   1.577  14.304   0.390 -0.1653 -0.0672 -0.1705
29291W        W45100  18.877   4.058  14.342  0.1396 -0.0043 -0.0434
29292W        W45101   0.615  13.617   3.416 -0.1632 -0.2366 -0.1405
29293W        W45102   3.710   9.727   4.285  0.0190  0.0638  0.1437
29294W        W45103  13.758   9.367   1.761 -0.1535  0.0911 -0.0962
29295W        W45104  16.232   5.530  11.676 -0.2826  0.0033  0.0087
29296W        W45105   6.753   8.226  12.479  0.3294  0.3443  0.2371
29297W        W45106   8.410   9.204   4.898  0.1062  0.0785  0.0624
29298W        W45107   3.097   4.591  10.076  0.2708  0.0652  0.0259
29299W        W45108   1.401   5.018  11.882  0.1239  0.0554 -0.1712
29300W        W45109   8.521  12.403  13.120 -0.1301 -0.0583 -0.2753
29301W        W45110  10.700   6.637  14.055  0.5094 -0.0826  0.1154
29302W        W45111  13.012   3.209   2.422  0.3674  0.0758 -0.1814
29303W        W45112  13.570  13.812   3.171 -0.1134 -0.0476 -0.2412
29304W        W45113   0.766  17.861   0.112 -0.0426  0.0033 -0.0610
29305W        W45114   8.944   1.102  12.486 -0.0066  0.2455  0.2504
29306W        W45115   3.143  13.156   2.511 -0.0408  0.0600 -0.0391
29307W        W45116   3.085  10.480   2.659 -0.3827  0.2863  0.0636
29308W        W45117   5.112   6.030   4.747 -0.2693 -0.0340  0.0466
29309W        W45118  14.163   3.151   2.680  0.1084 -0.2345  0.1598
29310W        W45119   9.599   8.776   1.044  0.2025  0.1304  0.0723
29311W        W45120  12.030  12.699  13.564  0.2353 -0.3131 -0.1524
29312W        W45121   5.416   2.920   3.237 -0.2673 -0.0732  0.1918
29313W        W45122  10.592   7.677   3.224  0.2013 -0.1350  0.1756
29314W        W45123  15.206  18.777   5.023  0.0085  0.3021 -0.2527
29315W        W45124   5.485   4.973   2.363  0.1183 -0.1237 -0.0406
29316W        W45125  15.416  16.421   5.924  0.1641 -0.1847  0.1567
29317W        W45126  12.824  10.857  10.766  0.2066 -0.2826  0.2403
29318W        W45127   9.552   6.126   5.908  0.3051 -0.2493 -0.2193
29319W        W45128   4.141  10.867   0.486  0.1990 -0.2385 -0.0709
29320W        W45129  12.329   9.959  12.846  0.0366  0.0689  0.1619
29321W        W45130   7.404   9.226  13.044  0.0700  0.1528 -0.0913
29322W        W45131  13.340   9.584   3.171 -0.0267  0.1334  0.0306
29323W        W45132  10.261   0.583  10.376 -0.3198 -0.0918  0.0832
29324W        W45133  17.773  11.281   5.871 -0.3264  0.0952  0.0044
29325W        W45134   4.745   4.055  11.689  0.2092  0.2009 -0.1486
29326W        W45135  14.799  10.808   0.486 -0.2247  0.3990  0.1299
29327W        W45136   1.172  13.796   3.650  0.2416  0.1559 -0.1458
29328W        W45137   5.404   5.497   4.650 -0.1057  0.1231  0.2486
29329W        W45138   9.034   2.613  11.770  0.2435 -0.0847 -0.0728
29330W        W45139  17.534  14.556  10.671  0.0466  0.0900  0.2477
29331W        W45140  12.473   5.590  12.391  0.2175  0.1157  0.1403
29332W        W45141   8.138  13.446   6.044  0.0386 -0.2776 -0.1369
29333W        W45142  13.374  13.400  13.680  0.0761 -0.0254  0.0118
29334W        W45143   9.549  11.128   3.891  0.1357 -0.0227 -0.0481
29335W        W45144   3.223   5.106   0.010  0.0699 -0.0986 -0.0808
29336W        W45145  15.771  13.690  13.838 -0.1078  0.2449  0.0048
29337W        W45146   3.833  11.505   2.691 -0.0764 -0.0066  0.1606
29338W        W45147   8.737   9.080  10.242 -0.0495  0.1507  0.2172
29339W        W45148   9.555   2.455   2.441 -0.1997 -0.2398 -0.0086
29340W        W45149  16.460  18.820   5.414  0.2102  0.4331 -0.1212
29341W        W45150  16.168   1.829   4.548 -0.3156  0.2526 -0.2267
29342W        W45151   9.412  16.557  11.429 -0.2381  0.2804 -0.0256
29343W        W45152   9.875   3.362  13.669  0.0604  0.2389  0.1626
29344W        W45153   2.742   5.442  10.709  0.1297  0.3618 -0.2710
29345W        W45154   2.767  12.200   5.122 -0.0551 -0.0234  0.1126
29346W        W45155  14.797   8.828   4.494 -0.3500 -0.2319 -0.0130
29347W        W45156   3.493   2.514   5.198  0.2546  0.1973 -0.1631
29348W        W45157   3.143  12.430  15.430 -0.2594 -0.0477 -0.1248
29349W        W45158  15.438   8.005   2.180 -0.2285  0.1931 -0.2191
29350W        W45159   3.302  17.078  15.258 -0.1897  0.2395 -0.1434
29351W        W45160   1.644   3.025   3.171 -0.0297 -0.1689 -0.0626
29352W        W45161  12.718  10.375  10.559  0.2218 -0.0655 -0.3553
29353W        W45162  15.295   5.746   3.642  0.0536 -0.3862  0.1724
29354W        W45163   7.116   8.718   3.919  0.0318 -0.0825 -0.1715
29355W        W45164   1.929   2.189  11.343 -0.1659 -0.0319  0.0244
29356W        W45165  14.612  16.255   1.081 -0.0277 -0.0882  0.0474
29357W        W45166  11.556  11.957   4.505 -0.0910  0.2281 -0.1730
29358W        W45167   3.182   8.399  11.144  0.1881  0.1162 -0.1926
29359W        W45168   5.123  11.173   1.180 -0.1553 -0.1030 -0.4705
29360W        W45169   1.794  15.515  10.660  0.1927 -0.2559 -0.4789
29361W        W45170  16.242  16.367   1.502  0.1043 -0.0746  0.1751
29362W        W45171  16.149   3.110   3.380 -0.0735  0.0099 -0.0290
29363W        W45172   9.231  17.082   4.064 -0.1222 -0.2949  0.0705
29364W        W45173  10.088   1.719   2.675 -0.1672  0.0651 -0.0437
29365W        W45174   9.584   2.649   5.382  0.1632 -0.1865 -0.0100
29366W        W45175  10.333  18.831  12.544  0.1132  0.0028  0.2240
29367W        W45176   0.798   5.856   3.195 -0.1555  0.2156  0.2370
29368W        W45177  10.387  12.653   2.109 -0.1516  0.0884  0.3320
29369W        W45178   9.115  16.014   1.692 -0.2438  0.2947  0.0404
29370W        W45179   5.421  13.575   3.481  0.2444  0.0574 -0.2982
29371W        W45180   0.586  17.967  13.742 -0.1696 -0.2288 -0.0097
29372W        W45181  14.629  18.104  14.237  0.0479 -0.1346 -0.1331
29373W        W45182   1.696  10.408   0.412  0.2268  0.2850  0.1664
29374W        W45183  12.544  17.042  14.260 -0.0136  0.0173 -0.2465
29375W        W45184  11.326   0.392   0.800 -0.0810 -0.2106  0.1405
29376W        W45185  13.751   1.035   3.432  0.2094  0.0232 -0.4967
29377W        W45186  16.802   8.159  14.881  0.1870 -0.3222  0.0637
29378W        W45187   7.104  17.258  11.577 -0.1198 -0.1589 -0.0911
29379W        W45188   1.206  15.467  12.942 -0.1789 -0.2051  0.2596
29380W        W45189  14.256  14.975   4.757 -0.1032 -0.0044 -0.1242
29381W        W45190  15.017  18.486   5.612  0.0956 -0.0413  0.1639
29382W        W45191   6.278  13.326  13.523  0.2276 -0.0425 -0.0119
29383W        W45192  11.732   7.835   1.696  0.1916 -0.1763 -0.1227
29384W        W45193  16.745   7.547   1.807  0.0277  0.2815  0.0643
29385W        W45194  16.783   9.575   0.161 -0.1427 -0.0187  0.0905
29386W        W45195   5.322  11.341   2.798 -0.0239  0.1476  0.2141
29387W        W45196   2.055   9.808  12.407 -0.0002 -0.1900  0.0633
29388W        W45197  14.211  17.746  13.254 -0.2509 -0.0099  0.2286
29389W        W45198  15.629  11.817   2.737 -0.2668 -0.0277 -0.3591
29390W        W45199   8.603   3.086   3.477 -0.1700 -0.0265 -0.1726
29391W        W45200  16.132   6.478  14.577 -0.4291  0.1795 -0.0880
29392W        W45201   5.717  15.752  13.350  0.1554 -0.0836  0.2031
29393W        W45202   2.542  12.021   0.354 -0.2502 -0.1334  0.1663
29394W        W45203   1.164  15.385  11.578  0.1483  0.0396  0.1250
29395W        W45204   8.019   5.538   3.759  0.0943 -0.0362  0.1753
29396W        W45205   1.933   7.433  12.101  0.0619  0.2056  0.1511
29397W        W45206   6.860   7.457   0.150 -0.1169  0.0767  0.0318
29398W        W45207   3.098  17.699  15.022  0.0844 -0.1602  0.0398
29399W        W45208  14.057   7.201   2.325 -0.0910  0.0963  0.1926
29400W        W45209  14.190  17.451   2.277  0.1722  0.0569  0.0383
29401W        W45210   8.260   9.681  14.712 -0.3443  0.1307  0.2712
29402W        W45211  14.021   4.794   0.734 -0.1345  0.1332  0.3571
29403W        W45212   4.834   4.764   4.154  0.2786  0.0186 -0.0921
29404W        W45213   7.757   1.548   1.507 -0.3504 -0.0779  0.0066
29405W        W45214  17.529  10.742  13.036 -0.0131 -0.0352  0.1825
29406W        W45215  18.586   0.148  11.195  0.0636 -0.2720  0.1542
29407W        W45216  12.055  17.376  10.443  0.1480 -0.1176  0.1322
29408W        W45217   8.608  16.100   3.710 -0.2759  0.1253 -0.0963
29409W        W45218  18.777   2.977   0.393 -0.0123 -0.2077 -0.0038
29410W        W45219   1.003  17.086   4.562  0.0959  0.0020 -0.0371
29411W        W45220   7.257   1.251  12.835  0.1781  0.0100  0.1052
29412W        W45221  14.076   8.482  13.879  0.4891  0.1778  0.1950
29413W        W45222  13.131   9.345   2.519 -0.3110 -0.1383  0.2614
29414W        W45223   2.530   2.232  10.050 -0.2788 -0.0964 -0.1053
29415W        W45224  13.685   9.298  14.625  0.0361  0.0314 -0.1818
29416W        W45225   8.086  13.269   1.559 -0.0239 -0.1328  0.2770
29417W        W45226   1.911   1.368   1.800  0.1849  0.1503  0.0513
29418W        W45227  14.530   8.774   1.015 -0.0136  0.2644 -0.0106
29419W        W45228   7.679  10.603   1.709  0.2676 -0.1962  0.2054
29420W        W45229  17.018  10.467   1.489  0.0831  0.3821  0.0320
29421W        W45230  16.081   4.836  11.085  0.0804  0.2453  0.1375
29422W        W45231  13.308   9.685   1.655 -0.0936 -0.3285  0.1107
29423W        W45232   7.421   9.212  14.822 -0.3744  0.3171  0.1758
29424W        W45233   7.045  13.497   3.101 -0.0127  0.1154  0.0718
29425W        W45234  10.369   4.488  12.398  0.1765 -0.2470  0.2766
29426W        W45235  11.117  17.601  10.729  0.1791  0.3565 -0.0714
29427W        W45236  13.978  18.108   1.411 -0.2908  0.1036 -0.3311
29428W        W45237  15.250  13.401  11.066 -0.3292  0.0161 -0.0937
29429W        W45238  10.418  10.121  12.467  0.1149  0.0716  0.1960
29430W        W45239   1.516  15.784   0.103 -0.0391 -0.1497 -0.0048
29431W        W45240   5.859   5.021  14.765 -0.2792  0.0049  0.2455
29432W        W45241  14.087   5.359  12.046  0.0039  0.2371 -0.2086
29433W        W45242  18.403   6.009   2.881 -0.1520  0.1842 -0.2703
29434W        W45243   1.181  16.655   0.245 -0.1046  0.0298 -0.0531
29435W        W45244   8.490   4.981   6.016  0.1187 -0.1175  0.1261
29436W        W45245   8.919   8.703  13.956  0.1892 -0.2364 -0.2178
29437W        W45246   1.901  16.008   2.472 -0.4130  0.3915 -0.3930
29438W        W45247  18.909   8.854  15.358  0.0681  0.1678 -0.2733
29439W        W45248   3.244  11.494   1.489 -0.0995  0.2068 -0.2642
29440W        W45249   1.068  13.945  13.582  0.0536  0.2029  0.0303
29441W        W45250  11.786  16.617  10.548 -0.0051 -0.1002 -0.0259
29442W        W45251   0.772   0.243  11.184  0.1186  0.1837 -0.0638
29443W        W45252  18.039  18.227  12.698  0.0716 -0.4071 -0.0122
29444W        W45253  10.690   6.460   4.935  0.1449 -0.1292  0.2402
29445W        W45254  17.758  15.207   4.803 -0.2269 -0.1333  0.0683
29446W        W45255  17.185  17.669   4.557 -0.0108 -0.2151  0.2316
29447W        W45256  14.436  11.854   3.804  0.2491  0.0575 -0.2416
29448W        W45257  16.579   2.734   3.295 -0.1337 -0.0753  0.1109
29449W        W45258   6.123  17.849   0.577 -0.4618 -0.0375  0.1720
29450W        W45259   1.247  11.285   2.804 -0.0652  0.1280  0.1518
29451W        W45260   9.746   9.851   4.971 -0.2373 -0.0761 -0.2985
29452W        W45261  17.739   2.580   0.110  0.3213  0.2041  0.6528
29453W        W45262   7.044  14.270   5.001  0.0153 -0.0031  0.1346
29454W        W45263  10.813  18.357   4.357 -0.0515  0.1613  0.3100
29455W        W45264  14.039   1.674   0.769 -0.1005  0.1727 -0.2339
29456W        W45265   9.077   1.462   1.655  0.1355  0.3116  0.0157
29457W        W45266   7.921   7.791  10.126  0.0333  0.0310 -0.0862
29458W        W45267   6.232   5.298  13.507  0.0780 -0.1026  0.5906
29459W        W45268  17.355   5.235  14.828  0.2061  0.0372  0.3981
29460W        W45269   6.765  17.175  11.043 -0.1063 -0.0395  0.1067
29461W        W45270  16.777  10.402   4.882  0.3973  0.2179 -0.1024
29462W        W45271   1.865  16.137   1.388 -0.0913 -0.1169  0.1164
29463W        W45272   8.504  12.542   0.288 -0.1870  0.0101 -0.3999
29464W        W45273   0.849  18.900  15.215  0.1912 -0.1431 -0.0203
29465W        W45274   5.394  15.871  11.782  0.5018  0.1741  0.1804
29466W        W45275   9.439  16.954  11.780 -0.2201 -0.2582  0.1709
29467W        W45276  17.427   0.865  11.624  0.0826  0.1653 -0.1107
29468W        W45277  10.628   6.451  10.917  0.0117  0.1152  0.2888
29469W        W45278   8.402  13.944   0.215 -0.0371 -0.0149 -0.1528
29470W        W45279   3.306  12.500   4.100  0.2337  0.1145  0.0584
29471W        W45280   4.131   1.269  14.691 -0.3604  0.1027  0.2287
29472W        W45281   1.160  11.327  14.066 -0.2801 -0.1097  0.3012
29473W        W45282  10.269  17.406  12.104  0.1823 -0.1136  0.1253
29474W        W45283   7.755   2.633   0.447  0.0601 -0.1030  0.0800
29475W        W45284   3.904   4.667  12.004  0.0272 -0.1997 -0.0106
29476W        W45285   9.704   4.579  13.898  0.1476 -0.0652  0.3811
29477W        W45286  15.290   7.570   3.517 -0.0911 -0.0648 -0.0158
29478W        W45287   3.397  14.921  11.108  0.0080 -0.1159 -0.0914
29479W        W45288   7.293   4.247  10.891 -0.0647 -0.0900  0.1344
29480W        W45289   5.992   5.048  10.648  0.0397  0.0608 -0.1622
29481W        W45290   9.180  16.179   3.072  0.1954 -0.1341  0.0139
29482W        W45291  10.270  14.311  11.822  0.1915 -0.0117  0.4835
29483W        W45292   4.000   1.735   2.058  0.3682 -0.4252  0.0342
29484W        W45293  12.185   7.163   4.834  0.0951 -0.0682 -0.0102
29485W        W45294   0.103   2.301  12.935 -0.5006  0.1694 -0.0338
29486W        W45295   6.996   2.553   2.636 -0.1424  0.1574 -0.1721
29487W        W45296  17.088   3.195   6.010  0.2349 -0.3025  0.0295
29488W        W45297   0.467  10.546  10.012 -0.3895 -0.1012 -0.0755
29489W        W45298   1.498   0.534   1.589  0.2932 -0.1641 -0.3632
29490W        W45299   8.583  15.320   0.591 -0.0066  0.3308  0.1075
29491W        W45300  11.968   7.338   0.504 -0.1198  0.1545 -0.0827
29492W        W45301  13.305   7.171   5.698 -0.4591 -0.2544  0.1503
29493W        W45302  11.593  18.085  13.226  0.1181  0.1668 -0.2456
29494W        W45303  15.147  15.888   5.062  0.1991  0.1506 -0.0888
29495W        W45304   7.055  16.101  13.293 -0.0417  0.1061  0.1969
29496W        W45305  14.035  15.774   3.759 -0.1140  0.0854  0.2756
29497W        W45306  16.189   0.596   1.401 -0.5350  0.4031  0.2132
29498W        W45307  16.853   2.396   2.154  0.1063  0.2952 -0.1203
29499W        W45308   6.311   4.190   3.007  0.0958  0.1921 -0.0686
29500W        W45309   1.730   6.609   0.674  0.0247 -0.3277 -0.1042
29501W        W45310  11.274   9.454  14.879  0.3214 -0.2222  0.1148
29502W        W45311  11.818   1.899  13.715  0.2274  0.1543  0.1407
29503W        W45312   9.164  13.094  10.555 -0.2261 -0.1404  0.0598
29504W        W45313   6.268   6.930   3.169  0.0185 -0.2612  0.1841
29505W        W45314   3.737   6.514  13.208  0.2703  0.0976  0.1434
29506W        W45315  10.322  11.755   0.783 -0.0339 -0.0496  0.0960
29507W        W45316  18.207   6.689  15.277 -0.1657 -0.1098  0.1728
29508W        W45317   0.351  17.478  11.205 -0.3088 -0.2841 -0.1674
29509W        W45318   3.333   2.774   1.669  0.2232  0.0423  0.2779
29510W        W45319   0.167  12.724  14.624 -0.0979  0.4580 -0.1231
29511W        W45320  11.953   2.391  10.240 -0.2099 -0.2680 -0.3564
29512W        W45321   2.104  18.066   4.953 -0.3423 -0.0593  0.0379
29513W        W45322  16.857   5.929  11.961  0.1021  0.0976  0.0154
29514W        W45323  10.628   4.271   0.461 -0.1212  0.0707  0.0696
29515W        W45324  13.559   0.751  10.868  0.1381 -0.0739  0.0612
29516W        W45325   2.724  17.629  10.391  0.0487  0.0762  0.1460
29517W        W45326  17.493   3.303   0.564 -0.0731  0.0729 -0.0175
29518W        W45327   7.394   3.788  10.951 -0.0062  0.1922 -0.1379
29519W        W45328   0.023  14.037   1.555 -0.0922 -0.2798  0.1878
29520W        W45329  10.361   3.433  10.766  0.0419 -0.2526  0.0525
29521W        W45330   9.435   7.714   1.808  0.2539 -0.0512 -0.2139
29522W        W45331   1.134   0.864   4.588 -0.3097  0.2337  0.0949
29523W        W45332  16.648  12.853  14.096  0.0667 -0.0691 -0.0023
29524W        W45333   0.509   2.639  11.155 -0.1541 -0.0643  0.5822
29525W        W45334  11.961   5.165  15.012  0.0880 -0.6123 -0.1576
29526W        W45335   3.110   2.912   4.149 -0.0040 -0.0964  0.0123
29527W        W45336   3.904   9.598  10.883  0.0182  0.2133 -0.3888
29528W        W45337  17.789   9.272   3.868  0.1686  0.1038  0.0504
29529W        W45338   5.729  13.207  12.000 -0.1576 -0.1327 -0.1634
29530W        W45339   2.336  17.361  14.944  0.1756  0.5171 -0.4074
29531W        W45340  15.213   9.818  14.049 -0.0055  0.0288  0.0014
29532W        W45341   5.102   8.131  11.403 -0.2276  0.0763  0.0299
29533W        W45342  16.237   2.561  14.283  0.0246 -0.1167  0.3155
29534W        W45343  10.421  10.709  14.843  0.0020  0.0601  0.0639
29535W        W45344  15.243   4.145  12.827  0.1304  0.5904 -0.1350
29536W        W45345   9.315   5.675  14.166  0.2541  0.0493 -0.3141
29537W        W45346   4.758   8.082  14.046  0.0068  0.0059 -0.1602
29538W        W45347   4.148   1.627  12.224  0.0036  0.3526 -0.0201
29539W        W45348  16.766  17.663  12.180 -0.1776  0.1183 -0.0478
29540W        W45349  18.371  12.866  13.454  0.0053 -0.0415  0.1393
29541W        W45350   1.377  10.378   1.684  0.3141  0.1571 -0.0489
29542W        W45351   7.222  17.404   4.783 -0.2498 -0.0170 -0.2256
29543W        W45352   4.061  17.051  13.173 -0.0313  0.2356  0.1573
29544W        W45353   5.555   2.037   3.266  0.3753  0.1252  0.2270
29545W        W45354  18.484   7.841  14.364  0.2298 -0.0039  0.2341
29546W        W45355   1.138  10.442  13.570 -0.2367  0.1395 -0.2530
29547W        W45356   3.173   8.537   1.562  0.0901  0.1459 -0.1509
29548W        W45357   7.347  15.118   2.197 -0.2170 -0.1941  0.3078
29549W        W45358   3.859  11.971   2.149 -0.1325 -0.0876 -0.1201
29550W        W45359  15.962  17.546  15.290  0.4017 -0.4038  0.1610
29551W        W45360   1.877  13.354   3.058  0.1538 -0.1074  0.0439
29552W        W45361   1.060   9.826  11.463 -0.0744 -0.0123  0.3934
29553W        W45362   6.087  13.332   0.349 -0.3154  0.1778 -0.0662
29554W        W45363  16.194   5.989   5.666 -0.3651  0.0988 -0.0405
29555W        W45364  11.147   5.659   0.231  0.1050 -0.2972 -0.1659
29556W        W45365   2.701   7.502   6.105  0.0549  0.1413 -0.0026
29557W        W45366   3.344   2.278   3.478  0.0517  0.3175 -0.0743
29558W        W45367  10.259   8.910  14.234 -0.2065  0.1244  0.2044
29559W        W45368  13.878  12.422  12.369 -0.2804  0.3086  0.1993
29560W        W45369   1.374   5.557   0.412  0.2764 -0.1567 -0.2431
29561W        W45370  11.269  10.816  15.170 -0.1126  0.0370  0.1652
29562W        W45371   0.381   0.249  12.914 -0.0291 -0.1007  0.3696
29563W        W45372   7.689  10.689   2.373  0.0092  0.2976  0.0559
29564W        W45373   9.433   1.101  11.702 -0.1456 -0.1831  0.1678
29565W        W45374  12.706   8.838   0.567 -0.0422 -0.0908  0.1483
29566W        W45375  16.827   8.221   1.122 -0.2276 -0.1036  0.1142
29567W        W45376   8.149   0.612   1.070  0.1056 -0.0329 -0.0790
29568W        W45377   3.741  18.671   2.109  0.1838 -0.2041  0.1247
29569W        W45378   8.803   9.902  12.895  0.0540 -0.2143 -0.1106
29570W        W45379   3.756  13.296   1.272  0.1104 -0.1000  0.2488
29571W        W45380  18.589   4.994   1.443  0.0640 -0.1602  0.1077
29572W        W45381  10.228  12.482   9.934 -0.0964  0.0728 -0.0346
29573W        W45382  14.990   2.315   4.108 -0.1489 -0.0969  0.0110
29574W        W45383   9.638   2.234   4.059 -0.0213  0.0912 -0.4444
29575W        W45384   6.657  15.990   4.588 -0.1212  0.0013  0.0334
29576W        W45385   4.548  18.220   3.637  0.0553 -0.3470 -0.0530
29577W        W45386   9.285  16.839   2.414  0.0915 -0.2783 -0.0962
29578W        W45387   4.527   5.659   3.185 -0.0027  0.1068  0.1842
29579W        W45388  10.028  15.358  14.914 -0.1071  0.2665 -0.1890
29580W        W45389   2.195   4.623  14.778  0.1048  0.1405  0.3108
29581W        W45390  14.713   1.188  13.229  0.1485  0.0172  0.0437
29582W        W45391  18.381  12.716  10.706  0.1740  0.2174 -0.0990
29583W        W45392  10.740  11.994   1.864 -0.2865 -0.2239 -0.2416
29584W        W45393   9.494   4.745  11.674 -0.0088 -0.1929 -0.1707
29585W        W45394   2.621   7.908   4.310 -0.3841 -0.0693  0.0723
29586W        W45395   6.912   4.656   3.515 -0.3272 -0.2883 -0.1247
29587W        W45396   3.988  13.259   3.584 -0.0335 -0.2662  0.0790
29588W        W45397  16.162  15.416  12.677  0.0534 -0.1037  0.0623
29589W        W45398   0.499  15.954   5.141  0.0728 -0.1885  0.0118
29590W        W45399   2.575   5.004  14.072 -0.0256  0.1866  0.1224
29591W        W45400  11.449  17.515  12.440  0.0793  0.1319 -0.3193
29592W        W45401   5.335   3.443  13.389  0.0492 -0.2577 -0.1721
29593W        W45402   8.146  12.752  11.595  0.0002  0.0068  0.0422
29594W        W45403  17.584  15.957  11.786  0.1599 -0.0690 -0.2940
29595W        W45404  16.155  11.507  10.173  0.2226 -0.2819  0.0039
29596W        W45405   6.676   8.370  14.920  0.0763  0.2826 -0.0369
29597W        W45406  10.206   5.413   4.967 -0.0589  0.2425 -0.0671
29598W        W45407   7.010   0.016   5.221 -0.2249  0.0820 -0.0530
29599W        W45408  18.232  11.313   1.294 -0.0359 -0.1188 -0.0853
29600W        W45409   3.212   0.618   4.169 -0.0360 -0.0426  0.2425
29601W        W45410  15.648   5.352  14.858  0.0966  0.1935 -0.1961
29602W        W45411  17.459   4.235   2.724  0.0857  0.2558  0.2532
29603W        W45412  15.270   8.121  14.726  0.0054 -0.0693 -0.3640
29604W        W45413  14.884   5.845   0.225  0.0080  0.1638  0.0824
29605W        W45414  18.436   8.240   5.374  0.0217  0.4389 -0.1357
29606W        W45415  18.688   3.210   3.725  0.1056  0.3769 -0.1095
29607W        W45416   7.860   6.767   9.831 -0.0758  0.2225 -0.2444
29608W        W45417  14.610   2.082  10.629  0.2063 -0.1678  0.0739
29609W        W45418   5.125  15.252  14.774  0.1551  0.0495 -0.0326
29610W        W45419  13.491  10.611   3.276 -0.2770 -0.2301 -0.5447
29611W        W45420   1.367   9.219   3.020 -0.0480 -0.1110  0.2518
29612W        W45421   6.479  11.779   5.127 -0.0283 -0.0364  0.3714
29613W        W45422  10.404   0.482  11.657  0.1401 -0.2791  0.3489
29614W        W45423  17.832  12.990   2.329 -0.3253 -0.1742 -0.0117
29615W        W45424  13.836  14.677   3.114 -0.1496  0.5938  0.1334
29616W        W45425  16.986  10.969   1.291  0.1269  0.2496  0.1043
29617W        W45426  15.409   1.456  10.005 -0.2083  0.1610 -0.0276
29618W        W45427   5.316   8.037   9.550  0.1826 -0.3439 -0.0552
29619W        W45428   7.373  11.045  14.179 -0.0107 -0.0714  0.2118
29620W        W45429   9.463   6.310   0.342  0.0061 -0.0184 -0.1864
29621W        W45430   8.748   8.374  14.781  0.0965  0.1129  0.3207
29622W        W45431  10.735  18.732  12.800 -0.0961  0.3232 -0.2819
29623W        W45432   8.729  16.459   3.088  0.0729 -0.0083  0.0321
29624W        W45433  17.787   4.349  11.381  0.1755 -0.0808 -0.3259
29625W        W45434   5.038   4.067  12.713  0.4922  0.2715 -0.0452
29626W        W45435   1.382   0.742   3.290  0.1821 -0.1294  0.0893
29627W        W45436   4.117  16.286   2.185 -0.1432 -0.1337 -0.0969
29628W        W45437  13.743   7.132   0.522 -0.1294 -0.2644 -0.4213
29629W        W45438  11.699   9.312   2.364 -0.2390 -0.0146 -0.5806
29630W        W45439   1.289   6.585   3.108 -0.2959  0.2043 -0.0559
29631W        W45440   9.213   9.020   2.938 -0.2259 -0.0988 -0.3748
29632W        W45441  13.113  11.411   1.770  0.0558 -0.1730 -0.0270
29633W        W45442   6.901  17.681  11.672  0.0817  0.2940 -0.0066
29634W        W45443  17.596   7.605   0.962  0.1297 -0.0508  0.0646
29635W        W45444  15.263   6.019   0.489 -0.0448 -0.3614 -0.2055
29636W        W45445  17.250   8.658  11.416 -0.1859  0.0210  0.0110
29637W        W45446  16.009   0.897   4.132  0.0934 -0.0060 -0.1601
29638W        W45447   5.217   6.773  12.075  0.2575 -0.2326 -0.0008
29639W        W45448   4.701  10.896  13.158 -0.1234 -0.4316  0.0600
29640W        W45449   0.569   7.029  14.233 -0.2524  0.0594  0.1078
29641W        W45450  10.939   6.561   0.848 -0.1508 -0.5535  0.0454
29642W        W45451   1.090   1.038  11.806 -0.0830 -0.1682  0.1138
29643W        W45452   4.056   6.309   3.426  0.0400  0.1434 -0.0345
29644W        W45453  18.633  10.759  13.345  0.0785  0.0696  0.1450
29645W        W45454  18.891   3.220  14.948  0.0169  0.1046  0.0114
29646W        W45455  13.030   5.093  14.931 -0.4832 -0.1850  0.0069
29647W        W45456   7.529   4.119  13.193 -0.1912 -0.3050 -0.0596
29648W        W45457  16.962   1.343  12.233 -0.1312  0.3235 -0.3634
29649W        W45458  12.849  18.188   2.184  0.2461  0.1180  0.0671
29650W        W45459  11.159  16.191   3.316 -0.2461  0.0264  0.2268
29651W        W45460  10.291   6.500   2.359  0.0605  0.0329  0.1436
29652W        W45461   6.160  16.179   4.713 -0.2449  0.1730  0.1085
29653W        W45462  14.010   0.095   0.126  0.1968  0.1523 -0.0690
29654W        W45463  11.505  16.895   4.154 -0.2933  0.1432 -0.0381
29655W        W45464  13.976   4.521  13.111 -0.0756 -0.3431 -0.3781
29656W        W45465   7.352   4.939   0.605 -0.0090  0.1744  0.1458
29657W        W45466   3.914   7.082   2.201 -0.1201 -0.4082 -0.0517
29658W        W45467   9.097   8.139  10.663  0.1681 -0.1404 -0.5522
29659W        W45468   1.887  14.748  12.307  0.1278 -0.1322 -0.1272
29660W        W45469  18.827   7.050   2.682 -0.2782 -0.1137 -0.0350
29661W        W45470   5.417  16.403   4.408  0.3419 -0.0693  0.0398
29662W        W45471   7.246  17.049  13.327  0.2303 -0.2272 -0.0539
29663W        W45472   1.758  17.907  10.474  0.1804  0.0384 -0.4318
29664W        W45473  13.004   6.762  10.869 -0.0482 -0.1098 -0.2320
29665W        W45474   5.696   8.358   2.986 -0.2010  0.0503  0.0358
29666W        W45475  10.837   2.953   0.130 -0.0874  0.2757  0.1979
29667W        W45476   7.369  11.122   2.754  0.2505  0.0960 -0.0532
29668W        W45477  15.679  16.162  14.058 -0.0043  0.1297  0.2277
29669W        W45478   7.364   6.448  11.616  0.1803  0.0314 -0.0393
29670W        W45479  12.960  12.792  14.458 -0.1777  0.1228  0.0891
29671W        W45480  15.913  14.330  13.054  0.0715 -0.1263  0.2072
29672W        W45481   0.591   7.729   2.806 -0.0928 -0.1338 -0.1238
29673W        W45482   1.767   9.879   4.814  0.1813 -0.1046  0.2907
29674W        W45483  10.527  12.913   0.105 -0.1691  0.3078 -0.1130
29675W        W45484  14.584   3.994  15.277 -0.3273  0.0540  0.3762
29676W        W45485  16.893  10.301  12.420 -0.2399 -0.2545  0.1575
29677W        W45486   4.450   4.294  14.969 -0.1689 -0.0962  0.3535
29678W        W45487   5.815  11.803  15.253  0.2134 -0.1093 -0.0216
29679W        W45488   1.547   4.938   2.338  0.1849  0.1199 -0.0749
29680W        W45489   8.597   5.864   4.803 -0.0191 -0.3486  0.1533
29681W        W45490  11.410   7.629   4.063 -0.1543 -0.0246 -0.2784
29682W        W45491  15.020   5.708  10.905  0.3351 -0.2064  0.4462
29683W        W45492   8.583  11.450  13.108 -0.0895  0.1621  0.2725
29684W        W45493   0.366   2.765  11.600  0.0835 -0.0183  0.0907
29685W        W45494   2.061  14.540  11.314 -0.1557  0.1828  0.1061
29686W        W45495  10.281   7.890   2.228  0.4715  0.1782 -0.2653
29687W        W45496  15.811   4.119   5.298  0.0840 -0.0058  0.0402
29688W        W45497   8.663   4.003  12.239 -0.0727 -0.0948 -0.2510
29689W        W45498  14.479  18.863   0.075  0.4708  0.0565 -0.0965
29690W        W45499  11.873   3.198  15.008  0.2250 -0.1827  0.0745
29691W        W45500   0.324  14.705  11.055 -0.0549 -0.3774  0.2291
29692W        W45501   9.310   9.466   2.591  0.2735 -0.0340 -0.1171
29693W        W45502  18.806   2.155   3.851  0.3339 -0.4249 -0.2048
29694W        W45503   7.985   0.408   4.542 -0.0395 -0.0666 -0.0746
29695W        W45504  13.138  10.938  13.729 -0.0574  0.2718 -0.3478
29696W        W45505  13.140   2.242   4.780  0.0707  0.2650 -0.3528
29697W        W45506  18.582  11.310  11.613 -0.0743 -0.0249 -0.2405
29698W        W45507   6.476  13.928   0.044  0.0147  0.2145 -0.1351
29699W        W45508  16.356  13.212   0.964  0.1000 -0.1653  0.1684
29700W        W45509  14.605   9.131   4.836  0.0702  0.2874 -0.0530
29701W        W45510  16.487   6.530   4.287 -0.0620 -0.0402 -0.0502
29702W        W45511  10.731  13.019   3.478  0.3275  0.3134 -0.2014
29703W        W45512   3.953  11.149   1.741  0.3270 -0.0659 -0.0695
29704W        W45513  15.043   5.222  15.292 -0.0594 -0.5091 -0.4731
29705W        W45514  18.247   7.716  10.786  0.2870 -0.0900  0.0358
29706W        W45515  14.563  14.826   1.301 -0.0308  0.0630  0.0513
29707W        W45516   5.938  13.066   5.391  0.2059 -0.0930  0.2964
29708W        W45517  16.198  16.400  15.204 -0.2477 -0.2796 -0.3399
29709W        W45518  16.071   0.226   4.614  0.1360 -0.1404  0.2529
29710W        W45519  13.090   4.085   5.778  0.0182  0.0842 -0.0129
29711W        W45520   0.263   7.828  15.186  0.0732  0.0393 -0.0073
29712W        W45521   6.418   0.687   2.028  0.1491 -0.0467  0.0532
29713W        W45522   7.375  14.846  12.922 -0.1106  0.1284 -0.1690
29714W        W45523   9.805   2.224   1.359  0.0084  0.1035  0.1272
29715W        W45524   2.181  18.755   1.485  0.0212  0.3565 -0.2557
29716W        W45525   6.763  17.140  13.434  0.3974 -0.0141 -0.0263
29717W        W45526   1.562   2.219   2.577 -0.3063  0.0163 -0.0159
29718W        W45527   5.086  10.418   3.032 -0.0364 -0.1444  0.1329
29719W        W45528  17.146  17.659  10.829 -0.0059 -0.0702 -0.1743
29720W        W45529  18.442  14.719   4.071  0.0431 -0.0275 -0.1174
29721W        W45530   0.769   8.858  14.251  0.0752 -0.1381 -0.0823
29722W        W45531  16.864  12.518   0.407  0.5484 -0.3076 -0.3842
29723W        W45532   3.958  10.590   0.887  0.0973  0.0371 -0.2587
29724W        W45533  14.407   6.321  11.579 -0.0463 -0.0795  0.2759
29725W        W45534   4.843   8.773  15.072 -0.0721  0.0448 -0.2225
29726W        W45535  16.626   1.879   4.434  0.1041  0.4001  0.2271
29727W        W45536   7.554  16.324   0.872 -0.0292 -0.0244  0.1181
29728W        W45537   0.239  10.963   9.959  0.4221 -0.0461 -0.1100
29729W        W45538  10.069  12.731   0.253 -0.1000 -0.1455  0.3248
29730W        W45539   2.504  14.134  12.772 -0.1183 -0.1330 -0.3499
29731W        W45540  17.158  17.257  15.228 -0.0930 -0.1845 -0.0892
29732W        W45541   4.949   0.629   5.603  0.0510  0.0800 -0.2396
29733W        W45542  15.358   2.714  14.615  0.3706  0.3089  0.0144
29734W        W45543   0.680  17.334   0.136 -0.1655  0.0529 -0.2634
29735W        W45544   9.977  16.010  12.236  0.0356 -0.0599 -0.2610
29736W        W45545   0.306   2.245   3.512 -0.0340 -0.2230  0.2329
29737W        W45546  13.471  13.968   4.305 -0.0003 -0.1002  0.0854
29738W        W45547   5.147   3.847  11.784 -0.1756  0.4039  0.2787
29739W        W45548  15.092   2.099   3.146  0.0270  0.0970 -0.2261
29740W        W45549   5.265   8.025   0.260 -0.1466 -0.1209  0.1247
29741W        W45550   1.990   2.596   3.305  0.1685  0.1145  0.3959
29742W        W45551  10.440   2.950  13.680  0.1420 -0.1339  0.2170
29743W        W45552  11.537  18.566   3.987 -0.0415 -0.0906 -0.0568
29744W        W45553  15.256   8.535   3.074  0.0110  0.2137 -0.2496
29745W        W45554  17.356  17.546  13.622 -0.0222  0.0518 -0.0846
29746W        W45555   8.681  15.842   5.410  0.0709  0.1575  0.0901
29747W        W45556   0.425   1.243   9.885  0.0412 -0.1745  0.0470
29748W        W45557  15.962   1.030   0.491  0.0047 -0.0782 -0.3090
29749W        W45558   6.534  12.494   3.906 -0.3137  0.2801 -0.0688
29750W        W45559   2.731   2.767  14.288  0.2193  0.4703  0.2972
29751W        W45560  17.949   3.791   3.837  0.0958 -0.1039 -0.0327
29752W        W45561  16.852  15.569   4.747  0.0112  0.2772  0.0767
29753W        W45562   7.582  17.048   3.064  0.1835 -0.2322 -0.1460
29754W        W45563  13.363   3.697  11.972  0.1530  0.1969 -0.0055
29755W        W45564   1.513  17.734  12.462  0.2493  0.1369  0.0187
29756W        W45565  10.982  11.229   0.528 -0.0141 -0.1403 -0.1493
29757W        W45566  17.122   7.275  13.997  0.1439 -0.0962  0.2975
29758W        W45567   3.123   3.960  14.736 -0.0938  0.1098 -0.3105
29759W        W45568   2.865  11.975  15.338 -0.0606 -0.0793  0.0513
29760W        W45569   0.164   2.426  12.315 -0.0785 -0.4155  0.0382
29761W        W45570  11.131  17.849   9.551 -0.2147 -0.1878  0.4983
29762W        W45571   0.988   9.444  11.744 -0.0537 -0.1976  0.0837
29763W        W45572   2.533   2.710   3.539 -0.0445  0.1085 -0.0059
29764W        W45573   7.037   3.089  14.750 -0.1004  0.1987  0.1032
29765W        W45574  13.064  11.829  10.807  0.3510 -0.4135  0.1135
29766W        W45575   2.539   6.656  12.837 -0.1056 -0.0651  0.2700
29767W        W45576  10.286   5.946  11.880  0.1884 -0.1050 -0.3646
29768W        W45577   4.312   7.848   4.639 -0.1030 -0.3152  0.1537
29769W        W45578   3.950   5.171  12.160  0.1766 -0.1091 -0.0574
29770W        W45579   3.503   3.028   4.440 -0.0590 -0.1529  0.1225
29771W        W45580   0.560  10.077  12.757 -0.0186  0.0752  0.0213
29772W        W45581   2.209  18.523  12.037 -0.0187 -0.1669 -0.4359
29773W        W45582   1.408  18.206  12.601  0.0890 -0.3461  0.3105
29774W        W45583  16.102  16.947  10.499  0.1392 -0.4236 -0.3258
29775W        W45584  10.098   4.591   4.604 -0.0349 -0.3896  0.0277
29776W        W45585  15.177  12.810   1.837 -0.3123  0.0120 -0.2110
29777W        W45586   8.817   8.640  10.964 -0.0010 -0.0981 -0.0984
29778W        W45587   4.744   9.116  13.922  0.2312 -0.1167  0.2989
29779W        W45588  14.820  14.182   3.636  0.0789 -0.1269  0.2675
29780W        W45589   7.398   7.460  14.178  0.3905 -0.0366  0.4043
29781W        W45590  11.617   1.991  11.309 -0.0983  0.2116 -0.0824
29782W        W45591  17.417   2.777  13.277  0.0732  0.1528 -0.2233
29783W        W45592   1.218   6.986  10.326 -0.1357  0.0786  0.1410
29784W        W45593   5.211   4.506  14.437 -0.1348  0.0064  0.1219
29785W        W45594   5.009   1.763   0.051  0.0160  0.0340  0.2862
29786W        W45595   2.983   0.671   0.699  0.3978  0.2151 -0.0173
29787W        W45596   9.633   0.609   3.399 -0.1115 -0.3253 -0.0741
29788W        W45597   2.387  13.435   1.223 -0.0020  0.0353  0.2843
29789W        W45598  16.290  16.473  11.820 -0.0387 -0.0920  0.1450
29790W        W45599  14.554  17.936  15.439 -0.0703  0.0255  0.3207
29791W        W45600   3.623   8.416   3.410  0.0135  0.0623  0.1287
29792W        W45601  13.629  11.204  11.648  0.0065 -0.2142  0.0464
29793W        W45602   5.295   4.219   2.950 -0.0454  0.3578 -0.1017
29794W        W45603   6.677   6.275   2.305  0.5143  0.0142  0.4070
29795W        W45604   4.225   4.113  12.475 -0.1498 -0.1324 -0.1487
29796W        W45605   7.320  18.917  12.938  0.0561 -0.1890  0.2260
29797W        W45606   2.610  14.644  11.954  0.1293  0.0641 -0.1357
29798W        W45607   2.351  16.531   9.424 -0.3047  0.2308  0.0344
29799W        W45608  12.488   8.155  13.413 -0.2096 -0.3546 -0.0919
29800W        W45609   9.813   9.216   0.962 -0.2193  0.2886 -0.0870
29801W        W45610   3.154   5.057  11.148 -0.2160 -0.1022  0.0331
29802W        W45611  14.649   7.294  14.501  0.0332 -0.0790 -0.3903
29803W        W45612  15.882   1.208   0.017  0.1024  0.0264 -0.1328
29804W        W45613   1.182   6.311  13.063 -0.0712  0.1377  0.0680
29805W        W45614  15.596  16.598   0.828  0.1093  0.3196  0.0877
29806W        W45615   1.266   5.632   4.857 -0.1771 -0.2563  0.0405
29807W        W45616  11.364   9.111   5.136  0.2378  0.1973  0.1375
29808W        W45617  14.308   5.878   5.251 -0.1889 -0.2062  0.1581
29809W        W45618  14.820  12.830   4.827  0.1163 -0.2890  0.0882
29810W        W45619  14.454  16.593  13.112  0.1682  0.3564  0.3307
29811W        W45620  16.257   4.594  10.570 -0.0015  0.1777 -0.0521
29812W        W45621   6.697   6.927   0.325  0.1138 -0.0072 -0.2545
29813W        W45622   3.839  10.708   1.842 -0.1425 -0.1438 -0.1665
29814W        W45623  11.077  12.264  13.082  0.5435 -0.2032 -0.0147
29815W        W45624  13.536   1.310   4.742  0.0401  0.0508  0.3364
29816W        W45625   4.585  18.264  11.790 -0.4272 -0.3771 -0.2196
29817W        W45626   6.671  14.932   1.132  0.1594 -0.0051 -0.1911
29818W        W45627   5.664   2.723  14.638  0.1136 -0.0459 -0.1479
29819W        W45628   0.297   2.469  14.710  0.1235  0.0819  0.1191
29820W        W45629  15.011  17.421  12.056  0.1210  0.2860 -0.0366
29821W        W45630   2.865  14.998  12.745 -0.0060  0.2665  0.5655
29822W        W45631   1.548  11.363  13.468  0.0489  0.1148 -0.0418
29823W        W45632  10.191  11.906   1.291 -0.0397  0.0019 -0.0080
29824W        W45633   5.989   9.179  12.066  0.2060 -0.1278 -0.2271
29825W        W45634   4.245   3.787   3.240  0.0723 -0.0019  0.1240
29826W        W45635   4.168   6.130  14.227  0.2472 -0.1312  0.5537
29827W        W45636  16.050  18.705  14.387 -0.1469  0.1424 -0.1448
29828W        W45637   3.994  10.302  13.812 -0.1337 -0.2899  0.0657
29829W        W45638   6.349  18.232   0.183 -0.0833  0.2189 -0.1123
29830W        W45639  18.162  10.167  15.063 -0.0803 -0.3272 -0.0775
29831W        W45640   0.620  12.191   0.374  0.0350  0.1301 -0.4426
29832W        W45641  11.535   3.949  14.571 -0.0499 -0.0727 -0.1631
29833W        W45642   9.655   5.277  12.396  0.0369  0.1586 -0.1448
29834W        W45643  16.442   4.214   2.715  0.0010  0.0762 -0.2285
29835W        W45644   4.389  12.037  13.534  0.0278 -0.0599 -0.0918
29836W        W45645   4.353   2.827  14.278  0.1250 -0.1289 -0.2646
29837W        W45646  16.839   1.494   5.100 -0.6821  0.1627  0.0555
29838W        W45647  12.217  16.951  10.132 -0.1920 -0.0287 -0.0440
29839W        W45648   8.925   9.174   1.735  0.0197  0.1884 -0.1386
29840W        W45649  11.976  16.492   3.564  0.2314  0.2922 -0.3672
29841W        W45650   9.371   2.865   4.614 -0.1495  0.1711  0.1033
29842W        W45651  17.707  12.715   5.399  0.0783 -0.3356  0.1913
29843W        W45652   6.322  15.681   0.146  0.1572 -0.0475 -0.0529
29844W        W45653  18.199  15.806   3.252  0.0275 -0.1551 -0.1869
29845W        W45654   3.600   9.082   4.405 -0.0753 -0.0028 -0.1243
29846W        W45655   2.826   6.886  15.151 -0.2406 -0.2708  0.3100
29847W        W45656  11.310   6.684  12.774 -0.1725 -0.0109  0.0270
29848W        W45657  14.195   0.415  10.846 -0.2838 -0.3667 -0.0182
29849W        W45658   3.746   3.096  11.005 -0.2768 -0.5397  0.0848
29850W        W45659   6.412   4.472   3.443 -0.0822  0.3890  0.1638
29851W        W45660   0.987  15.197   4.881 -0.0575  0.3428 -0.2238
29852W        W45661  12.989   2.790  13.798 -0.1719  0.0256  0.3558
29853W        W45662  11.735  11.390   3.109  0.0310  0.2515 -0.0231
29854W        W45663  14.136   4.120  10.787 -0.0067  0.0125  0.1104
29855W        W45664   6.215  11.989   0.007 -0.0470 -0.1007 -0.0496
29856W        W45665   8.040   1.695   4.377  0.3244 -0.5683 -0.0219
29857W        W45666   4.523   9.667  12.021 -0.2601  0.0622  0.1603
29858W        W45667   6.284   3.750  10.256 -0.2026  0.2115  0.2400
29859W        W45668  14.489   1.436   4.094 -0.0031 -0.2939  0.0406
29860W        W45669  12.477   5.235   3.296  0.1135 -0.2314  0.2319
29861W        W45670   8.777   5.411   3.267 -0.0194  0.0969  0.0819
29862W        W45671   0.200   5.391   2.285 -0.2197 -0.0505 -0.0048
29863W        W45672  16.932   2.590   0.328 -0.1413  0.1308 -0.0465
29864W        W45673  16.730   2.881  12.083  0.1006 -0.0181 -0.1714
29865W        W45674  14.891  16.875  12.265 -0.0729 -0.0897 -0.3720
29866W        W45675   6.697   1.871  13.802 -0.0563 -0.0980 -0.0157
29867W        W45676  16.810   9.007  11.203  0.2503 -0.0050  0.0493
29868W        W45677   1.457   0.223   1.190 -0.1839 -0.0067  0.3452
29869W        W45678   5.378   3.306  12.238  0.0451 -0.0702  0.1485
29870W        W45679   7.097   9.249   4.774 -0.0491 -0.2734  0.0969
29871W        W45680   1.976  12.920  14.945  0.4681  0.0387  0.0584
29872W        W45681   0.067  15.209  11.016  0.0648  0.1860 -0.3860
29873W        W45682  17.245   1.300  12.808  0.0539 -0.4452  0.2401
29874W        W45683  16.590  18.168   1.051  0.0293 -0.0877  0.2372
29875W        W45684   1.636  14.897   2.007 -0.0429  0.0682 -0.3813
29876W        W45685  13.089  15.615  13.075 -0.0737  0.3502  0.3459
29877W        W45686   7.127   6.615  10.786 -0.4766  0.2854 -0.2030
29878W        W45687  13.924   5.603  10.340 -0.2457 -0.2028 -0.2652
29879W        W45688  17.179   0.906   4.452 -0.0210  0.1330 -0.2176
29880W        W45689  18.526  12.466   2.119 -0.2574 -0.0956 -0.3321
29881W        W45690   0.678   0.857   0.959  0.1279 -0.1647  0.3440
29882W        W45691  18.835   9.909   2.297  0.0003 -0.1981 -0.1084
29883W        W45692  17.689  16.230  11.017 -0.1220  0.1871  0.1061
29884W        W45693   5.432  18.628  11.890 -0.0754 -0.0106 -0.1371
29885W        W45694   1.733  17.417   1.688  0.1111 -0.1469  0.3267
29886W        W45695  11.478  18.545  13.701  0.0604 -0.1540  0.0194
29887W        W45696  15.577   4.099   3.684  0.0550 -0.3631  0.1219
29888W        W45697   9.784  15.682  13.167  0.2765  0.0034  0.0076
29889W        W45698   8.292  10.048  12.888 -0.3672  0.0178 -0.0250
29890W        W45699   5.031   5.787   0.558 -0.2487  0.1430 -0.1271
29891W        W45700   0.827  18.356  10.771 -0.3194  0.0092 -0.0466
29892W        W45701  18.868   7.140  12.584 -0.0840 -0.0053 -0.0981
29893W        W45702   0.947  10.891  13.969  0.0065  0.2009 -0.0417
29894W        W45703   6.541   7.174  12.644  0.0723  0.0045 -0.1552
29895W        W45704  13.277   0.623   2.605  0.1045  0.3583  0.0756
29896W        W45705   2.691  11.849  11.363 -0.1854 -0.0715 -0.0239
29897W        W45706   9.008   9.766  10.759 -0.2357  0.0491 -0.4761
29898W        W45707  17.281  13.857  15.093 -0.2502 -0.0471 -0.0752
29899W        W45708  12.350  14.087  10.670  0.0564  0.1935 -0.1741
29900W        W45709  17.996   9.831   5.348 -0.1838 -0.1183  0.0189
29901W        W45710  16.721  14.775  14.167  0.0273  0.0389 -0.4050
29902W        W45711  15.413  13.515  13.469 -0.0505 -0.2563 -0.2875
29903W        W45712  16.140  12.966  15.409  0.2265  0.1622 -0.1472
29904W        W45713   6.817   1.339  11.887 -0.0294  0.1838  0.2421
29905W        W45714   3.572   2.324   4.727  0.1047 -0.2569 -0.0240
29906W        W45715   2.823   9.377  12.622  0.0398  0.2048  0.0247
29907W        W45716   8.464  13.560   4.472  0.2010 -0.0736 -0.0971
29908W        W45717   5.406   9.968  13.138  0.2858  0.0181 -0.0142
29909W        W45718   0.659   8.952   0.025  0.0011  0.0787 -0.1254
29910W        W45719  11.361   7.773   3.194 -0.0359  0.0856 -0.2333
29911W        W45720  15.996  10.548  11.766  0.2530 -0.4192 -0.1927
29912W        W45721  13.307   5.674   2.622 -0.2634 -0.1828 -0.0829
29913W        W45722   6.961   1.845  13.264  0.1242  0.0427 -0.1549
29914W        W45723   5.249  12.416   0.241  0.0400  0.2459 -0.1333
29915W        W45724  12.518   8.298  12.944 -0.0721 -0.0470  0.1040
29916W        W45725  18.825  14.374   2.924  0.0332  0.0093 -0.0180
29917W        W45726   5.269   5.536  15.100 -0.3226  0.0765 -0.2496
29918W        W45727  18.757   1.450   0.683  0.2564  0.5059  0.2400
29919W        W45728  16.084   0.832  12.745  0.0069  0.2778 -0.0883
29920W        W45729  11.218  18.807   0.640 -0.3312 -0.3494 -0.2148
29921W        W45730   4.439   3.475  10.356  0.2316  0.2274 -0.0773
29922W        W45731  10.479   3.043   0.442  0.2927 -0.0078  0.2156
29923W        W45732  15.169   2.247   0.916 -0.0420  0.0676  0.0792
29924W        W45733  15.932   6.600   4.898 -0.0972 -0.0686 -0.1207
29925W        W45734  17.314  13.274   9.589  0.1405  0.3001 -0.0310
29926W        W45735   7.134  17.995  12.057 -0.0357  0.1537  0.3090
29927W        W45736   9.558  15.562   2.554 -0.0422 -0.0936 -0.1917
29928W        W45737  14.962   9.406  10.812  0.2874 -0.1345 -0.0273
29929W        W45738  12.740   1.928  12.406 -0.0115  0.1182 -0.0842
29930W        W45739  15.012   5.668   4.879  0.2563  0.3179  0.0709
29931W        W45740  17.324  13.080   3.682  0.2938 -0.0016 -0.1742
29932W        W45741   1.255   4.711   0.795 -0.0529  0.5169 -0.2849
29933W        W45742   0.957  14.129  10.085 -0.2837  0.0622  0.0005
29934W        W45743  13.085   1.840   4.456  0.0342  0.0485  0.1274
29935W        W45744  17.251   0.230   3.606  0.0230  0.1416  0.0574
29936W        W45745   3.876   6.969   0.856 -0.0577  0.0133  0.0911
29937W        W45746  18.462   0.285  14.795 -0.2343 -0.2167 -0.1735
29938W        W45747  17.975  15.930  13.406 -0.6337  0.1046  0.2000
29939W        W45748  14.193   2.160   2.402 -0.0643 -0.1577  0.1805
29940W        W45749  14.685  14.784  10.774 -0.1132 -0.1344 -0.0011
29941W        W45750  12.683  18.708  14.665 -0.0583 -0.0091 -0.1725
29942W        W45751  18.310   8.669  12.397  0.1441  0.1663  0.1912
29943W        W45752  16.847   5.831  10.943 -0.0502  0.2651 -0.1759
29944W        W45753   4.646   1.787  11.968  0.2718  0.1144  0.0017
29945W        W45754   5.835   0.034  11.972  0.1945  0.0925 -0.2468
29946W        W45755   2.554   8.159   5.361  0.2100 -0.3123  0.3214
29947W        W45756   4.116   1.686  10.847 -0.2001 -0.0026 -0.1195
29948W        W45757  17.240  17.247   4.291 -0.0626 -0.0601  0.0665
29949W        W45758  12.832   5.253  11.228  0.1181 -0.3011  0.1249
29950W        W45759  16.173   7.321   2.607 -0.2539  0.0472 -0.0254
29951W        W45760  17.295   8.380   3.901  0.4784  0.1090  0.0156
29952W        W45761   6.280  12.353  13.174 -0.1299  0.0730 -0.1252
29953W        W45762  16.617   0.314  14.865 -0.1828  0.0733  0.2940
29954W        W45763   1.339   0.209  12.860 -0.1279 -0.1083 -0.0368
29955W        W45764  15.550   7.162  12.934 -0.1765 -0.1391 -0.1425
29956W        W45765  16.160  14.934   4.909 -0.2979 -0.1944 -0.5383
29957W        W45766   4.219  17.614   9.659  0.2012  0.0679  0.2686
29958W        W45767  15.087   9.179   4.202 -0.0505  0.0757  0.0936
29959W        W45768  13.192  16.440   1.182  0.1680 -0.2554  0.2010
29960W        W45769   0.002  12.766  10.253 -0.0073 -0.4372 -0.0929
29961W        W45770   9.390  12.654   3.751  0.3263 -0.4654 -0.0585
29962W        W45771  16.327   1.786   3.060  0.1091 -0.0448 -0.6039
29963W        W45772  15.553   7.431  10.975  0.2924 -0.0084  0.2000
29964W        W45773  11.418   9.209  12.464  0.1259  0.0940  0.2544
29965W        W45774  13.218  18.750  13.095 -0.1122 -0.0341  0.1112
29966W        W45775  12.368  17.773   3.340 -0.1654 -0.0046  0.1594
29967W        W45776   4.833  17.114   4.669  0.1347 -0.0087 -0.1125
29968W        W45777   0.817   5.777  12.321  0.1997 -0.2991 -0.0909
29969W        W45778  13.584  18.887   3.422 -0.0043 -0.1498 -0.0730
29970W        W45779   8.739   2.281  10.188 -0.1541  0.0349  0.2901
29971W        W45780   1.756   8.009  12.790 -0.0483 -0.0593 -0.2612
29972W        W45781   8.556  18.172   3.438 -0.2711 -0.1659  0.0795
29973W        W45782   3.362   2.578   3.001  0.1025 -0.0434  0.0181
29974W        W45783  18.623  11.306   1.741 -0.1791 -0.0867 -0.1944
29975W        W45784   1.936  16.918   0.505  0.1257 -0.0284  0.2404
29976W        W45785   1.309   4.887   3.693 -0.0152  0.1905 -0.2748
29977W        W45786   4.914  12.916   0.539 -0.1119 -0.1829  0.0261
29978W        W45787  16.160  11.076   4.559  0.0063  0.3505 -0.0289
29979W        W45788  10.543  10.297   3.870 -0.0032 -0.3092 -0.2634
29980W        W45789   4.129  10.088   0.931 -0.1839  0.1954  0.4595
29981W        W45790   9.306   0.845  12.109 -0.3687  0.1199  0.2228
29982W        W45791  18.530  14.525   4.718  0.0368 -0.2033 -0.0324
29983W        W45792  18.277   4.423  13.408  0.0836 -0.2048  0.0635
29984W        W45793  14.858  14.404  11.051 -0.1172 -0.0655  0.0019
29985W        W45794  16.760  11.277  14.723  0.1946  0.0803  0.0794
29986W        W45795  13.038  11.666   4.537 -0.1232 -0.1254  0.0941
29987W        W45796   1.094   7.832  10.928 -0.0393  0.2060  0.2889
29988W        W45797   6.680  12.019   5.598  0.1280 -0.0605  0.0737
29989W        W45798  15.697  12.567   4.897  0.0570 -0.0488  0.0536
29990W        W45799  14.240  13.530   4.417 -0.0782  0.1749 -0.2914
29991W        W45800  12.134  14.133  10.163  0.1667  0.1693  0.0209
29992W        W45801   2.583   8.526   3.186  0.1298  0.2431  0.2979
29993W        W45802   6.411   7.874   0.762 -0.1305  0.0168 -0.1672
29994W        W45803  10.022   0.887  10.771  0.0201  0.0152 -0.1977
29995W        W45804  12.730  16.554   0.379  0.1115  0.1595  0.1091
29996W        W45805   2.902   0.711  11.434 -0.2453 -0.0442 -0.1968
29997W        W45806   5.873  10.313   9.769 -0.3084 -0.0772 -0.3535
29998W        W45807   3.442   9.921   4.662 -0.0878  0.0927  0.0078
29999W        W45808  13.889   4.728   2.286 -0.3664  0.0472  0.0627
30000W        W45809   5.500   4.571  13.987  0.3153  0.0434  0.3156
30001W        W45810   0.759   9.177   1.618 -0.1303 -0.0788 -0.1600
30002W        W45811  14.417  14.631   0.781 -0.1577 -0.1468 -0.4477
30003W        W45812  15.480   5.212   1.980  0.0441 -0.0581  0.0424
30004W        W45813   0.284   1.202   3.451  0.2432  0.3651  0.2826
30005W        W45814  13.426   7.558   4.224  0.1074  0.0244 -0.1326
30006W        W45815   2.753  15.821   0.920  0.4220  0.1719 -0.0115
30007W        W45816  12.452  13.147  11.635  0.1308  0.0547  0.2196
30008W        W45817   9.373  11.501   2.676 -0.2944  0.1228 -0.2002
30009W        W45818   0.776  17.012   3.569 -0.2125  0.1610 -0.2340
30010W        W45819  12.319  10.873  14.082  0.1342 -0.1091  0.1470
30011W        W45820  12.031  13.715   1.527  0.0437 -0.1175 -0.2277
30012W        W45821   0.151   2.322   2.290 -0.0870 -0.3446  0.0154
30013W        W45822  13.333   5.324  11.116 -0.2364 -0.0845  0.1891
30014W        W45823   2.339   0.024   2.816 -0.0437  0.4442  0.1168
30015W        W45824  14.329   8.516  12.867  0.2214  0.1324 -0.0469
30016W        W45825   0.220   9.829   0.825  0.0153 -0.0434  0.1220
30017W        W45826   2.623   7.539  14.373 -0.2529 -0.0641 -0.3716
30018W        W45827  18.429   9.279  12.513 -0.2050  0.1378  0.1445
30019W        W45828  16.743  15.512   2.625  0.3295 -0.0912  0.0949
30020W        W45829  16.062   3.082  11.944  0.0753  0.0760  0.0098
30021W        W45830   3.300  16.154  12.394 -0.1409  0.2647  0.5306
30022W        W45831   4.238  15.438   3.588 -0.1798  0.2542 -0.1535
30023W        W45832  17.913  10.283  13.662  0.1039  0.1706 -0.1069
30024W        W45833   1.626  10.947  10.968 -0.0933 -0.1130 -0.1029
30025W        W45834  16.759   2.142  13.061  0.0538 -0.3163 -0.1533
30026W        W45835  12.078   9.136  14.084 -0.0402  0.0139  0.1147
30027W        W45836   0.696   1.705   9.804 -0.2752 -0.1326 -0.2617
30028W        W45837   7.232   2.326   2.232 -0.3420 -0.2090 -0.0659
30029W        W45838   0.910   7.425   2.749  0.0732  0.2486 -0.0759
30030W        W45839   3.053  11.980  12.098  0.1889 -0.0569  0.1288
30031W        W45840   9.342   1.225   2.377 -0.0036  0.0506  0.0577
30032W        W45841   8.602  12.923  12.829  0.0073  0.1342 -0.0075
30033W        W45842   6.145  17.655   2.412 -0.0166 -0.0587  0.2061
30034W        W45843   7.464   7.025  12.454  0.0011 -0.3290 -0.0017
30035W        W45844   1.149  16.653  12.175  0.2647 -0.2213 -0.1080
30036W        W45845  14.452  16.665   0.159  0.0073 -0.0043 -0.2274
30037W        W45846   7.680   4.254   4.042 -0.0964  0.0603 -0.1435
30038W        W45847  15.226  12.403   1.072 -0.0274  0.1125  0.1074
30039W        W45848  10.405   7.083   1.042  0.1718 -0.0848  0.1826
30040W        W45849  12.171   3.552   0.287 -0.4214 -0.0373 -0.0135
30041W        W45850   2.920  18.825   3.550 -0.0415  0.0232  0.0630
30042W        W45851  12.305   1.164  11.045 -0.1719  0.1614  0.2536
30043W        W45852   8.728   1.988   0.083 -0.0128 -0.2286 -0.1482
30044W        W45853   9.793   7.730  14.468 -0.1346  0.1687  0.0076
30045W        W45854   9.300  12.267   2.033 -0.0871 -0.0486 -0.1835
30046W        W45855   0.336   4.321   5.308  0.0988 -0.3636  0.1955
30047W        W45856  11.056  12.922   0.704 -0.2007  0.5855 -0.0673
30048W        W45857  15.183   3.957  15.176  0.2842 -0.0610 -0.1678
30049W        W45858  11.775   7.163   3.643 -0.4356 -0.0578  0.2525
30050W        W45859  17.143   6.994   4.498 -0.2638 -0.3336 -0.1755
30051W        W45860   7.784   0.323   4.089 -0.0331 -0.0137  0.2461
30052W        W45861   8.454   3.707  13.109  0.2543 -0.1826 -0.1583
30053W        W45862   2.970  13.359   3.158 -0.1538  0.0909  0.0533
30054W        W45863  12.032   0.621   5.041  0.0363  0.1160  0.4387
30055W        W45864  15.980  11.008  11.523  0.0717 -0.0923 -0.0359
30056W        W45865   5.173  17.860   4.568 -0.3343 -0.1828 -0.0395
30057W        W45866   7.783  18.248   2.410  0.0007  0.1461 -0.3538
30058W        W45867   6.666   6.339  12.895  0.1040 -0.0150 -0.2701
30059W        W45868   0.674  10.828  13.572 -0.1494  0.0628 -0.0889
30060W        W45869  12.940   7.245   1.717  0.1162  0.0319 -0.1008
30061W        W45870   8.316   8.549  14.490  0.0852  0.1111  0.0740
30062W        W45871   7.224  17.592   1.458 -0.1244  0.1989  0.0895
30063W        W45872   4.218  13.386  13.025 -0.1606 -0.2053 -0.2394
30064W        W45873   6.918   3.916   4.801  0.0689  0.0979 -0.1368
30065W        W45874  17.799   4.602  13.353 -0.0312  0.2139  0.0327
30066W        W45875   9.659   2.008   2.718 -0.0663  0.0137  0.1354
30067W        W45876  13.698  13.576   1.163  0.1583 -0.0950 -0.1378
30068W        W45877   4.253  11.738   3.535  0.0322  0.1456 -0.0163
30069W        W45878   3.327   7.159   5.715 -0.0443 -0.2935  0.0349
30070W        W45879  17.337  15.716   1.791 -0.1125 -0.0734 -0.0278
30071W        W45880  17.499  10.495   3.305 -0.0129 -0.0599  0.0301
30072W        W45881  18.497  18.590   2.198 -0.2876  0.1850  0.1394
30073W        W45882  12.374   2.633   5.782 -0.0180 -0.3474 -0.2649
30074W        W45883   6.823   3.411  12.068  0.0697  0.1798  0.1152
30075W        W45884   0.118  15.550   2.601 -0.2260  0.4028 -0.2009
30076W        W45885  14.928   7.304   1.835  0.2078 -0.0481  0.0286
30077W        W45886   0.896  10.796  10.343  0.1434 -0.1043 -0.1478
30078W        W45887  15.935  18.214   3.600  0.0618 -0.2122 -0.0940
30079W        W45888   6.954   6.336   2.763  0.0544  0.3434 -0.0955
30080W        W45889   0.561   5.581  12.682  0.1365  0.0557  0.0455
30081W        W45890   3.627   1.823  10.983  0.1918  0.2071 -0.1777
30082W        W45891  13.078  10.903  12.990  0.1213  0.1749 -0.3218
30083W        W45892   3.249   0.432   1.153 -0.1788 -0.0576 -0.2794
30084W        W45893  10.138   8.115  10.750  0.2082  0.0150  0.0279
30085W        W45894   9.298  16.403  15.134 -0.0738 -0.0946  0.0034
30086W        W45895   7.555  12.082  13.799 -0.0856 -0.2729  0.1310
30087W        W45896  14.451  17.815  12.072  0.3073  0.1912 -0.0962
30088W        W45897  16.964   6.286  14.809 -0.0983  0.2169  0.2319
30089W        W45898   2.860   3.700   1.963  0.1140  0.1087  0.2205
30090W        W45899  16.616   7.075  14.075  0.0204  0.1230 -0.1296
30091W        W45900   4.538  17.238   3.622  0.1271 -0.3927 -0.2551
30092W        W45901   3.392  16.652   0.450  0.1719 -0.1845 -0.0005
30093W        W45902   5.872   6.265  14.657  0.0888  0.2575 -0.1833
30094W        W45903  14.343   2.808   1.686  0.2768 -0.3252 -0.0681
30095W        W45904  12.422  17.781  11.072  0.2764 -0.1307 -0.2306
30096W        W45905  17.217   2.301  14.354 -0.1136 -0.2622  0.1164
30097W        W45906   5.568  11.453  14.795 -0.4318  0.1142 -0.1584
30098W        W45907   3.241  11.159  15.181 -0.1185  0.0403 -0.2110
30099W        W45908  10.454   6.369   0.808  0.4540  0.1055  0.1499
30100W        W45909   0.396   5.776  12.053  0.3518  0.1667  0.3215
30101W        W45910  17.967  10.327   3.383 -0.2439  0.0370  0.1375
30102W        W45911   9.949   1.338   1.784  0.0131  0.0185 -0.0377
30103W        W45912  15.932  17.848  12.166 -0.3275 -0.0684  0.0205
30104W        W45913   1.386  13.221   3.088  0.1858 -0.3715 -0.0596
30105W        W45914  13.521   7.862  10.731  0.4086 -0.3534  0.1952
30106W        W45915  11.750  16.960   3.500 -0.1377  0.1357  0.0381
30107W        W45916   6.468  14.888  10.639 -0.2929  0.2436  0.1138
30108W        W45917   8.838  11.410   0.548  0.2117  0.1575 -0.0038
30109W        W45918   5.058  15.501  11.574  0.0095 -0.0963 -0.2297
30110W        W45919   0.836  14.313  14.364  0.0219 -0.3929 -0.1334
30111W        W45920  12.883  13.690   5.893 -0.0142 -0.1330 -0.2989
30112W        W45921  16.448   2.415   3.800  0.4171  0.2300  0.3084
30113W        W45922   4.259   5.807   0.902 -0.1319 -0.2832 -0.2031
30114W        W45923  11.759  16.049   0.325  0.0515  0.0741 -0.0747
30115W        W45924  14.615   1.040  11.585 -0.0685  0.0609  0.2064
30116W        W45925   3.281   0.792   9.519 -0.1654 -0.1749 -0.0585
30117W        W45926   1.803  18.292  11.757  0.2063  0.1233  0.1455
30118W        W45927   5.266  18.732   3.546  0.2928  0.0474 -0.1197
30119W        W45928   1.703  11.633   3.963 -0.2833 -0.0895 -0.2832
30120W        W45929  15.387  16.405  13.122  0.1435 -0.3311  0.2118
30121W        W45930   8.846   2.142   4.536 -0.0238  0.1103  0.1269
30122W        W45931   1.199   2.378   2.857  0.1108 -0.2314 -0.0994
30123W        W45932  17.844  13.887  12.398 -0.1087  0.1463 -0.1440
30124W        W45933  14.570  14.595   3.899  0.1078 -0.1799 -0.1800
30125W        W45934  12.338   9.821   0.798  0.0792 -0.1368  0.0171
30126W        W45935  16.404  16.124   0.699  0.1674 -0.2036 -0.0358
30127W        W45936   4.006   6.436   1.051 -0.2932 -0.0041  0.0256
30128W        W45937   6.991  16.905  10.239 -0.2957 -0.0809  0.0090
30129W        W45938  12.933   7.136  14.256  0.0773  0.2885  0.4010
30130W        W45939  15.625  18.408   1.782  0.1670  0.2113 -0.2013
30131W        W45940  16.833  11.880  11.816 -0.0960 -0.2112  0.1117
30132W        W45941  11.198  13.172   0.022  0.2313  0.2419 -0.2063
30133W        W45942  12.163  13.068   0.452  0.0903 -0.0239  0.2079
30134W        W45943   3.530   5.647   1.757  0.2642  0.0409  0.0080
30135W        W45944   0.210   3.591  12.129  0.1354  0.1516 -0.1284
30136W        W45945   9.748   9.817  14.560 -0.3367  0.3200 -0.1451
30137W        W45946   7.585  12.259   0.852  0.1436  0.0712  0.1682
30138W        W45947   8.515  15.449  13.683  0.0924 -0.1390  0.2068
30139W        W45948   0.012  15.923   3.407 -0.1560 -0.0727  0.1577
30140W        W45949  12.385  16.296  12.116  0.0223 -0.0774 -0.4116
30141W        W45950  10.881   8.914   5.287 -0.0193  0.1010  0.1533
30142W        W45951   5.307  17.176   0.663  0.1251  0.0243  0.1864
30143W        W45952   8.022   6.461  10.148 -0.0913  0.1198  0.1354
30144W        W45953   0.616   3.999  12.962  0.1375 -0.5289 -0.0018
30145W        W45954   4.481   0.365  14.332  0.3703  0.3993  0.3733
30146W        W45955  11.255  18.833   2.109 -0.1265  0.1608 -0.0962
30147W        W45956  14.168  13.459  14.202 -0.0004 -0.0520 -0.0156
30148W        W45957  11.116  15.390   2.771 -0.2855 -0.1055 -0.0463
30149W        W45958   4.109   3.317  12.687 -0.0669 -0.1515  0.0226
30150W        W45959   3.948  16.480  11.575 -0.0083 -0.1567 -0.1880
30151W        W45960   9.339   9.337   4.035 -0.1205 -0.2172 -0.2866
30152W        W45961  14.324   5.776   2.451  0.0308  0.1487  0.1385
30153W        W45962   2.023  14.167   2.522  0.2938  0.1627 -0.0118
30154W        W45963   6.366  11.470  10.068  0.0759 -0.0767  0.3824
30155W        W45964  16.516  18.430   2.276 -0.4362 -0.0865  0.0223
30156W        W45965   5.831   6.375  12.812  0.2628 -0.2222 -0.1055
30157W        W45966  14.762   7.539   1.018  0.0654 -0.2620 -0.1944
30158W        W45967   6.745   7.466  13.991  0.1550 -0.0116 -0.1169
30159W        W45968   1.061   1.520   5.215  0.1258 -0.2237 -0.0207
30160W        W45969   6.304   0.909  13.121  0.0224  0.2865  0.2539
30161W        W45970  14.838   4.526   0.981  0.2036 -0.0860 -0.2489
30162W        W45971   5.909   7.759  10.763  0.1552 -0.0294  0.0652
30163W        W45972   9.713   4.963  15.105 -0.1326 -0.2420  0.0294
30164W        W45973   3.704   4.125  11.542 -0.0359  0.1524  0.3271
30165W        W45974   0.994  11.142  11.421  0.1890  0.4324 -0.3068
30166W        W45975  10.713   9.749  10.959  0.1143  0.2283  0.2255
30167W        W45976  13.555  13.533  11.272 -0.0980 -0.0968  0.1937
30168W        W45977  13.660  13.099   0.051  0.2119  0.2459 -0.0778
30169W        W45978  12.135  17.006   2.346 -0.1542 -0.1730 -0.0551
30170W        W45979  12.235   4.377   2.668 -0.0210  0.1145  0.1738
30171W        W45980   8.407   2.294  14.054 -0.0221 -0.0195 -0.0769
30172W        W45981  13.064   0.592  11.097  0.1576  0.0035  0.1898
30173W        W45982   4.826  12.919  12.922 -0.1766  0.1867  0.1491
30174W        W45983  18.435   5.929  11.000  0.1611 -0.3365 -0.1360
30175W        W45984  16.154   4.778  13.513  0.0595  0.3286 -0.3423
30176W        W45985  10.095  11.778  13.694  0.4313 -0.2366  0.3324
30177W        W45986   8.328   1.740  13.874  0.2359 -0.1407 -0.1456
30178W        W45987   5.852   9.557   1.531 -0.0244 -0.2363 -0.1155
30179W        W45988   0.195  11.199   3.601 -0.4505  0.0890 -0.0984
30180W        W45989  11.803   4.765   5.303  0.1685  0.2431  0.0834
30181W        W45990   1.905  14.104   1.718 -0.1910  0.2679 -0.2527
30182W        W45991   2.073   5.478  12.004  0.0248 -0.0259 -0.3082
30183W        W45992   6.374   4.376   1.382 -0.0862  0.3852 -0.3855
30184W        W45993  15.992  10.942  10.866  0.0739  0.1792  0.4344
30185W        W45994   6.068   8.431   5.431  0.2317 -0.4181 -0.2699
30186W        W45995   9.554   8.201   4.785  0.0612  0.1456 -0.2379
30187W        W45996   5.264   4.635  12.301  0.0279  0.1261 -0.1281
30188W        W45997   3.143   0.828   1.932  0.0585 -0.3169  0.0623
30189W        W45998  12.690  12.777  15.155 -0.0915  0.1676  0.2393
30190W        W45999   7.774   3.106  10.037  0.1582 -0.0718 -0.3549
30191W        W46000  15.610   5.011  12.214  0.1119  0.0331 -0.0335
30192W        W46001   7.276  12.880   1.889 -0.2925  0.0624  0.2704
30193W        W46002   8.350   9.655   2.957 -0.1470 -0.1076 -0.0904
30194W        W46003   2.542  16.077   9.659  0.1155 -0.0756 -0.2354
30195W        W46004   0.449   1.298   0.756 -0.3924  0.0798 -0.2331
30196W        W46005   7.287  18.827   3.483  0.1658 -0.3460  0.3785
30197W        W46006  17.564   7.802  11.529  0.1965  0.1162  0.1604
30198W        W46007   6.974  11.365   3.148 -0.1086  0.0441 -0.1004
30199W        W46008  10.181  10.987   1.476  0.0868 -0.1413  0.1781
30200W        W46009   4.648   5.458  11.911  0.0474 -0.1735 -0.2715
30201W        W46010   6.457  16.925  12.258 -0.2063  0.1448 -0.0057
30202W        W46011   5.516  13.854  14.407 -0.0735  0.0555  0.0505
30203W        W46012  14.536  15.292   3.214  0.1138 -0.0456 -0.0007
30204W        W46013   9.128  16.402   2.063 -0.1260  0.0096 -0.3550
30205W        W46014  13.604  13.583  13.274  0.0143  0.0481  0.0204
30206W        W46015   9.804  17.326   2.988 -0.1061 -0.0422 -0.1191
30207W        W46016   7.349   2.689  14.622 -0.0181 -0.1304  0.1177
30208W        W46017  12.144   4.786  13.670  0.2334  0.0741  0.0154
30209W        W46018   2.376   9.383  11.172 -0.0484  0.0403  0.0934
30210W        W46019  17.341   2.508   2.285 -0.1392  0.0944  0.1300
30211W        W46020  16.507  14.695  14.605  0.1003  0.0753  0.3004
30212W        W46021   0.459   8.780  15.044 -0.1347  0.0758  0.0069
30213W        W46022   4.469  13.983  12.220 -0.0688  0.0909 -0.1440
30214W        W46023  11.019  11.054   1.795  0.1488 -0.1688  0.1806
30215W        W46024  11.963   0.410   1.976 -0.1923 -0.0718  0.2163
30216W        W46025   4.278  16.829  10.634 -0.0786  0.0418  0.0689
30217W        W46026   5.037   9.526   4.262  0.1619  0.1568  0.0463
30218W        W46027   3.032  14.958   4.157  0.3313 -0.2717 -0.0948
30219W        W46028   8.996   9.361   0.490 -0.1106  0.1116  0.0867
30220W        W46029   9.841  10.751  13.219  0.0623 -0.0862 -0.2089
30221W        W46030   6.969  14.576   2.838 -0.0221  0.0525  0.0420
30222W        W46031  14.378  10.105  15.107  0.1874  0.0160 -0.1054
30223W        W46032   8.353  16.997  13.214 -0.1155  0.1577  0.0495
30224W        W46033   0.976  15.058   4.373  0.1944  0.0839 -0.1287
30225W        W46034  12.078  18.353  13.539 -0.0188  0.2350  0.1844
30226W        W46035   1.841  11.350  14.283 -0.0285 -0.2971  0.1407
30227W        W46036  10.382  18.739   2.138  0.0143 -0.2064 -0.1043
30228W        W46037  16.177  18.254   1.587 -0.3817  0.3346  0.0058
30229W        W46038   4.193   8.267   3.228 -0.2810  0.0530  0.0649
30230W        W46039  11.039  11.115  14.241  0.3742  0.3779 -0.1173
30231W        W46040   4.051   8.096   4.232 -0.0404  0.0209 -0.2193
30232W        W46041   4.027  10.301   4.731 -0.3960  0.0222 -0.1116
30233W        W46042   0.113  13.756  10.676  0.0990  0.2159  0.0077
30234W        W46043  17.117  13.727  13.340 -0.1883 -0.1914 -0.1419
30235W        W46044  17.808   8.679  12.433 -0.2656  0.0479 -0.4422
30236W        W46045   5.892  13.245   1.752 -0.4235  0.0573 -0.5215
30237W        W46046  11.593   9.921   2.142 -0.1925 -0.1358  0.1633
30238W        W46047  15.727   6.309   0.763  0.1442 -0.1882  0.0026
30239W        W46048  11.657  14.777   3.685 -0.0256 -0.1284 -0.1783
30240W        W46049   5.329   3.131   4.406 -0.0610 -0.2321 -0.3199
30241W        W46050  10.437   4.525   4.953 -0.0708 -0.3609 -0.0165
30242W        W46051   6.163  15.429  13.311  0.0446 -0.1105  0.0460
30243W        W46052   0.555   4.004   9.892 -0.0293  0.1282  0.1157
30244W        W46053   9.381  15.772  12.158  0.2842  0.1071  0.2123
30245W        W46054  17.441  17.855   3.731  0.2157  0.0791  0.2070
30246W        W46055   8.529  11.197   2.336  0.0983  0.0590  0.2728
30247W        W46056  12.798   5.321   1.225 -0.0249 -0.2437 -0.2822
30248W        W46057   7.213  17.798   0.599 -0.0913  0.2920 -0.2788
30249W        W46058   9.600   0.909   3.891 -0.0742 -0.0320  0.0607
30250W        W46059   9.591   0.347  12.076 -0.0658  0.0176 -0.0681
30251W        W46060  13.309  18.190  14.965 -0.1653  0.0039  0.2205
30252W        W46061  18.569   2.901  12.442  0.0920 -0.5205 -0.0469
30253W        W46062  17.186  10.478  13.228 -0.0632  0.0442  0.1242
30254W        W46063  16.969  11.554   3.807 -0.1137  0.1289  0.3215
30255W        W46064  11.888   9.868  11.826 -0.0887  0.2947  0.0300
30256W        W46065   3.568  15.046   2.288 -0.0978  0.1248 -0.4419
30257W        W46066  13.941   7.236  13.957 -0.0019  0.0464  0.1007
30258W        W46067   1.366  12.740  10.207 -0.1529 -0.1884  0.2471
30259W        W46068  18.883   6.240  14.843  0.2562  0.0238 -0.0762
30260W        W46069  13.340   3.704  10.879  0.1200  0.1954 -0.1684
30261W        W46070  16.802   4.978   5.000 -0.0163 -0.0782  0.0655
30262W        W46071   4.614   6.247  11.242  0.1776 -0.0420  0.0136
30263W        W46072  10.474   5.132  10.610  0.0846 -0.2041 -0.3422
30264W        W46073  17.114  14.990  15.300  0.2423 -0.0517 -0.1449
30265W        W46074  13.773   5.444   4.109  0.2644 -0.1179  0.0874
30266W        W46075  17.424  12.057   2.169 -0.1012 -0.1393  0.1005
30267W        W46076   5.204  12.278  15.219 -0.1801  0.1675  0.1045
30268W        W46077   1.432  10.168   2.180  0.2000  0.0122 -0.0140
30269W        W46078  10.884   6.044   0.850 -0.0462 -0.0632 -0.2947
30270W        W46079   2.186   3.761   4.265  0.0448  0.1887  0.2420
30271W        W46080   4.813   3.755  15.168  0.2110  0.0758  0.0226
30272W        W46081  16.928   6.876   3.989 -0.1763 -0.0028  0.1696
30273W        W46082   7.664   3.826  12.719 -0.1588  0.0356  0.1301
30274W        W46083   4.715  16.535   5.150  0.1940 -0.1172 -0.0566
30275W        W46084  10.613  13.405  12.395  0.0582  0.0569 -0.4759
30276W        W46085  10.422   0.009   4.776 -0.2164  0.0562 -0.0575
30277W        W46086   5.151   1.980   4.308  0.4000 -0.3165  0.0652
30278W        W46087   4.966  16.714  10.239 -0.0187  0.1009 -0.1394
30279W        W46088   5.110  13.315  11.103  0.2633  0.2161 -0.0928
30280W        W46089  13.923  10.396   1.610 -0.0622  0.0649 -0.1799
30281W        W46090  16.660   0.626  13.364 -0.2745  0.0483  0.0675
30282W        W46091  15.877  14.284  15.136  0.0889  0.0917  0.3237
30283W        W46092  11.316   0.412  11.064 -0.2798  0.3858  0.0798
30284W        W46093  12.152   6.937  15.023 -0.2303 -0.4847 -0.0544
30285W        W46094   9.595   5.581   0.805 -0.0535 -0.2701  0.0055
30286W        W46095  15.337   3.792  11.995 -0.1294 -0.3788  0.0729
30287W        W46096  18.736   7.633  11.948  0.1434 -0.0123 -0.4241
30288W        W46097  11.758  11.023   0.192 -0.0213  0.1106 -0.0048
30289W        W46098  16.000   5.571  13.496 -0.0447 -0.0635 -0.2198
30290W        W46099   2.627   2.783   0.325  0.0670  0.0330  0.1149
30291W        W46100   5.781   2.141   1.194 -0.3819 -0.4807  0.1898
30292W        W46101  11.007  13.123  14.662 -0.2823 -0.0059 -0.1823
30293W        W46102   1.339  10.620   0.047 -0.2005  0.0626 -0.0821
30294W        W46103  16.414  16.652   0.157  0.3030  0.3751 -0.0264
30295W        W46104  15.455   0.885  11.479 -0.0292  0.2105 -0.0452
30296W        W46105  16.899  13.535   2.871  0.0426 -0.1012 -0.3254
30297W        W46106   2.043  12.912   5.286 -0.1066  0.2551 -0.2134
30298W        W46107   8.331   3.284   1.672 -0.1877 -0.1767 -0.0939
30299W        W46108   9.829  15.961   1.031 -0.2015  0.1664 -0.0183
30300W        W46109  15.235  16.087   5.521  0.2536 -0.0577 -0.0788
30301W        W46110  10.929  16.901   1.703 -0.2070 -0.2935 -0.1223
30302W        W46111   6.549   8.444   3.273  0.0831  0.0090  0.2777
30303W        W46112   0.196  10.203  13.133 -0.1492 -0.2647  0.0152
30304W        W46113  17.930   6.945   2.161  0.2128 -0.2045  0.2048
30305W        W46114   8.271  12.139  15.138  0.3173 -0.2284 -0.1302
30306W        W46115   5.638  13.640   1.963  0.1022  0.2866 -0.3411
30307W        W46116  15.564  12.774  11.719 -0.2123  0.1703  0.3101
30308W        W46117   1.579  15.546   2.143 -0.1688 -0.0930  0.1637
30309W        W46118  18.757   7.705  10.637  0.3289  0.1861 -0.1980
30310W        W46119   4.288   5.054  10.313  0.3056 -0.4288  0.0100
30311W        W46120   6.608  17.262  14.017  0.2415  0.2571 -0.0475
30312W        W46121  18.304  18.734   2.986  0.2969 -0.0085  0.0816
30313W        W46122  13.785  14.772  13.457 -0.2700 -0.1101 -0.1269
30314W        W46123   5.707   0.976   0.976  0.0382 -0.2839  0.3299
30315W        W46124   1.090   9.878   0.052  0.2758 -0.1137 -0.1113
30316W        W46125  12.740   1.822   3.580 -0.0903 -0.4405  0.1969
30317W        W46126   7.779  17.186  11.951  0.1350  0.0652  0.0939
30318W        W46127  18.375   7.338   4.463 -0.2039 -0.2184 -0.1151
30319W        W46128  17.434  15.194  14.954 -0.0330 -0.0636  0.1897
30320W        W46129  12.580  14.738   0.277 -0.3971 -0.2160  0.1051
30321W        W46130   3.073   6.213   3.200  0.1474 -0.2476 -0.2843
30322W        W46131  16.072   8.660   1.850 -0.1114 -0.0743  0.1487
30323W        W46132  11.398   6.594  14.593 -0.1027 -0.0332 -0.1371
30324W        W46133   7.213  10.183   4.190  0.1922 -0.2435  0.2128
30325W        W46134   4.837   2.303   4.573 -0.1371 -0.0835  0.0495
30326W        W46135   3.501  10.169  14.514 -0.0421  0.0388  0.4076
30327W        W46136   1.497  14.329   4.724  0.0542 -0.3518  0.1954
30328W        W46137   3.837   8.788   0.393  0.0984  0.0248 -0.4513
30329W        W46138   5.087  15.537  12.617 -0.0264  0.3009  0.0142
30330W        W46139  13.713  18.348  12.109 -0.1572  0.2413  0.1734
30331W        W46140   8.223   6.222   3.276 -0.1693 -0.0909  0.2601
30332W        W46141  10.827   2.363  10.981 -0.4218 -0.0789 -0.0023
30333W        W46142   8.867  10.876  13.043  0.0464 -0.2346 -0.0837
30334W        W46143   3.107   4.898  11.636 -0.3170 -0.0022  0.0310
30335W        W46144   8.187   7.399  14.137  0.1173  0.0474  0.2905
30336W        W46145  15.177   6.882  11.981  0.0136 -0.2070  0.2053
30337W        W46146  11.821   3.742  11.496 -0.1092  0.2594 -0.3240
30338W        W46147  15.887  15.146  11.532  0.2217 -0.1146 -0.1995
30339W        W46148  13.062   1.692  13.889 -0.1081 -0.2068  0.1890
30340W        W46149  10.858   3.436   0.300 -0.1135  0.1507 -0.0894
30341W        W46150  15.649   5.009   1.472  0.0498 -0.0721 -0.1559
30342W        W46151   1.135   2.792  12.883 -0.3936  0.3155  0.2941
30343W        W46152   0.760   4.991  14.923  0.1330  0.0291 -0.2892
30344W        W46153   8.259  11.622  12.759  0.0175 -0.0861 -0.1352
30345W        W46154  14.335  11.794  11.391  0.4161  0.0321 -0.1292
30346W        W46155   7.675   5.592  13.272  0.2024  0.3581  0.1080
30347W        W46156  15.979   9.961  14.640 -0.2802 -0.1150  0.1768
30348W        W46157  15.150  14.553  11.442  0.0156  0.1647  0.5215
30349W        W46158  16.326   0.854  14.257  0.1576  0.2204  0.1633
30350W        W46159  14.964   4.349  15.400  0.0216 -0.1415 -0.0691
30351W        W46160  18.724   8.003  14.963 -0.0964 -0.2882  0.1723
30352W        W46161  11.861  15.007  14.841 -0.0907 -0.1305 -0.1567
30353W        W46162   7.442  14.403   1.718 -0.0318 -0.4307 -0.1802
30354W        W46163  11.298  12.188   4.795  0.0469 -0.2028 -0.1940
30355W        W46164  15.659   9.677  14.407  0.0378  0.1761 -0.4598
30356W        W46165  18.795   2.782  11.748  0.1790 -0.0154  0.2073
30357W        W46166  15.952   2.506   0.446 -0.0821 -0.0385 -0.1460
30358W        W46167   4.406  10.570  13.752  0.0080  0.2879  0.2289
30359W        W46168   8.299   4.894   2.536  0.1190  0.1756 -0.0943
30360W        W46169  14.894   8.743   1.859  0.1773 -0.1710  0.0748
30361W        W46170   2.213  18.804   2.349  0.1254  0.1866  0.0847
30362W        W46171  17.429   0.512  11.271 -0.1162  0.0155 -0.2214
30363W        W46172  13.144  17.206  12.530  0.1908  0.0827 -0.0125
30364W        W46173  12.601   4.938  13.582  0.0968 -0.4207  0.0702
30365W        W46174  17.673   8.307  14.544 -0.1594  0.1241  0.3485
30366W        W46175   7.262   0.413  13.232 -0.1685 -0.0032 -0.1316
30367W        W46176   6.192   5.371   4.679  0.0057 -0.2518  0.0652
30368W        W46177  17.181  17.744  11.806  0.2299 -0.1386  0.2585
30369W        W46178  16.299   6.285   1.771 -0.1829  0.1795  0.1109
30370W        W46179   2.474   6.186   2.461 -0.0197 -0.3424  0.0395
30371W        W46180  16.802   6.046   4.563 -0.1464  0.0112 -0.3033
30372W        W46181  16.730   3.388  14.329  0.1287 -0.1740 -0.0512
30373W        W46182   7.533  12.238  12.302  0.1713 -0.1193 -0.0562
30374W        W46183   8.225   4.291   2.405 -0.0954 -0.0347 -0.0842
30375W        W46184  11.031   5.792  14.700 -0.0466 -0.5422  0.2322
30376W        W46185   7.127   5.133  13.814  0.2297  0.1193  0.1893
30377W        W46186  10.329   4.959  14.256  0.0446  0.0897  0.0797
30378W        W46187  11.096  15.826  10.979 -0.0962 -0.0355 -0.1691
30379W        W46188  14.525   8.970   1.548  0.0016 -0.1499  0.1219
30380W        W46189   0.024  18.913  14.768  0.0168 -0.0395 -0.1170
30381W        W46190  16.638  11.209   4.647 -0.0635 -0.0462 -0.0313
30382W        W46191  13.662  13.980  14.386  0.1743  0.0373 -0.2148
30383W        W46192   2.308   3.738  13.556  0.0579  0.2343 -0.3606
30384W        W46193   1.275  15.405  13.750  0.2270 -0.5160  0.2426
30385W        W46194   5.574   7.511  12.582 -0.4193 -0.0073 -0.0933
30386W        W46195   7.631  17.878   3.379 -0.1609  0.1984  0.1002
30387W        W46196   1.230  17.285   1.757 -0.0120 -0.1421  0.1074
30388W        W46197   1.160  14.935   0.605 -0.1574 -0.1937 -0.0369
30389W        W46198   6.706  15.043  11.522  0.0709 -0.1597 -0.4550
30390W        W46199   1.678   4.197   1.541  0.0717 -0.3325 -0.0944
30391W        W46200  13.783   4.275  13.615 -0.0043  0.2150 -0.0274
30392W        W46201  17.439   3.248   2.083  0.1070 -0.4321 -0.3680
30393W        W46202   5.072   2.798   3.716 -0.0250 -0.1951 -0.1580
30394W        W46203  10.529   9.634  12.306 -0.1360 -0.2231 -0.1413
30395W        W46204   6.735  11.778   1.318 -0.1548 -0.0870 -0.0722
30396W        W46205  15.787   8.638  11.678 -0.1500  0.1275 -0.0278
30397W        W46206  16.096  18.323  12.344 -0.1611  0.0280  0.1035
30398W        W46207   7.439  17.492  13.002 -0.0518  0.1750  0.0088
30399W        W46208  16.147  13.226   3.354  0.3013 -0.0356 -0.1307
30400W        W46209  15.236   5.697  15.326 -0.1393  0.0889 -0.2295
30401W        W46210  12.581   4.618   4.552  0.3571 -0.1348 -0.4176
30402W        W46211  17.694   2.767  12.409  0.0775  0.0668 -0.1523
30403W        W46212   8.066   5.889  15.179  0.1427  0.1192  0.0964
30404W        W46213   3.131  13.962  14.991  0.1209  0.1932 -0.1536
30405W        W46214   2.628  13.938  10.360  0.1714  0.1015  0.2062
30406W        W46215  13.571  15.667   3.461 -0.2892 -0.0690  0.2332
30407W        W46216   1.470  15.432  14.706  0.1156  0.0127 -0.2221
30408W        W46217  15.064   4.367   3.853 -0.0076 -0.2301  0.1911
30409W        W46218   6.661   7.115  11.841 -0.1948 -0.1820  0.0486
30410W        W46219   4.678  16.799   0.104 -0.0209  0.2407 -0.2730
30411W        W46220  12.167  13.719  15.105 -0.3380 -0.1614 -0.1647
30412W        W46221   9.481   6.785  14.842 -0.2514  0.2584 -0.1483
30413W        W46222   1.977  13.990  12.001  0.3676 -0.5810  0.3832
30414W        W46223  15.654   5.842   3.990 -0.2021 -0.1908 -0.2151
30415W        W46224   1.323   2.714   2.442 -0.1179 -0.0988  0.1338
30416W        W46225  11.415   5.967   4.843 -0.2255  0.3051 -0.3220
30417W        W46226   3.909  16.660   0.517 -0.2081 -0.2450 -0.2939
30418W        W46227  18.735   2.568   0.665  0.0128 -0.2157 -0.0265
30419W        W46228   1.659   3.676   2.523  0.3241 -0.1187 -0.1960
30420W        W46229   1.719  11.727  11.218 -0.0031  0.1568 -0.4144
30421W        W46230   1.012   0.714  13.545  0.0228 -0.1183 -0.4528
30422W        W46231   9.395  18.475  11.707  0.4030  0.0668  0.0814
30423W        W46232  17.730   2.712   3.082 -0.0840 -0.1560 -0.0473
30424W        W46233  12.412  14.028   5.231  0.2245 -0.0277 -0.0165
30425W        W46234   6.813  12.379   0.947  0.1491 -0.1704  0.0105
30426W        W46235   9.451   5.231  11.860  0.0908  0.0860 -0.0256
30427W        W46236  15.793  11.235  10.540 -0.0513 -0.1360  0.2930
30428W        W46237   3.497  14.288  12.018  0.2789  0.1639  0.0107
30429W        W46238  15.042  15.953  11.496  0.1063 -0.2364  0.0782
30430W        W46239   3.288  15.848   0.792  0.3712 -0.0264 -0.3406
30431W        W46240   7.179  15.542   4.128 -0.1371 -0.3859 -0.2659
30432W        W46241   6.406  11.384  15.120 -0.1034 -0.1613  0.1474
30433W        W46242  10.279   5.330   1.946 -0.1114 -0.1809 -0.0420
30434W        W46243  10.254   1.196   4.679  0.3439  0.1397  0.2785
30435W        W46244   9.925  13.067   2.175  0.3089 -0.0771 -0.0182
30436W        W46245   8.152  10.763  14.656 -0.3183  0.1130  0.0213
30437W        W46246   0.216   7.834   4.757  0.1893 -0.0509 -0.2494
30438W        W46247  15.402  15.056  14.651  0.0744  0.1905 -0.1778
30439W        W46248  17.407  11.305   1.041 -0.0624 -0.0230 -0.0176
30440W        W46249   4.430   1.485  14.314  0.0078 -0.2339  0.2403
30441W        W46250  17.115   7.180  15.321 -0.1565 -0.4160  0.1977
30442W        W46251  17.112   7.626  11.075  0.1947  0.2579 -0.0170
30443W        W46252   0.576  14.290   5.495  0.1006 -0.1374  0.1281
30444W        W46253  14.358   6.615   1.597  0.5458 -0.0131 -0.3680
30445W        W46254  14.802  18.347  13.839  0.0233  0.0268  0.0367
30446W        W46255   7.026  13.716   4.170 -0.0038  0.0671  0.2745
30447W        W46256   3.016  18.478  14.671  0.0670 -0.2512 -0.1100
30448W        W46257  17.695  18.619  13.908 -0.0389  0.1130  0.0693
30449W        W46258  10.846  11.014  14.813 -0.0114  0.1198  0.2314
30450W        W46259   9.768   5.786   0.004 -0.0575 -0.1419  0.2718
30451W        W46260  16.753   1.506   1.006 -0.1551  0.1005  0.2572
30452W        W46261  18.337  17.097   3.209  0.1237 -0.0598  0.1174
30453W        W46262   7.207   0.935  11.058  0.2759  0.2389 -0.2932
30454W        W46263   6.794  17.286   0.688  0.0973 -0.1680  0.0864
30455W        W46264  16.201   8.410  15.392 -0.0493 -0.1561 -0.1422
30456W        W46265  12.762  16.761  14.848 -0.0015 -0.1113  0.0458
30457W        W46266  18.743  16.180  12.936  0.3952 -0.2440 -0.1453
30458W        W46267  18.656   3.732   3.989  0.4216 -0.0855 -0.1206
30459W        W46268  15.330  16.311   0.376 -0.2071 -0.3110  0.0750
30460W        W46269  17.746  10.845   1.825 -0.1939 -0.3024  0.0764
30461W        W46270  17.756   4.260  14.838  0.0321 -0.1611 -0.0101
30462W        W46271  17.621  12.035   2.643  0.2848 -0.1343  0.1577
30463W        W46272   2.864  12.867  15.320  0.3053  0.3611  0.0486
30464W        W46273  16.816  13.868   3.273 -0.1639  0.0111 -0.0293
30465W        W46274   7.094  17.861  14.572  0.2876 -0.1415  0.2373
30466W        W46275  13.121   4.799   2.986 -0.0555 -0.0316  0.1315
30467W        W46276   8.626   5.468   3.843 -0.1269 -0.0936  0.2087
30468W        W46277  16.180   4.829   1.688 -0.1503  0.0615 -0.1036
30469W        W46278   7.429  10.313  14.801  0.4035 -0.3016  0.1457
30470W        W46279  10.151   8.596  11.588  0.2743  0.1377  0.0576
30471W        W46280   4.213  12.124  10.079  0.0943 -0.0035  0.1991
30472W        W46281   4.023  12.858   2.774  0.1011 -0.1235  0.1199
30473W        W46282   8.352   7.582   4.473 -0.0035 -0.3668 -0.0106
30474W        W46283  17.280   6.056  11.669 -0.0558  0.1593  0.2332
30475W        W46284   0.361   8.790   0.806 -0.1769  0.1150 -0.0185
30476W        W46285  18.413   9.757   3.203  0.2212  0.2044 -0.0620
30477W        W46286  14.873  14.214   4.655 -0.1231  0.0676  0.1978
30478W        W46287  10.921  15.835  15.213  0.1317  0.2410  0.1935
30479W        W46288   3.815   1.929  11.992 -0.2373 -0.1986 -0.1136
30480W        W46289   6.232   6.914  10.878  0.2762  0.0665 -0.0926
30481W        W46290   2.114  12.813  10.870  0.1900  0.1329 -0.1198
30482W        W46291  15.366  17.817  12.342  0.2751  0.1013 -0.0470
30483W        W46292   8.009   9.585  13.027  0.2150 -0.0154  0.0018
30484W        W46293  17.849   0.548  13.224  0.1019  0.0343  0.1778
30485W        W46294   3.323   4.870   0.985  0.1764 -0.3111  0.0615
30486W        W46295  18.523  10.288   4.185  0.2068 -0.2835 -0.1156
30487W        W46296  17.088   0.390  12.998 -0.1165  0.0400 -0.4081
30488W        W46297   3.609   2.100   0.467 -0.0415 -0.2744  0.0309
30489W        W46298   6.467   3.782  12.887 -0.2853 -0.0611 -0.1531
30490W        W46299   7.736   0.622  12.491 -0.2410 -0.1398 -0.0411
30491W        W46300  10.012   9.849   4.518  0.0763  0.4223 -0.1034
30492W        W46301  15.844  11.666   0.108  0.0573 -0.0364  0.1173
30493W        W46302   1.949   6.323   2.345  0.0029 -0.3453 -0.3514
30494W        W46303   4.022   9.214   2.471  0.3322 -0.1519 -0.1926
30495W        W46304   2.674   5.310   0.345  0.1091 -0.3643  0.3017
30496W        W46305   4.043   0.023   5.501 -0.0800  0.0151  0.0127
30497W        W46306   8.952  13.958   1.107  0.0838  0.0366 -0.2734
30498W        W46307   0.273   5.067   1.923 -0.0600  0.0946 -0.0013
30499W        W46308  15.522   5.116   5.047  0.0524  0.0420  0.4010
30500W        W46309  16.121   8.640   4.038 -0.2985 -0.1399  0.0206
30501W        W46310   0.256  15.804   3.863 -0.1554  0.0131 -0.0758
30502W        W46311   9.060   5.539  10.604  0.1383 -0.0506  0.1913
30503W        W46312   9.562   9.807  12.652 -0.1487  0.0744 -0.3806
30504W        W46313  14.174   5.267   2.782 -0.2711 -0.0988  0.0202
30505W        W46314  17.264  13.614   5.500 -0.1248 -0.0222 -0.1830
30506W        W46315   9.637   6.150  11.259  0.0675 -0.5052  0.1488
30507W        W46316  11.912   1.098  14.568  0.0934 -0.1354 -0.0425
30508W        W46317  18.436   0.621   1.633 -0.0963  0.0983 -0.1137
30509W        W46318   0.717   7.943   4.549 -0.2028 -0.0513  0.0537
30510W        W46319  17.881   3.639  11.461  0.3678  0.0769  0.2403
30511W        W46320   7.047   8.707   4.443 -0.0011  0.1384  0.0164
30512W        W46321   1.804  15.936   1.865  0.1642  0.3719  0.2993
30513W        W46322   4.558   4.061   3.532  0.0312 -0.0282 -0.3049
30514W        W46323  10.135  16.665   1.841 -0.4916  0.1049 -0.0722
30515W        W46324  18.621  18.254  15.417  0.2466  0.2179 -0.0380
30516W        W46325  16.134   3.004   1.321 -0.1419 -0.1022 -0.0507
30517W        W46326   3.555   3.449  11.446  0.2053 -0.2029 -0.2349
30518W        W46327   6.016  11.616  14.855  0.2288 -0.5518 -0.3826
30519W        W46328  15.710   6.820  15.007  0.0867 -0.1181  0.6656
30520W        W46329  16.162  15.992   3.745 -0.0711 -0.0089  0.2006
30521W        W46330  18.684  11.052   0.026  0.2154 -0.0142  0.0125
30522W        W46331  12.787  14.643   1.131  0.2321  0.3697  0.0759
30523W        W46332   0.840   1.105  13.210  0.1436  0.0562  0.0431
30524W        W46333   1.022  13.050  10.028  0.2218 -0.0033  0.1459
30525W        W46334  15.698   0.490   3.423  0.1997 -0.1054 -0.3837
30526W        W46335  14.307  13.551   0.399 -0.1704 -0.1884  0.0423
30527W        W46336   6.900  15.871  14.297  0.2340 -0.0233  0.3722
30528W        W46337   3.661   4.012  12.518  0.1277  0.2172  0.1061
30529W        W46338  11.664  11.270   2.592  0.0719 -0.0973  0.0051
30530W        W46339  18.838   6.041   4.591  0.1706 -0.2569 -0.0994
30531W        W46340   4.679  12.400  11.260  0.2472  0.0699  0.0506
30532W        W46341  14.909   4.238  10.447 -0.2158 -0.1452 -0.0227
30533W        W46342   2.449  16.014   2.557 -0.0321  0.0766 -0.1306
30534W        W46343  15.197  18.697   3.812 -0.1581  0.1342 -0.3748
30535W        W46344   0.628  18.586   0.801  0.0205 -0.0576  0.0864
30536W        W46345  13.183  10.225  15.402  0.1691  0.1915 -0.2511
30537W        W46346   6.703  10.592   0.531  0.0229  0.2284 -0.0029
30538W        W46347  14.198  18.381  14.340 -0.2615  0.2665  0.0276
30539W        W46348   0.174   4.067   3.321  0.3014 -0.0943  0.2621
30540W        W46349  16.599  14.221   3.812  0.1315 -0.2245  0.1007
30541W        W46350  13.749  13.169  12.993 -0.1046  0.3171 -0.2238
30542W        W46351  12.257   3.356   1.692  0.2422  0.0490  0.2074
30543W        W46352   6.473  18.053  15.074 -0.0628 -0.2915  0.0359
30544W        W46353   8.244   2.704   3.330  0.1656  0.2696  0.1279
30545W        W46354   3.396  15.386  10.738 -0.0778 -0.3292 -0.0802
30546W        W46355   8.059  18.132  12.383  0.3658 -0.0460 -0.0567
30547W        W46356   5.036  15.992  12.368 -0.2556 -0.1108  0.2440
30548W        W46357   2.509  13.274   5.634 -0.1943 -0.0215  0.1517
30549W        W46358  10.660   8.089  10.849  0.3108  0.0842  0.0607
30550W        W46359  11.635  12.841   3.463  0.1072 -0.1908  0.1048
30551W        W46360   1.243   4.596  12.178  0.0938  0.1570  0.3662
30552W        W46361   8.197   2.927  13.538  0.1331 -0.1742 -0.2155
30553W        W46362  17.844  16.609  14.554 -0.3741 -0.0238  0.0150
30554W        W46363  14.030   4.710  14.867  0.0989  0.1931 -0.1371
30555W        W46364   6.310   6.524   3.935 -0.0406  0.3136 -0.2286
30556W        W46365   4.738   1.516   5.088  0.1981  0.1654 -0.1800
30557W        W46366  17.967   8.098   0.293 -0.4452  0.2489  0.1956
30558W        W46367  12.087   5.505  12.804 -0.2605 -0.1219 -0.0104
30559W        W46368   8.719   1.173   1.340 -0.2388  0.2261 -0.2285
30560W        W46369  15.605  10.623   1.140 -0.0129 -0.2192 -0.1317
30561W        W46370  17.952   2.831   3.902  0.0740 -0.0129 -0.2800
30562W        W46371   3.121  13.256  12.296 -0.0053 -0.0023 -0.0151
30563W        W46372  12.538   3.606   4.181  0.0861  0.1809 -0.2139
30564W        W46373  13.290   8.386   4.944 -0.1978 -0.2787  0.2483
30565W        W46374  12.334   4.676  12.628  0.6294  0.1886 -0.2743
30566W        W46375   9.817   1.798   3.525 -0.3646 -0.2684 -0.1547
30567W        W46376   6.168   2.688   3.151  0.3872  0.1311 -0.4528
30568W        W46377   3.400   4.341  13.409 -0.1493 -0.1755 -0.0248
30569W        W46378   4.534   3.724   9.527  0.2683 -0.1664 -0.4803
30570W        W46379   9.646  12.520   5.047  0.0877  0.0392  0.1825
30571W        W46380   6.891   0.082   3.046  0.0730  0.0818 -0.0219
30572W        W46381   3.499  14.992  13.080 -0.0392  0.0572  0.2782
30573W        W46382   0.443  16.404   4.187 -0.1933  0.4573 -0.2739
30574W        W46383   4.623  13.228  11.103  0.1459  0.0110 -0.0203
30575W        W46384   7.776  18.891   3.188  0.1004 -0.0362  0.2052
30576W        W46385   6.798   2.976  11.307  0.0857  0.1588 -0.0702
30577W        W46386   2.907   8.465  10.448 -0.1629 -0.1697 -0.1868
30578W        W46387  15.022   4.213  13.275  0.1999  0.0556 -0.0171
30579W        W46388   3.239   2.023   3.896 -0.1553  0.1200  0.3198
30580W        W46389  10.351   2.211  12.180 -0.0046  0.0411  0.1025
30581W        W46390  18.015  14.771  12.712  0.2054  0.0472  0.1575
30582W        W46391   0.639   0.012  12.337 -0.1148  0.2544  0.0988
30583W        W46392   4.850   1.027  13.282 -0.0596 -0.1156  0.1675
30584W        W46393   2.082   5.989  11.995  0.0203  0.3275 -0.1040
30585W        W46394   1.181  17.591   0.285 -0.2146 -0.0157  0.0965
30586W        W46395   2.263  18.312  11.536  0.0695  0.0703  0.1073
30587W        W46396   2.488  12.418  12.541  0.3151 -0.0414 -0.1638
30588W        W46397   9.066  17.465   2.150  0.0619 -0.0461  0.1054
30589W        W46398  18.094   5.900   3.324  0.0416  0.5546 -0.0173
30590W        W46399   1.512   8.199  11.958 -0.3167  0.1088 -0.1375
30591W        W46400  13.787   1.946  10.349 -0.1941 -0.2490  0.2090
30592W        W46401   8.896   4.330   2.563 -0.1853  0.2541 -0.1023
30593W        W46402  12.887  13.571   3.728  0.1180  0.2408 -0.0089
30594W        W46403   1.777   7.042   4.263  0.0190 -0.0084 -0.1677
30595W        W46404   5.060   8.129  14.437  0.1108 -0.2035  0.1212
30596W        W46405  13.390   0.090  10.791 -0.0446  0.1283 -0.1929
30597W        W46406   0.653   8.227   5.531 -0.2129  0.2477  0.1864
30598W        W46407   1.617   6.974  13.339  0.1604 -0.1956  0.4952
30599W        W46408   7.643   0.920   4.110  0.1614  0.1953  0.2318
30600W        W46409  17.244   6.706  15.366 -0.4693 -0.0230  0.0112
30601W        W46410   5.809  16.341  15.164 -0.0768 -0.2576  0.2820
30602W        W46411  12.952   9.828   4.209 -0.0745  0.0671  0.0685
30603W        W46412   6.206   4.479  12.374 -0.2830  0.1374 -0.1711
30604W        W46413   8.829  13.773   9.888  0.1835  0.3321 -0.2782
30605W        W46414  12.634  15.621   0.195  0.1473 -0.2078  0.1696
30606W        W46415   0.280  11.105   0.267 -0.0608  0.2524 -0.0563
30607W        W46416  10.274  11.419  14.075  0.0166  0.0070 -0.2695
30608W        W46417   5.569  16.233  11.496  0.1813  0.2101  0.0247
30609W        W46418   9.421   8.370  10.366  0.2635  0.0506 -0.4299
30610W        W46419  15.479   4.522   2.687 -0.0713  0.1328  0.0151
30611W        W46420  16.024   7.970  13.550  0.1642  0.0181 -0.0805
30612W        W46421  16.673   4.573   3.111 -0.0495 -0.1661  0.0102
30613W        W46422   4.703   6.582   2.907 -0.2510  0.4989  0.1645
30614W        W46423  16.300  16.866   3.418 -0.3273  0.1147 -0.0264
30615W        W46424   1.737   9.746  11.990 -0.0186  0.0848  0.2587
30616W        W46425  10.691   4.096   2.285  0.1437  0.1195 -0.0748
30617W        W46426   9.541   9.516   2.183  0.1327  0.1373  0.0117
30618W        W46427  11.932   8.927   2.788 -0.5675 -0.4415 -0.0711
30619W        W46428  14.918  15.569   0.070  0.3384  0.1335  0.0343
30620W        W46429  16.191   1.663  13.452 -0.2347 -0.0386  0.1405
30621W        W46430  14.661   4.167  10.912 -0.1755 -0.0377 -0.2775
30622W        W46431  14.718  11.702   5.488  0.0757  0.0479 -0.0296
30623W        W46432  10.833  13.491  11.688 -0.1039  0.0994  0.0314
30624W        W46433   4.803   7.798   4.918  0.1371  0.1007  0.2441
30625W        W46434   6.252   0.339   4.279 -0.3240  0.2501  0.3025
30626W        W46435   9.161   9.377   4.523 -0.2525  0.1632  0.1191
30627W        W46436   1.400   1.039   1.476 -0.2255 -0.0148 -0.0673
30628W        W46437   9.510  13.406  14.188  0.2628  0.0163 -0.4934
30629W        W46438   6.676   6.757   4.249 -0.2352 -0.2024  0.2935
30630W        W46439  10.218   6.655  13.393  0.2769  0.0329  0.4039
30631W        W46440   2.372  15.689  14.475  0.2639 -0.1134  0.0036
30632W        W46441   3.693  13.617  10.798  0.0344  0.1278  0.1482
30633W        W46442   0.277   3.086  11.188 -0.2936  0.1409  0.0947
30634W        W46443   3.314   4.705  13.071 -0.1443  0.0794  0.0956
30635W        W46444   5.976  14.289   1.348  0.0414  0.0396 -0.2473
30636W        W46445   1.546  14.528  11.599  0.0930 -0.2841  0.0512
30637W        W46446   2.246   9.460   1.074 -0.1995 -0.1575 -0.0775
30638W        W46447   0.782   9.924   0.961 -0.0980  0.2496 -0.0641
30639W        W46448  10.794   2.638   4.765 -0.2528 -0.1029 -0.0945
30640W        W46449  14.935  15.067   0.035  0.2231 -0.0532  0.2046
30641W        W46450  11.902  16.141  13.605  0.1230 -0.0720 -0.0591
30642W        W46451  17.427   2.792  14.294  0.0802 -0.1212  0.0501
30643W        W46452  11.139  16.132   4.480 -0.1220 -0.1013  0.0296
30644W        W46453   1.703   4.554  10.625  0.0635 -0.2851  0.1851
30645W        W46454   7.325  10.604  13.026 -0.0078  0.0263  0.1638
30646W        W46455  12.718  10.810   4.675  0.2424 -0.5245 -0.1423
30647W        W46456   6.027  10.149   3.288  0.0889 -0.1878  0.3032
30648W        W46457   7.610   7.003   0.573 -0.1609 -0.1098  0.0133
30649W        W46458  16.949   2.970  14.516  0.0112 -0.1123 -0.3583
30650W        W46459   5.475  14.151  12.910  0.0059 -0.2330 -0.2433
30651W        W46460  17.589  16.657   1.057  0.1943  0.0179 -0.1157
30652W        W46461  11.471  12.446  12.811  0.4302  0.0577 -0.3632
30653W        W46462  15.933   6.233  15.046  0.1599  0.2343 -0.0692
30654W        W46463   8.012   5.849   1.400  0.1929 -0.0963  0.0254
30655W        W46464   1.824   4.171  13.384 -0.0345 -0.1663  0.1424
30656W        W46465   9.776  17.972   3.332 -0.1308 -0.2699  0.1818
30657W        W46466  15.035  15.795   3.281 -0.0215 -0.1537 -0.0208
30658W        W46467   0.143  18.887   1.370  0.0408  0.5332  0.1534
30659W        W46468  14.422   6.614   3.933  0.0887  0.1044 -0.0030
30660W        W46469  14.652  13.175  12.169 -0.2242  0.0728  0.0747
30661W        W46470  14.868   6.346  11.291 -0.0317 -0.1338 -0.5366
30662W        W46471  14.713   6.106  14.720 -0.1199  0.1364  0.0550
30663W        W46472  11.340  14.719  11.107 -0.1856 -0.0925  0.0933
30664W        W46473   5.002   8.784   0.156  0.2151  0.2133  0.1900
30665W        W46474  10.325   1.690  12.227  0.0235  0.0807  0.2036
30666W        W46475  15.621   5.585   4.466  0.0280  0.1246  0.1101
30667W        W46476   2.641   8.407   1.277  0.0673  0.0714  0.1709
30668W        W46477   2.895   0.400  10.457 -0.0477 -0.0103  0.2674
30669W        W46478   0.657   8.412   9.593  0.2084 -0.1606  0.3221
30670W        W46479  14.818  11.409  13.237 -0.0443  0.1658 -0.0107
30671W        W46480  10.750  11.925  10.599 -0.2712 -0.2008  0.0339
30672W        W46481   7.326   1.173  13.833 -0.1770  0.0440  0.2071
30673W        W46482  18.399  10.212   0.435 -0.3975  0.1562 -0.1156
30674W        W46483  12.237  15.942   0.919  0.3651  0.3194  0.0320
30675W        W46484   7.706  13.136   1.997  0.0330 -0.0243  0.1914
30676W        W46485  16.223  14.130  13.904 -0.2049 -0.2818 -0.2041
30677W        W46486   6.119   0.633   0.763  0.3275 -0.0066 -0.1928
30678W        W46487  11.860   1.924  11.963 -0.2686 -0.0983  0.0181
30679W        W46488   1.219  18.035   4.914 -0.0445 -0.2667  0.0706
30680W        W46489  14.180   5.408  10.717 -0.0553 -0.1053 -0.1844
30681W        W46490  17.714   7.412  14.190  0.0069 -0.0921  0.2612
30682W        W46491  11.649  11.583  13.552 -0.1091  0.0782  0.0805
30683W        W46492   6.522  13.629   0.447  0.1319  0.0392  0.1079
30684W        W46493   7.748  13.236   0.642 -0.0795  0.1261  0.0990
30685W        W46494   7.202  13.285   4.079 -0.1615 -0.0150  0.1050
30686W        W46495  14.754   8.289   5.278 -0.1400  0.0452  0.2431
30687W        W46496   4.182   8.762  12.463  0.0021 -0.3017  0.2727
30688W        W46497  16.817   6.082  11.407  0.1124  0.0275 -0.0069
30689W        W46498  12.629   4.893   1.003 -0.1113  0.0750  0.3295
30690W        W46499   7.035   3.765  13.950 -0.0392 -0.0644  0.1518
30691W        W46500  10.664   1.735   2.398 -0.1069 -0.3679  0.0139
30692W        W46501   4.307  12.797   9.890  0.1196  0.1113 -0.1297
30693W        W46502  18.591   5.459  11.228 -0.1076  0.2222 -0.4284
30694W        W46503   5.323  15.764  10.763 -0.2741 -0.2664 -0.2839
30695W        W46504  17.888   7.963   3.464 -0.1930 -0.0549  0.0301
30696W        W46505  12.732   6.042   2.074 -0.2563  0.2903  0.1190
30697W        W46506   0.351   2.064   3.008 -0.1135 -0.0417  0.0552
30698W        W46507  17.977  12.739  15.329  0.1334  0.0901 -0.1612
30699W        W46508   2.818   2.959   5.703 -0.2092 -0.1819 -0.0035
30700W        W46509   1.692   6.173  11.724  0.1969  0.2968  0.1200
30701W        W46510  15.035  12.621   3.572  0.1587  0.3258 -0.1094
30702W        W46511   8.338   6.009   2.594  0.0144 -0.2660  0.1017
30703W        W46512   2.651   5.749   2.196  0.1273 -0.1974  0.0904
30704W        W46513   1.292  16.350  11.381 -0.0045 -0.2387  0.0605
30705W        W46514  13.160  11.597   5.844 -0.2399  0.0034 -0.3824
30706W        W46515   0.778   6.853  14.706  0.1091  0.2625 -0.1524
30707W        W46516   8.215  11.245  14.776  0.2258  0.0120 -0.1602
30708W        W46517   8.795   3.208  13.202 -0.0807  0.2445 -0.1582
30709W        W46518   8.987  12.474   2.630  0.2180  0.0573 -0.0373
30710W        W46519   4.047   3.220   4.318  0.2075  0.0206 -0.0364
30711W        W46520   2.881   7.902   2.466 -0.2941  0.1844 -0.3184
30712W        W46521   8.030   7.180   2.753  0.1861 -0.1032 -0.3401
30713W        W46522   1.293  18.215   3.522  0.0675  0.1130 -0.1263
30714W        W46523  17.231   8.732   3.567  0.1113  0.0519  0.2535
30715W        W46524   7.372  15.356  10.603  0.0174  0.2435 -0.0836
30716W        W46525  11.783   4.085  12.490  0.1194  0.1513 -0.0345
30717W        W46526   3.646  14.206  11.570  0.0941 -0.1718 -0.1531
30718W        W46527  10.145  18.519  15.222 -0.0836 -0.3408  0.1292
30719W        W46528  16.756  16.323   0.949 -0.0768  0.0752 -0.1258
30720W        W46529   8.241  16.378   3.855  0.3084  0.1007 -0.2439
30721W        W46530  11.673   5.483   2.747 -0.1995 -0.0967 -0.0351
30722W        W46531  14.348  18.436  12.162  0.0726 -0.2685 -0.2862
30723W        W46532   1.612  18.899   1.598  0.3791  0.2603 -0.2415
30724W        W46533  12.740   6.808   1.429  0.2364 -0.0754 -0.1898
30725W        W46534  16.611   8.622  15.079 -0.1638  0.0879 -0.1563
30726W        W46535   0.710   3.476  11.668 -0.1695 -0.2542  0.2869
30727W        W46536   5.807  10.872   0.948  0.1589 -0.1197 -0.2118
30728W        W46537   7.038  18.365   1.822 -0.0448 -0.3251 -0.0684
30729W        W46538  17.887  12.423   0.507 -0.1519  0.0244  0.2190
30730W        W46539   9.235  12.350   0.301  0.1189 -0.0116  0.0120
30731W        W46540  13.195  13.582   5.128  0.3404 -0.1989  0.0546
30732W        W46541  13.939  13.875   3.842 -0.1361  0.0690 -0.0664
30733W        W46542   5.212  18.817   3.063 -0.1539 -0.1920  0.0378
30734W        W46543  12.727  12.210  10.531  0.1080 -0.0813  0.3622
30735W        W46544  16.609   3.571   4.722  0.1027 -0.2101 -0.1603
30736W        W46545   4.445   7.441  10.078 -0.2640 -0.3606  0.0491
30737W        W46546   8.805  17.531  12.400 -0.3554  0.3618 -0.0142
30738W        W46547  14.436  13.331   3.441  0.0790  0.2997 -0.1336
30739W        W46548   4.412  11.786   0.422 -0.1803  0.2722  0.1841
30740W        W46549  12.574  14.150  14.618  0.1530 -0.0789 -0.1425
30741W        W46550   0.950   9.091  10.335 -0.3891 -0.1787 -0.1052
30742W        W46551   7.513   2.005  14.047  0.0157 -0.2375 -0.0297
30743W        W46552  12.559   3.842  14.886  0.1583  0.0898 -0.1179
30744W        W46553   3.878   2.993  11.530 -0.4152  0.1420 -0.0223
30745W        W46554   0.836  16.835  12.690  0.0377  0.1466  0.0959
30746W        W46555  15.421   7.559   5.030 -0.2512 -0.0523  0.1905
30747W        W46556   5.114  13.447   4.425 -0.1674  0.2125 -0.2739
30748W        W46557   3.973   5.534  12.734  0.2886 -0.1322  0.0703
30749W        W46558   9.839  12.150   4.782  0.0491 -0.3651  0.0666
30750W        W46559  14.194   1.417   1.382 -0.0160 -0.3936 -0.2184
30751W        W46560   0.305  10.373  13.928  0.0911 -0.2494  0.1048
30752W        W46561   0.535  16.683   1.132  0.1547 -0.2779  0.1001
30753W        W46562  11.071   9.691   0.882  0.2916 -0.3141 -0.1836
30754W        W46563   1.730  11.114   2.047  0.0801 -0.0128 -0.2990
30755W        W46564  10.043  14.765   5.045 -0.0130  0.2214  0.0524
30756W        W46565   8.677  10.047  13.368  0.3015  0.1966  0.2205
30757W        W46566  12.326  16.391   1.546 -0.2265 -0.0726  0.1205
30758W        W46567   6.382   7.110  15.392 -0.0534 -0.0732  0.1749
30759W        W46568   6.206   3.886   3.388 -0.1906 -0.0844 -0.3138
30760W        W46569   1.552  17.183  14.079  0.0343 -0.0240  0.1855
30761W        W46570   8.268   6.329  12.457 -0.0543 -0.1773 -0.5151
30762W        W46571  11.169   1.966   2.446 -0.2464 -0.4236 -0.1656
30763W        W46572  12.321   0.198  11.419  0.0059 -0.0107  0.2003
30764W        W46573   2.185  12.164   1.810 -0.0628  0.2890 -0.2267
30765W        W46574   2.708  15.249   1.476  0.1400 -0.1700 -0.2183
30766W        W46575   7.869   0.312   5.178 -0.0332  0.1314 -0.2228
30767W        W46576   5.728  11.904  12.694 -0.0865 -0.2138  0.0835
30768W        W46577  17.513  18.618   4.539  0.1719  0.4030  0.0612
30769W        W46578  15.302  13.224  14.842 -0.0868  0.0303 -0.2008
30770W        W46579   8.014   2.174  13.168  0.1310 -0.0146  0.1221
30771W        W46580  15.887  15.566  13.628  0.1097  0.3546  0.0372
30772W        W46581   2.625   3.009   0.926  0.1268 -0.0551 -0.1848
30773W        W46582  14.342   6.214   4.899 -0.0168 -0.4380  0.1306
30774W        W46583  11.858   4.627   2.860  0.0153  0.0465 -0.3322
30775W        W46584   5.379   6.272  12.063 -0.0719 -0.0801 -0.3684
30776W        W46585  10.679   8.749   1.663  0.2124  0.1651 -0.1544
30777W        W46586  11.035   4.265  11.686 -0.0303  0.2221  0.0435
30778W        W46587   3.154  12.275  14.966  0.0621 -0.1446  0.2843
30779W        W46588   6.007  15.309   5.157 -0.1003 -0.1984 -0.0858
30780W        W46589   4.121   0.715   4.215 -0.1757  0.1743 -0.1150
30781W        W46590  10.767   0.872  13.661 -0.1399  0.0427 -0.2140
30782W        W46591  14.472   5.265   0.576 -0.0867  0.1345  0.2076
30783W        W46592  18.516  13.607  15.153  0.0281  0.2391  0.3468
30784W        W46593   0.167   2.553   5.805 -0.2381  0.1191 -0.3289
30785W        W46594   8.194   9.998   0.283  0.0857  0.2560  0.0446
30786W        W46595  15.509   1.215  10.820 -0.1831 -0.0381  0.2829
30787W        W46596   6.503   4.029   4.353  0.0350  0.1913 -0.0291
30788W        W46597  15.142   0.720   5.671  0.3001  0.0665  0.2930
30789W        W46598  12.949   5.490   0.257  0.2093 -0.1824  0.3800
30790W        W46599   5.964   7.704  11.341  0.3136  0.0428  0.0223
30791W        W46600   5.820  13.182  11.500  0.0344 -0.0255 -0.0846
30792W        W46601   7.251   0.779  12.651 -0.1341  0.1645  0.1560
30793W        W46602   4.918  11.913   0.504  0.0256 -0.3871 -0.0793
30794W        W46603   0.395  10.802  10.432  0.1789 -0.2147  0.0065
30795W        W46604  11.635  10.160   2.550 -0.0450  0.1372 -0.0578
30796W        W46605  16.038   6.947   2.904  0.1553 -0.0609 -0.3517
30797W        W46606   2.932   2.518   2.776 -0.0740 -0.1540  0.3304
30798W        W46607   9.477   7.803  11.505 -0.1280 -0.1922  0.3017
30799W        W46608   9.971   1.675   5.315 -0.0984  0.1703  0.2508
30800W        W46609  12.120  12.994  12.515 -0.0884  0.2166 -0.0320
30801W        W46610   6.135   7.769   2.261  0.1553  0.1832 -0.1447
30802W        W46611  17.108   9.962  13.260  0.0187 -0.3288 -0.0488
30803W        W46612  16.796   7.684   4.497 -0.0919  0.0589  0.4360
30804W        W46613   4.871  17.517   2.370  0.2333  0.1298 -0.1322
30805W        W46614   6.865  14.677  12.332 -0.0777  0.2925 -0.1631
30806W        W46615   0.823   0.909  10.012  0.0861  0.0012 -0.0684
30807W        W46616  10.690   2.340  11.740 -0.0648  0.2246 -0.1554
30808W        W46617   7.917  14.571   3.806  0.0170  0.1900 -0.1316
30809W        W46618   4.487   6.619  15.035  0.2241  0.2976  0.1321
30810W        W46619  16.956  16.179  14.077 -0.0165  0.0288  0.0423
30811W        W46620  14.143  15.672  15.154 -0.0848  0.1459  0.0045
30812W        W46621  13.889   7.694  13.750  0.2111  0.0443 -0.1220
30813W        W46622   0.960  14.901  12.156 -0.1408 -0.1002 -0.0678
30814W        W46623   8.390   7.838  14.251  0.2085 -0.2470  0.1375
30815W        W46624  10.304   2.911  15.006 -0.0550  0.3664 -0.2075
30816W        W46625   0.255   1.938   1.415 -0.3601 -0.3141  0.0699
30817W        W46626  15.170  10.578  12.947 -0.2837  0.0137 -0.0125
30818W        W46627  10.776   9.269   1.438  0.0825  0.1409  0.1883
30819W        W46628   9.632   5.085  11.264 -0.1740 -0.0717 -0.4355
30820W        W46629   9.115  18.515   2.941 -0.1030 -0.0663 -0.2443
30821W        W46630  11.982  12.136  12.233 -0.2599  0.1426 -0.1916
30822W        W46631  11.106   0.917   2.110 -0.0149 -0.3115 -0.0472
30823W        W46632   1.275  14.646  10.713  0.4643  0.0944 -0.0415
30824W        W46633   8.650  11.219   3.822  0.1437 -0.3872 -0.0609
30825W        W46634   4.904  10.573  13.834 -0.2607 -0.2464  0.1105
30826W        W46635  14.668   1.430  15.236 -0.0923  0.1831  0.0832
30827W        W46636  10.245   5.481   2.514 -0.0017 -0.0195 -0.0156
30828W        W46637   5.882   5.707   3.850 -0.3413  0.3550 -0.2297
30829W        W46638   3.046  15.883   4.920 -0.0817 -0.1074 -0.1134
30830W        W46639  16.060  16.692   4.453 -0.1603 -0.1371  0.1249
30831W        W46640   8.686   4.014  10.853 -0.1433 -0.1818  0.0306
30832W        W46641  12.436  11.558   5.123 -0.0649 -0.0454 -0.0085
30833W        W46642  11.035   8.152   4.462  0.2362 -0.4464  0.0131
30834W        W46643  10.683   9.893  14.468  0.1789  0.0010  0.0993
30835W        W46644   4.386   4.027   0.043 -0.0420  0.0310  0.2970
30836W        W46645   9.208   6.165  12.003  0.2357 -0.2640 -0.2960
30837W        W46646  13.564   6.997  12.623 -0.2372  0.1914  0.1537
30838W        W46647  12.707   0.425   1.464 -0.0311  0.1157 -0.0589
30839W        W46648   4.802   8.646   3.908 -0.0735  0.3092 -0.0710
30840W        W46649  12.761  17.238   0.529 -0.1073 -0.0604 -0.1558
30841W        W46650   7.037   5.475  11.318  0.1905  0.1611  0.2062
30842W        W46651   8.116   4.669  14.889 -0.0030 -0.2867  0.1803
30843W        W46652   4.666   9.719   1.005 -0.0380  0.0948 -0.0211
30844W        W46653  14.789   5.239  14.873 -0.0083  0.0286 -0.0401
30845W        W46654   8.579  10.070  15.425  0.0840 -0.0300  0.0172
30846W        W46655   6.355   3.032  12.190 -0.2243  0.1277  0.0987
30847W        W46656  14.526  13.027   4.319 -0.0389 -0.2469 -0.3567
30848W        W46657   2.646   0.379   2.615 -0.1895 -0.1209 -0.0365
30849W        W46658   3.779  12.037   2.610 -0.1724  0.2647 -0.1213
30850W        W46659  10.441  12.174  11.890  0.1609  0.3402 -0.1076
30851W        W46660   9.456  11.550   1.462 -0.0529 -0.0904  0.0421
30852W        W46661  16.578  13.849  10.494  0.0820  0.2417 -0.0238
30853W        W46662   6.060   6.413  15.091 -0.2815  0.1339  0.0048
30854W        W46663  12.815   3.674  11.956 -0.1230  0.1359 -0.0375
30855W        W46664  13.647  14.293   3.955 -0.0000  0.1251  0.4335
30856W        W46665   2.516  12.859   1.218  0.0149 -0.2077  0.0749
30857W        W46666   0.253  13.745   2.342 -0.1786 -0.2590  0.2265
30858W        W46667  10.857   9.212   0.974  0.2332  0.1386  0.2998
30859W        W46668   1.890   8.953   3.733 -0.0239  0.0542  0.1839
30860W        W46669   4.473   1.826   0.299 -0.0002  0.1326 -0.0386
30861W        W46670   5.370  18.767  14.679  0.4618 -0.1137 -0.0079
30862W        W46671  14.404   7.787   0.794  0.0284  0.0579 -0.1400
30863W        W46672   0.216  13.506   3.735 -0.0847  0.0426 -0.0533
30864W        W46673   6.565  16.623  11.852 -0.0525 -0.0648 -0.1143
30865W        W46674   6.893  13.264   0.263  0.2122  0.1302 -0.2406
30866W        W46675   2.341   7.481  10.523 -0.1554 -0.1434 -0.1187
30867W        W46676   0.535   7.718  13.461 -0.3001  0.1043  0.0170
30868W        W46677   9.788   4.086   1.360 -0.0754 -0.0536 -0.1698
30869W        W46678  16.381   3.699   3.980  0.0917  0.2586  0.3443
30870W        W46679  13.299  10.970   1.045 -0.1879  0.2604  0.1630
30871W        W46680   8.096  16.527  13.597 -0.0800  0.0090 -0.1375
30872W        W46681  13.583  18.245   3.611 -0.2891 -0.2060 -0.1904
30873W        W46682   8.051  13.245   4.913 -0.1418  0.1936 -0.0612
30874W        W46683   0.258  11.012  14.635 -0.1102  0.2366 -0.2437
30875W        W46684   0.532  17.949   2.535 -0.0168  0.1136  0.0047
30876W        W46685  10.985  14.225   1.434  0.2700  0.3890  0.4728
30877W        W46686  10.374   0.480  13.789  0.1015  0.3449  0.0732
30878W        W46687   7.589   3.356   1.602  0.2867  0.1136 -0.2434
30879W        W46688   7.263   4.917   1.539 -0.0207 -0.0088 -0.0155
30880W        W46689   8.369  15.498   1.159 -0.5124  0.0669 -0.0012
30881W        W46690   9.125   4.940   0.066  0.0358 -0.2289 -0.0654
30882W        W46691   4.440  18.510  14.846 -0.0453 -0.0058  0.2457
30883W        W46692   6.728  17.659  15.048  0.2187  0.0715  0.0934
30884W        W46693   7.612   7.243   5.610  0.2406  0.2091 -0.1146
30885W        W46694   2.046   1.306  14.770  0.3023  0.1887 -0.1449
30886W        W46695  15.641   5.840   5.405 -0.2193  0.3997  0.0578
30887W        W46696   4.015   2.220   4.587  0.0442  0.1350  0.0250
30888W        W46697  16.625  14.633  10.160  0.0435 -0.2036 -0.0369
30889W        W46698  12.107   9.926   1.918  0.2140 -0.4235 -0.0045
30890W        W46699   1.068  13.987  14.091 -0.3497 -0.0300  0.0928
30891W        W46700   3.956  11.279   5.077 -0.3115  0.2512 -0.0645
30892W        W46701   7.242   8.632  13.609  0.1532 -0.0074 -0.1887
30893W        W46702   2.833   2.224  14.047 -0.2983 -0.2488  0.3097
30894W        W46703  10.758   2.811   2.363  0.1267 -0.2191 -0.0506
30895W        W46704   8.942  16.355  11.693  0.1741 -0.1251  0.1637
30896W        W46705   3.251   6.155   4.593  0.3555  0.1177  0.2145
30897W        W46706  16.841   7.340   2.344 -0.2591 -0.0450  0.0703
30898W        W46707   2.119   6.608  11.931 -0.0140 -0.2476  0.1180
30899W        W46708   7.633  10.120   2.521  0.2964 -0.2417  0.1306
30900W        W46709   0.019   0.354   1.692  0.0901  0.0463 -0.0255
30901W        W46710   0.107  11.392   5.780  0.1511 -0.1510  0.2476
30902W        W46711  15.271   6.138   4.908 -0.2548  0.1617  0.0609
30903W        W46712  14.067   8.611  15.078 -0.3740  0.2491  0.0006
30904W        W46713   9.522   8.751   3.971  0.1871  0.0778  0.0979
30905W        W46714   4.800  12.397   4.166 -0.1143  0.1062  0.0456
30906W        W46715   6.507  18.061   1.790 -0.1990 -0.0951  0.0418
30907W        W46716  17.012   4.728  11.521  0.1055  0.0554  0.1217
30908W        W46717   0.401  14.558  14.675  0.1623 -0.2549 -0.2446
30909W        W46718  16.428  16.260   5.685  0.1799 -0.1985 -0.0360
30910W        W46719   1.234  15.889  11.528  0.1288  0.0826 -0.1491
30911W        W46720   0.113  10.183  10.562 -0.1286  0.0945  0.0103
30912W        W46721   7.739  11.706   2.148  0.2715 -0.0603  0.0564
30913W        W46722  17.673  15.466  10.424  0.0494 -0.2643  0.0057
30914W        W46723  18.288   1.063   4.394 -0.3163  0.0231  0.2208
30915W        W46724   6.378   5.096   0.890  0.1350  0.1629  0.0074
30916W        W46725  17.476  11.070  15.380 -0.1137 -0.1029  0.2498
30917W        W46726  11.775  10.475   3.252 -0.0861  0.0095  0.0629
30918W        W46727   8.737   0.578   2.070  0.1420  0.1636  0.1193
30919W        W46728   9.326   9.760  12.211  0.1318 -0.2464  0.0035
30920W        W46729   4.084  10.259  15.132  0.1139  0.0300 -0.0802
30921W        W46730  18.823  12.750   0.190  0.0372 -0.0922  0.0972
30922W        W46731   4.530   6.407   1.090 -0.0041 -0.1216  0.1056
30923W        W46732   3.010   4.291  10.484 -0.1599  0.2457  0.1706
30924W        W46733  15.892   0.537  11.604  0.0035  0.0214 -0.1266
30925W        W46734  16.898   8.211   5.675  0.3052  0.1292  0.2071
30926W        W46735   4.101   9.840  13.825 -0.1686 -0.1233 -0.1567
30927W        W46736  18.525  12.956   4.911 -0.2027 -0.0147  0.0826
30928W        W46737  18.825  17.735  13.147 -0.0863  0.3277  0.0709
30929W        W46738   5.088   8.134  12.843 -0.1001 -0.0366 -0.2634
30930W        W46739  10.272  14.638  15.388  0.1186 -0.0262  0.0470
30931W        W46740   5.128  18.216   4.926 -0.1143  0.1745  0.0947
30932W        W46741   1.200   6.612   5.070 -0.2451 -0.0420  0.1772
30933W        W46742  12.508  15.610  12.084  0.1276 -0.0118  0.0402
30934W        W46743  13.679   4.537  10.697  0.1387 -0.1621  0.0626
30935W        W46744   8.704  10.532   1.823  0.1583  0.0476  0.2732
30936W        W46745  14.679   0.439   3.060  0.0895 -0.1372 -0.1285
30937W        W46746  13.682  14.860   4.023  0.1532  0.3497 -0.0950
30938W        W46747   5.369  11.936   0.165 -0.2670 -0.0020  0.1346
30939W        W46748   7.429  17.872   5.536  0.4407  0.1493 -0.3301
30940W        W46749  11.790   8.971  14.833 -0.1477  0.0402  0.4133
30941W        W46750   5.972  14.072   5.766  0.3359  0.0296  0.0758
30942W        W46751  13.417  11.711   4.831 -0.3441 -0.1655 -0.1799
30943W        W46752   6.338  15.825  15.046  0.2965  0.1887 -0.0189
30944W        W46753   2.275   1.090   1.969  0.1903 -0.0701  0.3131
30945W        W46754  17.553   0.528  13.851  0.2026 -0.0400 -0.0381
30946W        W46755  17.609   0.683  14.323 -0.1917  0.0721  0.2490
30947W        W46756  13.818   1.060  14.901  0.1222  0.2158  0.2605
30948W        W46757   5.191  16.762   0.281  0.1561 -0.2406  0.0213
30949W        W46758  14.174   5.098  14.075  0.2806 -0.0957  0.1103
30950W        W46759  14.529   8.145  10.848 -0.0565 -0.5649 -0.4204
30951W        W46760   5.149  11.754  14.491 -0.0400  0.0728  0.1931
30952W        W46761   5.273   1.225  14.343  0.1818  0.0798 -0.2871
30953W        W46762  16.304  15.077  14.781 -0.1457 -0.1152 -0.3309
30954W        W46763   7.629   1.156   2.503  0.2742  0.0505 -0.2756
30955W        W46764   1.860  15.577  12.857 -0.1743 -0.0348  0.0744
30956W        W46765   1.141  16.528  14.085 -0.0418 -0.2009  0.0945
30957W        W46766   2.680   3.232  14.460 -0.1523 -0.0669  0.3262
30958W        W46767  16.895  12.997  11.716  0.1115 -0.2664 -0.1327
30959W        W46768  11.874   8.577   4.045 -0.4344 -0.1243 -0.0462
30960W        W46769   3.304   6.573  10.522 -0.0761  0.2436 -0.0233
30961W        W46770  10.065   4.392   4.131  0.2023  0.1363  0.2607
30962W        W46771  12.233  13.911   2.875 -0.0784 -0.0796  0.1161
30963W        W46772   9.110  11.315   4.116  0.2710  0.2024  0.3743
30964W        W46773  15.704   2.429   2.590 -0.2422 -0.3050  0.3943
30965W        W46774  10.036  15.265   9.809 -0.1081  0.0281  0.3179
30966W        W46775   5.572   0.135   1.592 -0.1758  0.1106  0.0504
30967W        W46776   2.345  16.053   5.315 -0.0886  0.3363  0.1071
30968W        W46777  15.394  13.835   1.799 -0.1171  0.0893 -0.0161
30969W        W46778   1.525  15.091  11.435 -0.3365 -0.1879  0.0277
30970W        W46779  16.388  17.841  15.192 -0.3504  0.0841 -0.2921
30971W        W46780   5.413   3.549  14.206  0.2246  0.0252  0.0568
30972W        W46781  11.046   6.685   2.158 -0.2590 -0.0347  0.0853
30973W        W46782  11.233  11.362  12.397  0.1145  0.3871  0.1243
30974W        W46783   2.159  13.034   2.668  0.2077  0.3225  0.1174
30975W        W46784  17.448  18.090   4.382 -0.4169  0.2371  0.2010
30976W        W46785   4.087   5.618  14.237 -0.1226  0.3403  0.3530
30977W        W46786   5.786  15.032  11.122  0.1503  0.1151 -0.0688
30978W        W46787   9.618   0.118   1.542  0.1276  0.2452 -0.0724
30979W        W46788  16.935  13.862   4.064  0.1505  0.1980 -0.2785
30980W        W46789   7.907  16.396  12.459 -0.0269 -0.0330  0.1244
30981W        W46790  15.272  11.597  14.649  0.0703  0.1267 -0.0108
30982W        W46791  12.264  18.900  11.902  0.2283 -0.1668 -0.1959
30983W        W46792   1.789   9.364  10.462  0.0109 -0.2489 -0.3710
30984W        W46793   6.037  11.509   3.270  0.1275 -0.0813  0.0502
30985W        W46794   0.244  18.882   4.563  0.1487  0.3027 -0.0670
30986W        W46795  14.417   4.128   4.351 -0.2513  0.3541  0.2096
30987W        W46796  15.297   2.535  11.249 -0.1041  0.1859  0.1060
30988W        W46797   4.386  16.890   4.449  0.0693  0.1534 -0.1512
30989W        W46798  14.804  15.536   2.875 -0.1480  0.3421 -0.1559
30990W        W46799  11.433  14.195  12.771  0.3366 -0.1637 -0.0903
30991W        W46800  14.446  10.591  15.052 -0.1620  0.1859  0.0573
30992W        W46801  12.672   3.026  14.634  0.0209  0.1536 -0.0545
30993W        W46802   0.877  14.153   0.041 -0.1223 -0.2543  0.0285
30994W        W46803  14.819  16.789   2.616  0.0667  0.3536  0.1975
30995W        W46804   7.695  11.901  14.249 -0.1431 -0.2024  0.5572
30996W        W46805   8.805  17.882  11.477  0.2744 -0.1050 -0.1057
30997W        W46806   7.259  11.057   0.011 -0.3706  0.1044  0.3382
30998W        W46807   4.058  17.782  12.931 -0.1754  0.0739  0.2855
30999W        W46808  11.750  16.995  11.561 -0.3256 -0.0451  0.1501
31000W        W46809   2.175  15.008  11.135  0.1551 -0.1640  0.0738
31001W        W46810  12.454   7.490  14.623  0.0928  0.2950  0.0342
31002W        W46811  12.449   7.756  10.732 -0.1438 -0.0904 -0.3889
31003W        W46812  15.093   0.017   1.079  0.1030 -0.4473 -0.3295
31004W        W46813   3.342  13.375   1.632 -0.1681 -0.0899  0.2848
31005W        W46814   2.613   9.202   2.290 -0.2240 -0.0331 -0.2365
31006W        W46815   8.379  11.932   5.027 -0.1713  0.0007 -0.1399
31007W        W46816   2.973  16.116  11.053 -0.2364 -0.0050  0.0081
31008W        W46817  16.507  10.651  10.506  0.0736 -0.1007 -0.0622
31009W        W46818   9.464  11.919  14.935 -0.0123 -0.1545 -0.1231
31010W        W46819  18.862  17.217  11.382 -0.1321 -0.1268 -0.1593
31011W        W46820  16.885   8.389   0.628  0.2506  0.1495 -0.2594
31012W        W46821  17.026   3.817   3.396 -0.0005  0.1243  0.0329
31013W        W46822   8.016   3.522  12.876  0.0865  0.0796  0.1011
31014W        W46823  14.468   2.703   0.484  0.0756  0.3338  0.1055
31015W        W46824   4.632   7.675  12.960  0.1107 -0.2296 -0.2015
31016W        W46825   5.065  16.067   3.914  0.2581 -0.3343 -0.3329
31017W        W46826   7.896  17.553   1.183  0.0314  0.0300 -0.3428
31018W        W46827  12.209   2.128  13.999 -0.2989  0.0766 -0.0495
31019W        W46828  10.895  17.372   4.079 -0.0309 -0.1548  0.1210
31020W        W46829  16.366  10.525  13.093  0.1757 -0.1282  0.0614
31021W        W46830   9.937  15.459  12.159  0.1280 -0.0168  0.2552
31022W        W46831  17.417  15.057  10.571 -0.0219 -0.0668 -0.0755
31023W        W46832   6.174  16.537  10.602 -0.1819 -0.0375 -0.0452
31024W        W46833   3.047   8.244   5.446  0.1527  0.0274  0.0811
31025W        W46834   5.395  12.628   3.173  0.3449 -0.1837  0.1782
31026W        W46835   4.531  12.526  12.674 -0.0075 -0.1902  0.2237
31027W        W46836   9.305   6.165   4.369 -0.1129  0.2250 -0.0492
31028W        W46837   7.805  11.108   0.748  0.0084 -0.0606 -0.0287
31029W        W46838   2.726   7.762  10.867  0.0373  0.2186 -0.1048
31030W        W46839   9.758  15.215   2.856  0.0062 -0.3197 -0.1271
31031W        W46840   8.772   1.466  13.870  0.0998  0.0570  0.1761
31032W        W46841   0.605   6.218  12.177  0.1991 -0.0943  0.1228
31033W        W46842   0.719   8.359   3.767 -0.2607  0.1082  0.1417
31034W        W46843   9.193   8.610   3.332 -0.0043  0.0607  0.2204
31035W        W46844   7.786  15.820  14.743  0.1502 -0.0917 -0.2221
31036W        W46845   3.609   4.550   5.693 -0.0813  0.2046 -0.3272
31037W        W46846   0.867  10.452   3.192 -0.0837 -0.0471  0.1871
31038W        W46847  14.955  10.661  15.309  0.0133 -0.1083  0.4162
31039W        W46848   5.520   6.744   1.053  0.2064 -0.1202  0.2453
31040W        W46849   6.623  11.256  12.568 -0.0721  0.2241  0.2149
31041W        W46850  14.681  18.240   0.838 -0.0207 -0.3307  0.2473
31042W        W46851  17.104   4.073  10.847  0.3567  0.1257 -0.0867
31043W        W46852   8.379   3.299  12.385 -0.0538 -0.0285 -0.0241
31044W        W46853  14.685  11.860   9.580  0.1367 -0.3314 -0.0633
31045W        W46854  18.132  10.722   4.980 -0.1104  0.1758 -0.0605
31046W        W46855  16.410   1.298   1.944 -0.1649 -0.1382  0.2531
31047W        W46856   5.382   3.720   3.728  0.2626 -0.3208  0.0424
31048W        W46857  11.626  16.571   3.220  0.1622 -0.2753  0.2815
31049W        W46858   2.987   9.021  11.741  0.1783  0.0177  0.0225
31050W        W46859   0.442  11.898   1.775 -0.1002 -0.1601  0.0515
31051W        W46860   6.427   0.195   3.272 -0.1015 -0.2278 -0.0134
31052W        W46861  14.524   7.718   1.830  0.0416 -0.1256  0.3575
31053W        W46862   4.663   8.833   0.530 -0.3955 -0.0949  0.0340
31054W        W46863   6.921   5.244  14.467  0.2896 -0.2893 -0.1569
31055W        W46864   4.397  14.319  15.288  0.1593 -0.0508  0.0499
31056W        W46865  14.268   5.593   1.991  0.1100 -0.0755 -0.4685
31057W        W46866   2.644   3.107  13.607  0.0887 -0.3080 -0.0379
31058W        W46867   6.059  17.277   0.110  0.0411  0.2384  0.1781
31059W        W46868  17.119   4.761   2.691 -0.0035 -0.1572  0.1716
31060W        W46869   4.897   5.449  12.351 -0.1807 -0.2507 -0.0982
31061W        W46870  18.417   6.337  15.007  0.1026  0.1994 -0.0034
31062W        W46871  10.353   2.536  13.213 -0.1615  0.4506  0.1931
31063W        W46872   7.504  13.560  10.802  0.1877 -0.3030 -0.1111
31064W        W46873  13.590  16.400   2.001  0.2921  0.1260 -0.0389
31065W        W46874   6.009  10.157  14.890 -0.0485 -0.0574 -0.3334
31066W        W46875  17.737  18.692   3.683 -0.0990  0.0454  0.2304
31067W        W46876  10.694   2.352   3.374  0.2345  0.1836 -0.4977
31068W        W46877  10.278  18.881   0.113 -0.1023  0.2802  0.0728
31069W        W46878   5.699  10.797  13.619  0.3408 -0.1331  0.1241
31070W        W46879   9.075   9.247  12.046 -0.0410  0.0304 -0.0758
31071W        W46880   9.599   5.683   3.930 -0.1556 -0.0876 -0.1650
31072W        W46881  10.373  11.415   3.604 -0.0199 -0.0573  0.0443
31073W        W46882   4.146  15.038  14.478  0.3395 -0.1888  0.1343
31074W        W46883  17.500   6.520   4.683  0.1119  0.0896  0.0362
31075W        W46884   4.149  18.338  10.728  0.3892  0.2169  0.2997
31076W        W46885   8.849   1.036   3.206 -0.2912 -0.0084 -0.1136
31077W        W46886   6.837   8.330   2.252 -0.3706 -0.3766 -0.1060
31078W        W46887  13.694   7.243  11.991  0.2606 -0.1083 -0.2210
31079W        W46888   9.727   5.540   2.552 -0.0152  0.2103 -0.0793
31080W        W46889  16.475  11.629   2.930 -0.1947 -0.2279  0.2684
31081W        W46890  16.844   3.191  11.181 -0.0502 -0.1017  0.0800
31082W        W46891  16.558  15.577   0.702  0.1085  0.3641 -0.0357
31083W        W46892   7.382  12.367  14.324 -0.2584 -0.2407  0.1446
31084W        W46893   7.485   4.777   3.879  0.3150  0.1539  0.0326
31085W        W46894   8.079   9.619  13.963 -0.0980  0.0573 -0.0418
31086W        W46895  11.589   6.947  14.315 -0.0178 -0.0943  0.0349
31087W        W46896  16.569   5.655  14.464 -0.4205  0.3307 -0.0075
31088W        W46897   2.867  15.670   5.332 -0.0092  0.2836  0.2513
31089W        W46898  17.653   6.794   0.262 -0.1824  0.0308 -0.1525
31090W        W46899  10.854   5.176  13.619  0.0116  0.0005  0.0688
31091W        W46900   6.174  16.949  11.743 -0.0636  0.1722 -0.1638
31092W        W46901   5.123   8.869  12.339  0.1169 -0.4091 -0.1862
31093W        W46902   8.611  15.242  11.809  0.0689  0.1260  0.0674
31094W        W46903  11.490  15.912  12.527  0.0495  0.0056  0.0768
31095W        W46904  16.457   2.291   4.639 -0.0659 -0.1083 -0.0007
31096W        W46905  18.799  14.533  13.022  0.0738  0.1446  0.3844
31097W        W46906   4.315   5.801  11.724  0.3596 -0.1636  0.0929
31098W        W46907   9.278  13.871  11.285  0.3256 -0.0435  0.0067
31099W        W46908  11.661   4.542  13.398 -0.0139 -0.0078 -0.0284
31100W        W46909   1.389   9.394   1.329  0.1818  0.1626 -0.0471
31101W        W46910  16.352  16.783  13.701  0.0212 -0.0168 -0.1833
31102W        W46911   5.742   2.170  13.438  0.3795  0.2344 -0.0568
31103W        W46912   2.801  13.137  13.867 -0.1162 -0.0117 -0.1658
31104W        W46913  12.773   6.185   0.810 -0.1970  0.0168 -0.0547
31105W        W46914  17.898  15.917  11.384 -0.2029  0.2185  0.2582
31106W        W46915  14.228   7.999  13.412  0.0198 -0.1568 -0.0608
31107W        W46916   9.206  14.519   1.888  0.1704  0.1681 -0.1557
31108W        W46917  17.885   2.019   4.369 -0.3888  0.0029  0.1196
31109W        W46918   5.373  17.688  14.951  0.0796  0.1961 -0.2299
31110W        W46919   1.209  16.501   2.108 -0.1330 -0.2332 -0.2069
31111W        W46920  15.230  11.995  14.354  0.1734 -0.2471  0.2685
31112W        W46921  15.164   0.635  13.849  0.1788  0.3716 -0.1014
31113W        W46922  15.486   2.545   1.631 -0.1253 -0.3829 -0.1435
31114W        W46923   0.348  13.366   0.655 -0.1233 -0.1865  0.0760
31115W        W46924  11.509  16.328   2.140 -0.1054 -0.3382 -0.1745
31116W        W46925   5.005  13.777  14.393 -0.1143  0.1564  0.0580
31117W        W46926  10.352   2.182   2.050  0.3655 -0.0464  0.3374
31118W        W46927   4.287   3.961   0.968 -0.0454  0.0636  0.1126
31119W        W46928  18.139   3.774  12.776 -0.1146 -0.0833 -0.4120
31120W        W46929   4.546  16.089  11.365 -0.1149 -0.2605 -0.2273
31121W        W46930  14.607  15.115   3.717 -0.1364 -0.0595  0.1184
31122W        W46931   9.858  11.629   4.734  0.2975 -0.0537 -0.4248
31123W        W46932   1.571   8.690  12.893 -0.0185 -0.5352 -0.0995
31124W        W46933  10.993  10.015   1.954 -0.0405 -0.2680  0.3238
31125W        W46934   6.144   1.124   4.262 -0.0120 -0.3100  0.3321
31126W        W46935   4.937   2.558   0.774  0.1898  0.1769  0.2557
31127W        W46936   5.491  15.797  12.794 -0.0500  0.1832 -0.1739
31128W        W46937  13.848   2.146  13.066 -0.1789 -0.3953 -0.1027
31129W        W46938  17.043   9.806  14.598  0.0980 -0.0842 -0.0348
31130W        W46939   8.559  13.219   1.682 -0.1623  0.0058 -0.0101
31131W        W46940   5.441   1.191  14.858 -0.0620  0.0070 -0.0973
31132W        W46941   3.290   4.323   2.986  0.3209 -0.1997  0.1617
31133W        W46942  14.087   1.758   3.872  0.0579  0.2703 -0.1943
31134W        W46943  15.049   4.038   1.945 -0.2698 -0.0214 -0.3150
31135W        W46944   0.081  15.504   3.111  0.0199  0.1607 -0.3160
31136W        W46945   4.529   9.425   2.346  0.1863 -0.4043 -0.1653
31137W        W46946  15.182  11.267   3.512 -0.0520 -0.0757 -0.1961
31138W        W46947  13.035  17.622   1.447 -0.0231 -0.3637  0.0693
31139W        W46948  17.822   2.710   5.644  0.0603  0.0447  0.0301
31140W        W46949  16.069  18.786   3.166 -0.4077 -0.0295  0.0351
31141W        W46950  14.945  17.622   4.637 -0.1853 -0.0550  0.1294
31142W        W46951  12.989   7.871   3.032  0.1094  0.3010  0.0105
31143W        W46952  11.554   6.655   4.317  0.1028 -0.0373 -0.0191
31144W        W46953  16.947  13.206   4.687 -0.4014 -0.0474 -0.1450
31145W        W46954  12.405   8.693  12.496  0.0219  0.0416 -0.3773
31146W        W46955   6.586  12.662   2.821  0.1752  0.0274 -0.2581
31147W        W46956   6.714   9.699   1.390  0.1038  0.1663 -0.0666
31148W        W46957   3.661   8.652  11.143  0.0998 -0.1180 -0.0215
31149W        W46958   5.628  13.627  11.587 -0.2787 -0.0629  0.2332
31150W        W46959   9.732   5.710   1.716 -0.1835  0.0129 -0.2052
31151W        W46960  18.706   4.443   0.686 -0.2956  0.2943  0.0769
31152W        W46961  18.325   8.499   2.708  0.2037  0.1763 -0.3497
31153W        W46962   7.764   4.170   3.543  0.0976  0.0425 -0.0297
31154W        W46963  10.348   5.978   4.177 -0.2474 -0.0116  0.0754
31155W        W46964  11.407   6.012   4.377 -0.3927 -0.5200  0.0684
31156W        W46965  15.078  13.864   0.105  0.0824  0.1499 -0.1026
31157W        W46966  17.082   9.640   1.261  0.1763  0.0223  0.2969
31158W        W46967  16.851  16.395  15.377 -0.0807 -0.0650 -0.1310
31159W        W46968  12.065   3.447   3.489  0.1807 -0.4097 -0.0485
31160W        W46969  14.978   6.509   4.984 -0.0532 -0.0002 -0.0268
31161W        W46970   5.004  18.765   0.954 -0.3170 -0.2658 -0.1589
31162W        W46971   8.477  14.763   0.805 -0.0296  0.1057  0.0587
31163W        W46972   0.808  16.859  11.317 -0.0082 -0.0371  0.1645
31164W        W46973   9.527  15.011  12.770 -0.2036  0.0184  0.0751
31165W        W46974   6.640  11.486  10.468  0.1725 -0.0084 -0.0011
31166W        W46975   7.689   0.813  13.594 -0.0744  0.1133 -0.0588
31167W        W46976   1.948   2.642   2.316  0.2180 -0.1427 -0.1023
31168W        W46977   9.690   0.426   5.574 -0.2105 -0.4056 -0.1055
31169W        W46978   1.080  16.250  13.189 -0.1297  0.0607 -0.1361
31170W        W46979   4.964   9.935   2.495 -0.1479 -0.0000 -0.3989
31171W        W46980   6.744  12.225   3.097  0.0662  0.1639  0.0235
31172W        W46981   0.870   1.439  13.555  0.0099 -0.0329 -0.1044
31173W        W46982   7.305   4.370  15.237  0.1941 -0.2330 -0.0338
31174W        W46983   0.274  17.694   3.884  0.0180 -0.0108 -0.0575
31175W        W46984  10.575  11.639   1.511 -0.1245  0.0535  0.0649
31176W        W46985  16.192  13.807  13.414 -0.1552  0.0592  0.0266
31177W        W46986   0.514   8.329   0.947 -0.2103  0.2495  0.1944
31178W        W46987   4.901   0.674   1.299  0.0033 -0.0181 -0.1306
31179W        W46988   6.592   2.159   1.596  0.3447  0.3701  0.1582
31180W        W46989   2.355  12.863  12.701  0.3615 -0.2092  0.1266
31181W        W46990  12.589  17.646   2.866  0.2571 -0.1328 -0.2965
31182W        W46991  13.346  14.000  11.189 -0.2807 -0.1000 -0.2026
31183W        W46992   8.532   5.541   0.919 -0.2946  0.2342  0.0651
31184W        W46993   8.432   2.451   2.895 -0.1787 -0.0641  0.0288
31185W        W46994  17.406   7.127   4.061 -0.0186  0.2294  0.2888
31186W        W46995  17.623  14.529  11.152 -0.2520  0.0315  0.1687
31187W        W46996   1.467  12.415  11.019 -0.3304 -0.1791  0.1600
31188W        W46997   4.725  14.080  11.560  0.2226  0.1934  0.0553
31189W        W46998  18.535   1.680   1.765 -0.1003 -0.1303  0.1075
31190W        W46999   8.109  16.084  10.776 -0.1878  0.0885 -0.2155
31191W        W47000  15.623   3.374   2.080 -0.2003 -0.0088  0.2114
31192W        W47001   4.192  11.473   0.047 -0.0856  0.1512  0.0502
31193W        W47002   3.333   6.279  13.811  0.0368 -0.0906  0.0513
31194W        W47003   0.531  17.911  11.460  0.6553  0.0101  0.1844
31195W        W47004  11.204   8.459  12.728 -0.0408  0.0076 -0.4445
31196W        W47005   8.986  11.443   2.358  0.0424 -0.2822 -0.0101
31197W        W47006   8.050   5.205   2.121  0.0612  0.0231  0.2647
31198W        W47007   3.932   8.757  15.010  0.1172 -0.0336  0.3726
31199W        W47008   0.427   7.908   3.579 -0.1513 -0.2958 -0.1237
31200W        W47009  15.461  18.844  12.714  0.2514 -0.4386 -0.0314
31201W        W47010   1.615  13.931   4.350 -0.0953  0.0202 -0.2550
31202W        W47011   5.786   5.654   1.334 -0.3869 -0.1936  0.0335
31203W        W47012  13.527   2.636  13.394 -0.1248  0.1644  0.1844
31204W        W47013  15.642   4.548   1.428 -0.2542  0.3523  0.0573
31205W        W47014   7.812   9.008   0.813 -0.0002 -0.1285  0.3447
31206W        W47015  11.806  12.722   1.779  0.1640  0.0414  0.0668
31207W        W47016   2.124   7.390  14.566  0.0268  0.1038  0.4651
31208W        W47017   2.194   5.989   5.309  0.1322 -0.0495 -0.0484
31209W        W47018  11.215  14.762   4.662  0.2191 -0.3296 -0.1011
31210W        W47019   3.779   1.591   2.531  0.1945 -0.0930  0.1250
31211W        W47020  16.478  16.729   4.195 -0.0619 -0.0943 -0.4327
31212W        W47021  12.694  15.731  10.920  0.1582 -0.0315 -0.2091
31213W        W47022  12.776   9.245  12.850 -0.0049  0.1897 -0.2791
31214W        W47023   4.585  10.881   2.572 -0.1893 -0.4147 -0.1318
31215W        W47024   1.214  14.152  14.579  0.1581  0.0075 -0.2017
31216W        W47025  13.388  15.754  13.478  0.1458 -0.0210 -0.2197
31217W        W47026  12.775   5.242   0.666  0.0979 -0.0890 -0.0433
31218W        W47027  14.950   3.493   3.143  0.3292 -0.1865 -0.0448
31219W        W47028  11.664  15.329  12.564 -0.1589  0.1022  0.3328
31220W        W47029   6.758  11.843  12.791 -0.0565  0.1121 -0.0114
31221W        W47030  15.607  10.070   2.239  0.0569 -0.1289 -0.1119
31222W        W47031  12.932   0.669   0.983  0.0345  0.2515  0.1591
31223W        W47032  11.398  12.716   1.027  0.0980 -0.1343 -0.1951
31224W        W47033  13.396  10.536  14.931  0.1751  0.0352  0.0281
31225W        W47034  17.938  17.193  10.997  0.1226  0.1686 -0.2925
31226W        W47035   7.543  11.951  15.146 -0.3564 -0.3460 -0.0904
31227W        W47036   9.411  15.323   3.245  0.2529  0.0844  0.1081
31228W        W47037  11.656   6.153  14.185 -0.1804  0.1271 -0.0492
31229W        W47038   9.580  13.663  10.973 -0.1641 -0.0686 -0.1801
31230W        W47039  18.341   0.561   2.173 -0.0802 -0.1220  0.0836
31231W        W47040   3.016  13.878   2.045  0.0198 -0.2295  0.4236
31232W        W47041   2.080  11.240  11.209 -0.1047 -0.1722  0.0112
31233W        W47042  10.481  16.888  12.537  0.3020 -0.3809 -0.0256
31234W        W47043   6.104   2.845  11.765  0.1302  0.3002 -0.0246
31235W        W47044   4.786   1.159  14.187  0.5022  0.4276  0.1550
31236W        W47045   8.453  14.560  11.297  0.0969 -0.2160 -0.1016
31237W        W47046  15.411   1.993   9.811  0.1107  0.1373  0.0310
31238W        W47047  17.691   9.385   5.306 -0.2368 -0.1975 -0.2322
31239W        W47048  10.260   8.533  15.251 -0.1298  0.0518 -0.0700
31240W        W47049  16.505   6.996   1.064  0.1311 -0.1970  0.0436
31241W        W47050  12.120   0.736   0.759  0.2969  0.1431 -0.0842
31242W        W47051   3.717   6.362   2.144  0.1277  0.0392 -0.1823
31243W        W47052   9.003  10.772   4.144  0.2114 -0.0163 -0.4502
31244W        W47053   1.505   5.028  13.032 -0.1543  0.1077  0.4167
31245W        W47054   1.487   8.815   2.129  0.0199 -0.1840 -0.0493
31246W        W47055   7.483  14.621   0.715 -0.1634 -0.2380  0.1588
31247W        W47056   6.930   8.046   3.254  0.2771  0.1379 -0.1467
31248W        W47057  17.972  16.326  14.932  0.1672  0.0686  0.1637
31249W        W47058   6.996   1.427  10.878  0.0115  0.0963 -0.2043
31250W        W47059  16.219  18.789  13.413 -0.0887  0.1483 -0.0437
31251W        W47060   3.850  15.734  10.693 -0.0053 -0.3269 -0.3143
31252W        W47061   4.133  11.826   3.059  0.0073 -0.3938  0.0509
31253W        W47062  10.842   3.147  12.833  0.0571  0.3356  0.1392
31254W        W47063   7.956   1.092   1.003 -0.0249 -0.0505 -0.0475
31255W        W47064   5.332   5.314   3.102 -0.1646  0.0516 -0.0431
31256W        W47065  15.418  18.191  14.848  0.1166 -0.0259 -0.2738
31257W        W47066   9.943  10.390   5.106 -0.2023 -0.0969  0.2005
31258W        W47067   8.461   3.495   1.268 -0.4231 -0.0117 -0.3113
31259W        W47068  14.721   0.708  10.739  0.2840 -0.1312 -0.2519
31260W        W47069  13.702   8.667   3.623 -0.0698 -0.0238  0.1242
31261W        W47070   1.136   1.366   3.020  0.0331 -0.1106 -0.1776
31262W        W47071   1.594  10.467   2.681 -0.2244  0.1101  0.0671
31263W        W47072   3.502  11.227   0.577 -0.0293 -0.3084 -0.3192
31264W        W47073  10.946   5.102   1.322  0.3557 -0.0140  0.2415
31265W        W47074  13.651  17.940  14.657  0.2133 -0.1555 -0.0641
31266W        W47075   1.260  15.388  10.630  0.3034  0.1247 -0.0315
31267W        W47076   1.849   0.667   4.613 -0.0728 -0.2565 -0.0146
31268W        W47077  12.116   2.587  12.754 -0.1343 -0.4590  0.1374
31269W        W47078   7.747   7.952   0.228 -0.0552 -0.2047  0.2067
31270W        W47079   4.436  18.249  12.275  0.0175  0.1653 -0.2267
31271W        W47080   1.246   4.672   5.421 -0.2781  0.1085  0.2372
31272W        W47081   0.822  10.338  13.158  0.1207 -0.2413 -0.0025
31273W        W47082  10.323  15.589   1.946 -0.0331  0.0768  0.0880
31274W        W47083  12.882   6.358   1.292  0.1617  0.0118 -0.0181
31275W        W47084   7.217  18.612  14.988  0.3404 -0.2358  0.1393
31276W        W47085  13.722   4.904   0.272 -0.1425  0.1901  0.4100
31277W        W47086   0.674   1.061   1.757 -0.0407 -0.1705  0.2146
31278W        W47087   2.917  17.327   1.206  0.1372  0.3349 -0.2387
31279W        W47088  13.882   0.634  12.547  0.2961 -0.3738 -0.0733
31280W        W47089   1.978  14.614   0.516 -0.2710  0.0811  0.0516
31281W        W47090  12.264   5.987  15.213 -0.0157  0.2661  0.0022
31282W        W47091   7.487   8.434   4.667 -0.1084 -0.1488 -0.0430
31283W        W47092  10.687   7.313  12.586  0.4932  0.0043  0.0824
31284W        W47093  10.996   1.363   1.777 -0.3653  0.0103 -0.2285
31285W        W47094  12.937  13.608   1.372  0.1116 -0.0787 -0.4251
31286W        W47095   8.239   7.758   2.279 -0.1639 -0.1310  0.0448
31287W        W47096  18.387  16.918   1.565 -0.1007 -0.2557  0.2413
31288W        W47097   5.420   1.471  15.324  0.0050 -0.4017  0.2147
31289W        W47098   1.298   6.613  14.695  0.0281  0.3502 -0.0414
31290W        W47099   5.098  15.306  10.648 -0.0533  0.0223  0.2101
31291W        W47100  14.674   9.267   0.756  0.2539  0.3906  0.1584
31292W        W47101   3.103  10.969   1.317  0.0861  0.0040  0.2399
31293W        W47102   6.256  16.663   2.275 -0.2587 -0.0244 -0.1406
31294W        W47103   8.246  16.529  10.430 -0.4171  0.4560 -0.0086
31295W        W47104   1.687   3.995   4.326 -0.1472  0.4699  0.0873
31296W        W47105  17.962   2.111  11.022 -0.3814  0.0266  0.1459
31297W        W47106   5.638  18.771   2.807  0.2355  0.1109 -0.0121
31298W        W47107   7.145   6.100  14.384 -0.0693 -0.4331 -0.0914
31299W        W47108  10.936   2.762  11.512 -0.0860  0.2143  0.1469
31300W        W47109  12.481   1.841   2.677  0.2476  0.0254 -0.1496
31301W        W47110   9.684   1.702   1.289 -0.1527  0.3698  0.0722
31302W        W47111   3.791   2.868   0.340 -0.1122 -0.2022 -0.1574
31303W        W47112  10.177   8.679   2.647 -0.1557  0.4296 -0.1471
31304W        W47113   5.378   0.813  10.720 -0.1623 -0.0080 -0.0171
31305W        W47114   4.291   2.966  11.196 -0.2150 -0.0897 -0.0967
31306W        W47115   5.860  18.887   2.046 -0.1789  0.1854 -0.1483
31307W        W47116  12.668  16.196  10.176  0.1793 -0.0088 -0.0311
31308W        W47117   4.319   1.092  11.439  0.1346  0.2178  0.3849
31309W        W47118   0.166   3.012  12.150  0.1475 -0.0902 -0.0603
31310W        W47119  15.162  18.830  10.641 -0.1545 -0.1726 -0.0639
31311W        W47120   4.852  10.908   0.373  0.1015 -0.0151  0.1223
31312W        W47121   4.612  18.662  13.367 -0.0637  0.1020  0.1046
31313W        W47122   5.404   0.701  14.558  0.0129 -0.0961  0.2458
31314W        W47123  11.310  16.594  10.824 -0.0819  0.1354 -0.0676
31315W        W47124  14.194   7.757  12.994 -0.2011 -0.2802 -0.2674
31316W        W47125  16.965  16.881  12.368 -0.2008  0.1212 -0.0785
31317W        W47126   4.940  14.926   2.721  0.0582 -0.1940  0.1360
31318W        W47127   9.806  13.087  12.920 -0.0688 -0.3903 -0.0800
31319W        W47128  14.435   4.963  10.688 -0.0943 -0.2080  0.0022
31320W        W47129  14.751  10.035  14.041 -0.1535  0.2200 -0.0922
31321W        W47130  10.815  16.248  12.189  0.3445 -0.0694 -0.0352
31322W        W47131  18.344  15.368   1.917  0.1367 -0.3045 -0.1407
31323W        W47132   8.160   4.198  14.680 -0.0552 -0.2582  0.1846
31324W        W47133  18.133   0.933   1.309  0.0733  0.0661  0.0397
31325W        W47134   6.548   2.645   1.835  0.0951 -0.0640  0.1079
31326W        W47135   7.271   9.093  13.928  0.0254  0.1790 -0.1744
31327W        W47136   1.593   6.777  15.135  0.1090  0.1917 -0.1753
31328W        W47137  15.555  15.971   0.753  0.1296  0.0531  0.0725
31329W        W47138   1.823   8.056   4.052 -0.1693  0.0159 -0.0080
31330W        W47139   3.157   6.264   1.181 -0.1890 -0.2118 -0.3261
31331W        W47140   2.827   9.332   1.229 -0.3564  0.3306 -0.1494
31332W        W47141   8.783  13.238  14.735 -0.1141  0.0843 -0.0308
31333W        W47142   6.267   8.530   4.284 -0.1624  0.0881 -0.1094
31334W        W47143  10.947  12.124  11.140  0.0150  0.0275  0.0262
31335W        W47144  13.969  17.557   0.658  0.0866  0.1630  0.0190
31336W        W47145  17.432  17.718   3.210  0.0275  0.1302  0.0800
31337W        W47146   0.464   7.101  11.208 -0.3976  0.4247  0.3755
31338W        W47147  18.530  17.683   3.308 -0.0793 -0.2177  0.0621
31339W        W47148  18.521   5.870   1.200 -0.0130 -0.0117  0.1284
31340W        W47149   8.004  16.720  11.766  0.1038  0.0872  0.1899
31341W        W47150  13.056  16.865   4.089  0.1593 -0.3720 -0.0002
31342W        W47151   4.098   4.338  13.387 -0.1720  0.1610 -0.1222
31343W        W47152  11.460   7.073   2.964 -0.1855  0.0785  0.0906
31344W        W47153   8.302  10.420  13.445 -0.0298 -0.1300  0.1617
31345W        W47154   7.911   2.534  15.429 -0.0957 -0.1178 -0.2228
31346W        W47155  18.813  11.766   2.613 -0.0003 -0.0622  0.0020
31347W        W47156   6.080   1.051   4.812 -0.1018 -0.2322 -0.2108
31348W        W47157  11.277   2.943   1.563  0.2046  0.2290  0.3127
31349W        W47158   5.561  13.682   0.279  0.0120 -0.3676 -0.0423
31350W        W47159   5.002  16.367  15.409  0.4052 -0.0807  0.0802
31351W        W47160   4.442   3.770   0.516 -0.3842  0.2670 -0.1090
31352W        W47161  16.663  18.579   3.905  0.0603 -0.1305  0.3558
31353W        W47162  13.852   9.870  13.293  0.1510  0.1602 -0.1428
31354W        W47163   6.954   9.128  12.196 -0.3021 -0.1010  0.2256
31355W        W47164   4.150   7.328   3.061  0.3094  0.1199  0.1189
31356W        W47165   1.474  16.834   2.977  0.0070  0.2735 -0.1245
31357W        W47166   5.792   7.020   0.721  0.0167  0.0185 -0.1020
31358W        W47167   8.198   8.770   3.306  0.0028 -0.1927  0.0820
31359W        W47168  13.673   5.634  10.860  0.0812 -0.0651 -0.0938
31360W        W47169  10.462   3.906   4.808  0.3421 -0.2524  0.0538
31361W        W47170   2.979  12.301  10.818  0.0410  0.0997 -0.2286
31362W        W47171  18.805   6.685  14.615  0.0639 -0.0346 -0.3022
31363W        W47172   0.291  16.026  11.236  0.0944 -0.0746  0.0059
31364W        W47173   3.922   6.581  12.529 -0.1101 -0.1574  0.1329
31365W        W47174   6.355  14.353  14.100  0.0735 -0.0276  0.3521
31366W        W47175   2.616   0.783  14.900  0.0053  0.2124  0.2647
31367W        W47176   8.098   0.751   4.158  0.0588 -0.0634 -0.2079
31368W        W47177   2.647  15.296   0.633  0.0747 -0.1724  0.1384
31369W        W47178   1.595  11.479   0.351  0.0319 -0.1550  0.0286
31370W        W47179  14.906   2.488   4.704  0.1349 -0.0956  0.0704
31371W        W47180  14.865   9.668   4.153 -0.0825  0.0442 -0.0591
31372W        W47181   4.475   3.332  15.209 -0.3006 -0.6493  0.0089
31373W        W47182   6.209   0.732  13.563  0.0910  0.2833  0.3018
31374W        W47183  10.752   5.138   3.975 -0.0864  0.0235  0.2560
31375W        W47184  13.531   2.834  11.891 -0.0450  0.5137 -0.0924
31376W        W47185  17.793   3.968   4.683 -0.2972 -0.0846 -0.1523
31377W        W47186  12.668  10.224   1.958  0.0779  0.0579  0.2126
31378W        W47187  10.710   1.189  10.898 -0.1241  0.0965  0.2622
31379W        W47188   7.573  15.573  11.662 -0.0316 -0.1323  0.2967
31380W        W47189   0.435   4.335  13.340 -0.2612 -0.1945 -0.2010
31381W        W47190   2.044   8.486  10.857  0.0161 -0.1641 -0.1415
31382W        W47191   9.713   2.012   0.372  0.0079 -0.0058  0.0877
31383W        W47192  16.427   5.780   2.594  0.2719  0.5553  0.0682
31384W        W47193  14.377   0.803   1.978 -0.1325  0.1593  0.1728
31385W        W47194  11.377  16.454   0.887  0.2241 -0.1915 -0.1611
31386W        W47195  15.735  12.058  10.953 -0.1284 -0.1664 -0.2200
31387W        W47196  15.690   4.088  11.079 -0.0961 -0.2081  0.1247
31388W        W47197   8.254   2.395   5.778  0.2184 -0.1351  0.0319
31389W        W47198   0.879   5.671  11.338  0.0279 -0.1376 -0.0117
31390W        W47199   6.269   0.400  15.204  0.0246  0.0292  0.2060
31391W        W47200  10.326   3.102   1.493 -0.0877 -0.1657 -0.0119
31392W        W47201   8.754   5.511  10.995  0.1457 -0.0884  0.0682
31393W        W47202   0.203   0.173  11.486 -0.2152  0.0887 -0.2118
31394W        W47203  13.115   8.228  12.017 -0.0188 -0.0018 -0.0491
31395W        W47204  18.089   6.312   2.684  0.0519  0.2086  0.0973
31396W        W47205   0.029   5.159   0.057  0.4279  0.0094  0.0462
31397W        W47206   9.322   9.588   4.972  0.1942  0.1296  0.3038
31398W        W47207   4.829   4.531  11.948  0.0556 -0.1395  0.5149
31399W        W47208   4.586   9.743  12.965  0.1640  0.3198 -0.1349
31400W        W47209   1.815  15.875  12.402  0.1008  0.2005 -0.0477
31401W        W47210   2.154   2.130  15.311  0.0961 -0.1850 -0.2452
31402W        W47211  11.828  13.131   2.164  0.2419  0.2977  0.0141
31403W        W47212   9.171   1.978   4.228  0.0443  0.1870  0.1552
31404W        W47213   7.967   3.684   1.797 -0.0593 -0.3533 -0.0798
31405W        W47214  11.654   2.931   4.387 -0.7305 -0.2435  0.3433
31406W        W47215  10.061  12.127   4.316  0.0050 -0.1154  0.3195
31407W        W47216  10.046  16.463   0.443  0.2180  0.0710 -0.1972
31408W        W47217  11.072  11.511  11.465 -0.0346 -0.4011  0.2869
31409W        W47218   6.249   0.223   2.171 -0.1079 -0.3209  0.1720
31410W        W47219  12.448   1.970  11.923  0.0320  0.1085  0.0955
31411W        W47220  10.872  13.094  12.111 -0.4696 -0.3994  0.1655
31412W        W47221   4.309  17.392  11.635 -0.1256 -0.0585 -0.0823
31413W        W47222   0.225   5.848   4.184  0.0250  0.2203  0.0565
31414W        W47223  10.584   5.513   3.559 -0.3464  0.0273 -0.0228
31415W        W47224  18.657   7.237   1.270 -0.1652 -0.2412  0.0591
31416W        W47225  10.056   4.017  13.917 -0.2667 -0.0814  0.0145
31417W        W47226   7.228  13.350  14.959 -0.0467 -0.2646 -0.0015
31418W        W47227   7.409   5.842   3.977 -0.0395  0.2543 -0.2916
31419W        W47228  18.603   8.954  12.181 -0.3202 -0.0208 -0.1676
31420W        W47229  14.792   6.232  10.433 -0.0621 -0.0962  0.2458
31421W        W47230  12.227   5.094   1.188  0.1207  0.0255 -0.1593
31422W        W47231  14.037  11.830  13.411 -0.0044 -0.1638  0.2193
31423W        W47232  17.775  18.474  12.335  0.1028  0.1262  0.0405
31424W        W47233  18.197  18.759  12.103  0.2753  0.2882  0.0603
31425W        W47234  16.025  12.843  10.347  0.1348  0.0805  0.4928
31426W        W47235   6.016  16.239   3.676  0.0042  0.1123 -0.6746
31427W        W47236  10.097   2.689   5.405 -0.2684 -0.2328  0.1420
31428W        W47237   1.343   8.677  11.175 -0.3093 -0.0904  0.3192
31429W        W47238   0.968   4.466   3.229 -0.1700  0.1106 -0.0121
31430W        W47239   7.074   7.758  12.525  0.1064 -0.0352 -0.2271
31431W        W47240  13.425   3.258   0.742 -0.1544  0.5265  0.1807
31432W        W47241  10.657  17.200  14.646 -0.0592  0.0390 -0.0899
31433W        W47242   2.529   1.451   1.742  0.3074 -0.2208  0.0752
31434W        W47243   6.603   6.119  15.237 -0.0344  0.3420  0.0149
31435W        W47244  13.769  10.538   0.453 -0.0139  0.1126 -0.1277
31436W        W47245  15.833  15.251   5.139  0.1878 -0.2451  0.2150
31437W        W47246   0.439   6.134   5.309  0.3205 -0.0622  0.2598
31438W        W47247   4.717  10.983   4.789  0.1713  0.4063  0.0002
31439W        W47248  16.840   0.150  12.611  0.1634  0.3202 -0.2458
31440W        W47249   6.701  11.432  11.553  0.0666 -0.0017  0.0868
31441W        W47250  15.006   6.138  15.149 -0.2059 -0.1195 -0.0072
31442W        W47251  15.241   6.802  13.806  0.0697  0.4145  0.0686
31443W        W47252   0.447  17.799   3.053  0.1379  0.2640  0.1354
31444W        W47253  14.821   7.701  13.053  0.2713  0.0209  0.3683
31445W        W47254  13.890  13.522   2.267  0.1426 -0.0513  0.3665
31446W        W47255  18.746  14.941   0.528  0.0869  0.1018  0.3009
31447W        W47256  13.241  17.048   4.752  0.2721 -0.0612 -0.1236
31448W        W47257   5.881   7.021   1.216  0.3211 -0.0630 -0.2437
31449W        W47258  12.650   6.138  11.244 -0.1669 -0.0461 -0.5477
31450W        W47259  14.236  11.408  15.046 -0.3627 -0.3378 -0.4034
31451W        W47260   4.953  10.347   4.458 -0.3461 -0.1662 -0.0786
31452W        W47261  13.211   3.764  14.891 -0.0771 -0.3166  0.5238
31453W        W47262  18.230  16.931  13.135 -0.1614  0.2293 -0.0805
31454W        W47263   5.026  16.380   2.367  0.0727 -0.0984 -0.3516
31455W        W47264   3.414   2.177   0.918  0.1852 -0.0013 -0.1408
31456W        W47265   7.432   0.589   4.430 -0.0962 -0.2644  0.2976
31457W        W47266  11.940  17.430  11.411 -0.2110 -0.1121 -0.1187
31458W        W47267  15.110   3.171   4.141  0.0977 -0.0440 -0.3077
31459W        W47268   5.461  11.496  12.959 -0.0210  0.0633  0.2794
31460W        W47269  18.219  10.541   2.516 -0.0997  0.0137 -0.2771
31461W        W47270   0.312  17.154   3.667 -0.0987  0.1081 -0.1086
31462W        W47271   1.804   3.689  13.517  0.0781  0.2039 -0.2958
31463W        W47272   7.395  16.756   2.737 -0.2318  0.2007  0.0225
31464W        W47273   1.047  13.312   3.525 -0.2682  0.1388 -0.1756
31465W        W47274   4.102   2.457  14.535 -0.0817  0.2525  0.0639
31466W        W47275   2.328   2.638   1.198 -0.1799  0.2460  0.0173
31467W        W47276   1.801   0.263  15.183 -0.0545  0.3135 -0.3883
31468W        W47277  18.281  11.274  12.690 -0.0909  0.1031  0.2221
31469W        W47278   3.689   7.715   3.904 -0.0196  0.1086 -0.0690
31470W        W47279   6.827   4.900   2.353 -0.2175  0.1673  0.1129
31471W        W47280   8.419   8.931  10.638 -0.0232  0.0256  0.3317
31472W        W47281   9.783   7.426  10.056 -0.1516 -0.1639  0.0578
31473W        W47282  17.122   9.865  12.311  0.2920  0.2550  0.1746
31474W        W47283   0.747   4.937  10.756  0.0042 -0.1665 -0.1520
31475W        W47284  10.457  13.905  12.943 -0.1418  0.0591  0.0629
31476W        W47285   1.579   9.947  11.214 -0.4946  0.6071  0.1731
31477W        W47286   8.000   2.408   1.085  0.2646 -0.1299  0.0153
31478W        W47287   6.488  14.983  12.446  0.1073 -0.0336  0.1516
31479W        W47288  10.733   9.733   0.327 -0.0750 -0.0764  0.1178
31480W        W47289   7.269  10.266   0.828 -0.4609  0.1940 -0.2007
31481W        W47290  15.573  12.230  11.397  0.2079 -0.2666  0.2200
31482W        W47291   8.680   4.314   3.218  0.0273  0.1490 -0.0243
31483W        W47292   1.157  11.736  12.656 -0.0107  0.2587  0.2536
31484W        W47293  11.372  16.573   4.531 -0.0094  0.0498 -0.2652
31485W        W47294   0.955   9.302   1.055  0.1893  0.0018  0.2640
31486W        W47295   9.992  18.078   3.831 -0.0364 -0.0265 -0.3274
31487W        W47296  10.276   4.031   5.471 -0.1720 -0.2283 -0.0486
31488W        W47297  10.021   0.329  12.661  0.0671  0.0511 -0.1219
31489W        W47298   6.730  18.694  14.776 -0.0118  0.1912 -0.0690
31490W        W47299   9.063   2.922  13.765  0.2205 -0.1964 -0.1545
31491W        W47300  12.843   0.193  10.828 -0.0957  0.1149  0.0991
31492W        W47301  17.663   1.277   5.138 -0.2975  0.0769  0.0724
31493W        W47302  10.789  12.588  13.431 -0.3339 -0.0792  0.3544
31494W        W47303   4.827   0.088  11.192 -0.0296 -0.0368 -0.2139
31495W        W47304   2.474  13.287  12.403 -0.1983 -0.0620  0.1034
31496W        W47305  18.417  15.000   2.282  0.0081  0.1308 -0.0006
31497W        W47306   9.130  14.415  11.817  0.1047 -0.3439  0.3840
31498W        W47307  15.529   3.084  12.099 -0.1664  0.1496  0.1472
31499W        W47308   5.998   5.592  11.554  0.0454  0.1444  0.0472
31500W        W47309   5.348   5.818  11.490 -0.0815 -0.3653 -0.2791
31501W        W47310   2.023   1.357  13.562  0.0821 -0.1303  0.0294
31502W        W47311  17.882   2.058  10.137 -0.2861 -0.2667 -0.0978
31503W        W47312  10.670  14.295   5.345  0.0893 -0.0470  0.1571
31504W        W47313  14.802  16.161   5.270  0.0838 -0.0280  0.1393
31505W        W47314  18.334  15.856   2.622  0.1044  0.1678  0.2734
31506W        W47315  12.071   3.410  10.293  0.1190  0.1991  0.0910
31507W        W47316  17.526  17.231  11.888  0.0314  0.0058 -0.2249
31508W        W47317  11.610   2.322   0.910  0.3377 -0.0007 -0.1419
31509W        W47318   4.328  12.427   2.653  0.1297  0.2266  0.3426
31510W        W47319  15.857  12.268   2.580  0.1179 -0.1978  0.1138
31511W        W47320  14.496   6.561   5.852  0.2578  0.1963  0.2242
31512W        W47321  13.404   1.170   2.420  0.1368 -0.0366  0.0323
31513W        W47322   5.696  18.750  14.340  0.1683  0.1928  0.2135
31514W        W47323   9.445   8.194  12.837  0.0851  0.3602  0.2417
31515W        W47324  15.292   8.652  13.931 -0.1729  0.0198 -0.3328
31516W        W47325  10.906  13.869  11.134 -0.0253 -0.0249  0.1962
31517W        W47326  17.124  12.313  14.804  0.3215  0.4834  0.1425
31518W        W47327  13.533  10.049  15.016  0.0052  0.0024 -0.2064
31519W        W47328  15.906  12.170   5.305  0.2703 -0.0267  0.0419
31520W        W47329   9.029  16.101  14.630 -0.3623 -0.3896 -0.3142
31521W        W47330  16.641   4.887  15.248 -0.0956  0.3622 -0.0624
31522W        W47331   5.576  11.259  13.691 -0.0694  0.0898  0.1693
31523W        W47332  13.926   8.985  13.733  0.2628  0.0714 -0.1319
31524W        W47333   5.968   4.079  12.800 -0.0585 -0.0246  0.0678
31525W        W47334  13.930  16.324  14.466 -0.1114  0.1222 -0.2887
31526W        W47335   2.098  12.735   4.797 -0.0058 -0.3806 -0.0136
31527W        W47336  18.156  14.760  11.285 -0.1507  0.1878 -0.0472
31528W        W47337  13.888   2.310  13.645 -0.0341  0.3461 -0.0970
31529W        W47338  11.432  14.335   3.584 -0.2164  0.1206  0.2681
31530W        W47339  15.688  18.099   0.785 -0.4133  0.3292 -0.1758
31531W        W47340  11.963  12.201  13.691 -0.2586 -0.3485 -0.0021
31532W        W47341   1.821   8.597   2.831 -0.1847  0.0298 -0.0488
31533W        W47342   1.295   7.142   4.348 -0.3856  0.0523  0.2561
31534W        W47343   5.790  12.210   4.845  0.0364 -0.0091 -0.1321
31535W        W47344  16.232   0.293  14.095 -0.3838 -0.0758 -0.1890
31536W        W47345   9.387  18.654  10.489 -0.1239 -0.3662 -0.0109
31537W        W47346  14.565  13.347   1.656  0.3332 -0.0843 -0.1790
31538W        W47347   5.504   6.189  13.718 -0.1580 -0.2075  0.3884
31539W        W47348  11.193   3.415   1.699 -0.0778 -0.0099 -0.0283
31540W        W47349  13.747  17.991   4.033 -0.0588 -0.0276 -0.1153
31541W        W47350   4.618   3.551  13.540 -0.3402  0.3054  0.0134
31542W        W47351   2.737  18.291   9.917  0.0832 -0.1358 -0.0565
31543W        W47352   4.177   0.027  13.402 -0.2799  0.0866 -0.0269
31544W        W47353   0.693  14.892  14.906  0.0485  0.0035  0.0473
31545W        W47354   4.090  10.579  11.640 -0.1640  0.0194  0.2381
31546W        W47355   8.586   8.782   1.633  0.2344  0.1911  0.2226
31547W        W47356  11.481   4.600  13.922  0.1341 -0.2199 -0.5593
31548W        W47357   2.174   8.777   3.284 -0.0161 -0.1913  0.0409
31549W        W47358   9.658  13.289  15.056  0.0265  0.1272  0.1601
31550W        W47359   8.560   1.315   2.283  0.1354 -0.1468  0.1657
31551W        W47360   9.963   7.509   4.430 -0.0155  0.1850 -0.0789
31552W        W47361   3.405   6.709   2.937  0.0987 -0.0330 -0.1778
31553W        W47362  15.983  15.431  12.017 -0.2053 -0.0227  0.0201
31554W        W47363   1.209  13.563   1.210  0.1421  0.2488  0.0875
31555W        W47364  11.110  15.153  12.592 -0.2152 -0.2767 -0.1028
31556W        W47365   1.329  12.848   0.433 -0.2121  0.4352  0.3569
31557W        W47366   4.136  16.829   9.498 -0.0097  0.0339 -0.1226
31558W        W47367   7.159  13.603   1.239 -0.2617 -0.1664  0.1571
31559W        W47368   8.708   3.441  12.782  0.2468 -0.1151 -0.1443
31560W        W47369  14.144  13.454  13.054 -0.0256 -0.0747 -0.0438
31561W        W47370   1.629   1.166  15.097 -0.0303 -0.1123  0.6065
31562W        W47371   0.069  15.907  14.291  0.3863  0.0454  0.0557
31563W        W47372   6.053   6.191  13.791 -0.0438 -0.0218 -0.1447
31564W        W47373   8.001   6.397  14.980  0.2062 -0.2724 -0.1860
31565W        W47374  12.763   9.327   2.090 -0.1998  0.0374  0.2824
31566W        W47375   7.077   9.559  14.515  0.0690  0.2635 -0.1015
31567W        W47376   9.460  16.308   1.143 -0.2437 -0.0949 -0.0292
31568W        W47377  17.010  14.513   4.051  0.2752 -0.2224  0.0406
31569W        W47378   0.973   2.101  12.773 -0.0747 -0.1549 -0.1629
31570W        W47379   3.243  13.458  11.797  0.1691 -0.1194  0.1854
31571W        W47380  15.415   4.105  13.647 -0.0899 -0.1724  0.2384
31572W        W47381   6.876  14.110   1.089 -0.1155  0.1919  0.0810
31573W        W47382   2.989  14.458   5.019 -0.1025 -0.1818 -0.1341
31574W        W47383   0.068  14.373  13.852  0.1220 -0.1702 -0.1612
31575W        W47384   4.143   3.197   3.835 -0.2291 -0.0753 -0.1448
31576W        W47385   2.343  16.847  13.731  0.3079  0.2193 -0.0798
31577W        W47386   4.251  16.417  13.848  0.2351 -0.2078 -0.1908
31578W        W47387  17.173  14.219  13.531  0.0924  0.2749  0.0983
31579W        W47388   3.008  12.556   3.598  0.2948  0.2466  0.0998
31580W        W47389  14.449   3.025   4.156 -0.0897  0.3609  0.1811
31581W        W47390   9.622  12.645   0.998  0.1880  0.2592 -0.0055
31582W        W47391  12.972  14.927  13.912 -0.1368  0.0530 -0.4570
31583W        W47392  10.228  13.205   0.433  0.2729  0.2480  0.1063
31584W        W47393  15.151   3.255  12.396  0.0988  0.0045 -0.1282
31585W        W47394   1.772   9.097   2.745 -0.1982  0.0497  0.0521
31586W        W47395   1.140  13.513   2.072 -0.1393  0.1125 -0.1919
31587W        W47396   9.993   9.526   1.394  0.2452  0.0292 -0.2289
31588W        W47397  12.796  14.046   1.541  0.0904 -0.3441  0.1326
31589W        W47398   6.741   7.048   3.022  0.0901 -0.2232 -0.1352
31590W        W47399  11.385   4.832   1.292 -0.0266  0.1000  0.0429
31591W        W47400   4.330   0.941   2.421  0.0862  0.2041 -0.0302
31592W        W47401   6.836  16.154  13.700 -0.1070 -0.1226 -0.0254
31593W        W47402  10.012   0.098   2.736  0.3082 -0.0631 -0.1427
31594W        W47403  13.867   9.831  11.078  0.1194 -0.2797 -0.0816
31595W        W47404   4.503   7.354   2.154  0.0116 -0.0184 -0.3886
31596W        W47405  10.908   8.267  14.613 -0.0114  0.1194 -0.2977
31597W        W47406   0.826  16.936   1.574  0.2101 -0.2220  0.1514
31598W        W47407   3.295   0.556  13.282  0.2530  0.0633 -0.1761
31599W        W47408  16.640  10.002   4.186  0.1241  0.2601 -0.1910
31600W        W47409   3.898  15.740   3.347  0.1261  0.3452  0.4485
31601W        W47410   6.906   3.606  11.007 -0.1705 -0.3175 -0.0909
31602W        W47411   7.476   2.546   4.279  0.0067  0.1735 -0.0376
31603W        W47412  14.863   8.276   2.698  0.2400  0.2783  0.0565
31604W        W47413  10.387   1.514   5.531  0.0551  0.1675  0.1431
31605W        W47414  11.174  12.943   4.783  0.1146  0.0961  0.1559
31606W        W47415  18.645   0.197  13.909 -0.0245  0.0285 -0.1168
31607W        W47416   4.404   9.984   3.835  0.0642 -0.0546  0.2576
31608W        W47417   8.733   0.825  10.588 -0.0965 -0.1165  0.0342
31609W        W47418   0.539  11.002   4.790 -0.0056  0.2149 -0.0960
31610W        W47419  16.896   9.573   4.209 -0.0868  0.0585  0.0973
31611W        W47420   1.078  11.756   2.430 -0.0228 -0.2137  0.3679
31612W        W47421  18.347  15.205   0.570 -0.0564 -0.2674  0.3081
31613W        W47422   4.639   8.604  13.012  0.1698  0.4294 -0.2897
31614W        W47423   4.688  15.359  12.282 -0.1447  0.2298 -0.1257
31615W        W47424   1.539  17.200   4.319 -0.0551  0.0679 -0.1760
31616W        W47425   9.978   7.294   3.768  0.0151  0.0922 -0.2620
31617W        W47426  16.080  18.781   1.350 -0.1908 -0.1999  0.0622
31618W        W47427   3.603   2.657  14.746  0.1615 -0.0926 -0.1811
31619W        W47428   4.091  17.317   1.615 -0.3625  0.4202  0.0109
31620W        W47429  11.664   1.248   2.227  0.0023 -0.3465 -0.3052
31621W        W47430   8.221   6.926  12.239  0.0556  0.0214  0.1045
31622W        W47431  11.122   8.701   1.826  0.1652  0.0204  0.1812
31623W        W47432   4.817   9.913   2.934 -0.1595  0.1569 -0.1507
31624W        W47433  16.306  18.807  15.344  0.1704  0.3956  0.1063
31625W        W47434   7.017  11.751   3.726 -0.3076 -0.1584  0.3161
31626W        W47435   5.022   0.157   0.507  0.3436  0.1491 -0.0496
31627W        W47436   2.898  16.191  13.511 -0.0082 -0.4794  0.1310
31628W        W47437  18.147   2.742  12.624  0.2284  0.1768  0.0718
31629W        W47438   9.915   6.982   0.852 -0.2543 -0.0445  0.0156
31630W        W47439  17.877  16.975   3.051 -0.1548 -0.1349  0.1429
31631W        W47440   0.038   7.399   0.874  0.0959  0.4008  0.0640
31632W        W47441  15.484  10.629  12.530 -0.0893  0.2522 -0.4218
31633W        W47442  16.767  14.106  11.797 -0.0800 -0.1591 -0.0480
31634W        W47443  15.650  12.616   5.383  0.1366 -0.3113 -0.4258
31635W        W47444   3.582   0.887   3.745 -0.0687 -0.1502 -0.1687
31636W        W47445   1.954   1.688   4.683 -0.0541  0.1495 -0.0712
31637W        W47446  12.141  14.044  12.870  0.0246 -0.0603  0.1673
31638W        W47447  13.028   0.586   3.870 -0.2119  0.1621 -0.0882
31639W        W47448  13.651   9.007  13.196  0.0299 -0.0279 -0.2654
31640W        W47449  15.764  12.030  15.213  0.0030 -0.3430  0.0241
31641W        W47450   4.253  13.682   3.123  0.1820  0.1108  0.1358
31642W        W47451  11.241   5.889   1.572 -0.1710 -0.0003  0.2748
31643W        W47452  10.842   4.756   9.823 -0.0676  0.1521 -0.2325
31644W        W47453   2.310   7.302  14.081 -0.4369 -0.2715 -0.2333
31645W        W47454   7.296   3.681  14.786 -0.0210  0.0128 -0.1477
31646W        W47455   4.379   5.626   4.944  0.1528 -0.3574 -0.1395
31647W        W47456  15.122   4.486   4.355 -0.1441 -0.1529 -0.3250
31648W        W47457   2.394  12.476  13.073  0.3911 -0.1477  0.0839
31649W        W47458  12.777   3.558  14.543 -0.2850 -0.4380 -0.2390
31650W        W47459  16.166   0.506   3.163  0.2787  0.1582  0.2423
31651W        W47460  12.530  13.308  12.500 -0.2713  0.1024  0.0970
31652W        W47461  10.258  17.514  14.436 -0.0195  0.1076 -0.2165
31653W        W47462   3.011  14.641  13.711 -0.0086  0.0024 -0.0134
31654W        W47463   9.094   8.039  14.781 -0.0998 -0.0548  0.1671
31655W        W47464  13.075  13.531  14.978  0.0543 -0.1907  0.2549
31656W        W47465  14.442   6.600  15.062  0.1591  0.2585 -0.0488
31657W        W47466   4.366   6.554  12.189  0.0594  0.0340 -0.2202
31658W        W47467   2.207   9.573   2.369  0.4460  0.3040 -0.0222
31659W        W47468   6.598   0.696  11.248  0.2304  0.1832 -0.3360
31660W        W47469  10.811  12.402  12.673  0.1582  0.0373  0.2737
31661W        W47470   1.851  11.798  15.412 -0.0871 -0.1054 -0.1761
31662W        W47471   2.315  10.976   5.288  0.0416  0.1258 -0.1606
31663W        W47472  12.416  13.988   3.511 -0.0866  0.3323 -0.1163
31664W        W47473  14.389   3.110  14.925 -0.0234  0.2144  0.4788
31665W        W47474   1.979   4.145   2.092  0.0132  0.0642  0.1179
31666W        W47475   5.192  15.301   2.075  0.4046  0.2076  0.0935
31667W        W47476  11.707   9.284   0.435  0.2537 -0.0733  0.1554
31668W        W47477  17.729  10.312  11.030  0.2877 -0.4043  0.2544
31669W        W47478  17.877  17.193   4.198 -0.1532 -0.0016 -0.0058
31670W        W47479   6.618   5.810   2.497  0.4295  0.0394 -0.2377
31671W        W47480  17.573   5.768  14.043 -0.0458 -0.0524  0.0416
31672W        W47481  13.098   1.266   5.662  0.0939 -0.1353  0.2005
31673W        W47482   7.256  18.447   4.375  0.3941  0.0254  0.1781
31674W        W47483  14.406  10.993   0.090  0.0974 -0.0234 -0.2173
31675W        W47484  13.132   0.226   3.390 -0.0699  0.2964 -0.0816
31676W        W47485   3.308   2.349   9.383  0.0552 -0.0830  0.0703
31677W        W47486   2.828   7.410  12.226 -0.2015 -0.0026  0.0189
31678W        W47487   1.332   8.042  14.947 -0.1565 -0.1033  0.0219
31679W        W47488   0.353   6.180  11.017  0.0394 -0.4713 -0.0512
31680W        W47489   6.667   1.574  10.500  0.0428  0.4023  0.0462
31681W        W47490   3.991   5.027  14.532 -0.3193  0.0641  0.2386
31682W        W47491   0.614  18.709  13.916  0.1520 -0.0852  0.0965
31683W        W47492  12.757  16.079   4.393  0.0397  0.1212 -0.2301
31684W        W47493  16.072   8.300   4.347 -0.0478  0.2651  0.0975
31685W        W47494   5.265  15.215  11.111 -0.1336  0.1002 -0.1197
31686W        W47495  14.384  16.274  14.297  0.1060 -0.1578  0.0079
31687W        W47496   1.401   2.551  13.813 -0.1347  0.0959 -0.0459
31688W        W47497  13.565   6.928   4.707  0.0612  0.0684 -0.0080
31689W        W47498   6.505  15.916  12.614  0.2034 -0.0013  0.1285
31690W        W47499  18.111   0.749   0.841  0.0724 -0.2994 -0.1351
31691W        W47500   9.131   5.099  13.387  0.1876 -0.0730  0.2716
31692W        W47501   9.774  12.554  13.853  0.0085  0.0596 -0.2280
31693W        W47502   2.431  13.958   1.396 -0.2292 -0.2853  0.2939
31694W        W47503   9.012   6.103   0.445 -0.2088 -0.0787 -0.0447
31695W        W47504   1.986   7.159  14.982  0.1695 -0.1571 -0.1441
31696W        W47505   0.341   9.747   3.768  0.0606  0.3481  0.0414
31697W        W47506  11.143   5.818   2.016  0.0150  0.0910 -0.1223
31698W        W47507   7.389  16.601  11.193 -0.2064  0.1010 -0.2044
31699W        W47508   2.549  10.678  11.812 -0.0024  0.2247  0.2473
31700W        W47509   1.256  16.274  10.378  0.3418  0.3825 -0.0855
31701W        W47510   2.414  12.963  13.197  0.1192  0.2798  0.0236
31702W        W47511   2.343   5.716   2.610 -0.0972 -0.0578  0.0085
31703W        W47512   8.907   2.188  12.050  0.3363  0.3035 -0.0747
31704W        W47513   6.250  17.789   1.446  0.2646 -0.1802  0.1035
31705W        W47514   5.794  18.354   4.204  0.0364 -0.2012 -0.0472
31706W        W47515  15.602  13.299  14.124  0.1027 -0.5617  0.1746
31707W        W47516  18.124   6.719   1.701  0.1963 -0.2231 -0.1430
31708W        W47517  13.805  14.065  11.395 -0.0869 -0.0262  0.2172
31709W        W47518  14.353   8.584   4.438 -0.1013 -0.3368  0.2187
31710W        W47519  10.660  10.500  12.265  0.2773 -0.0071 -0.2145
31711W        W47520  14.677   8.610  10.449  0.3048 -0.0246  0.2911
31712W        W47521   9.955  10.208  15.397  0.1573  0.1360  0.2068
31713W        W47522  18.312   2.395   1.554  0.0648  0.2409  0.3527
31714W        W47523   4.922   2.512   1.797  0.1026  0.3878  0.2043
31715W        W47524  14.026   6.538   1.254  0.1512 -0.3262  0.2448
31716W        W47525   8.211   6.010   5.087 -0.0445 -0.2310 -0.1137
31717W        W47526  10.548   4.449   1.921 -0.2069 -0.0256  0.0569
31718W        W47527   5.108   4.483  13.573 -0.0645 -0.2509 -0.0846
31719W        W47528   4.025  13.978  10.507  0.1598  0.1968 -0.2176
31720W        W47529  12.188  12.296  10.231  0.0172 -0.0586  0.0700
31721W        W47530   7.621   9.125   1.421 -0.2209 -0.3981 -0.0862
31722W        W47531   3.912   0.726  15.410  0.2752  0.0638  0.0033
31723W        W47532   8.786   5.141   1.615  0.0463 -0.1538 -0.2582
31724W        W47533  13.980  18.274  10.236  0.0843  0.0942 -0.0837
31725W        W47534  15.289   1.249  13.350 -0.2320 -0.3011 -0.0339
31726W        W47535   2.792  13.494  15.283  0.2077  0.2778 -0.2589
31727W        W47536  15.585  18.325   2.307 -0.2709 -0.2351 -0.0207
31728W        W47537  10.780   5.357   2.654  0.1082  0.2007 -0.1583
31729W        W47538  12.144   7.691  14.180  0.1922  0.0599  0.0225
31730W        W47539   7.546   8.497  15.094  0.1183 -0.2223 -0.1422
31731W        W47540  12.724  12.486   2.631 -0.1447  0.1654  0.1742
31732W        W47541  11.987   7.503  14.925 -0.0094 -0.2033  0.1919
31733W        W47542   6.313   2.254   0.285  0.2182  0.0082 -0.1841
31734W        W47543   7.864   9.433  14.398  0.0950  0.2209  0.2136
31735W        W47544  13.712   2.592  12.850  0.2579  0.0483  0.1580
31736W        W47545  12.855   3.241   3.299  0.3157 -0.2266  0.1739
31737W        W47546   7.709  18.312  13.699 -0.2509 -0.0767 -0.1068
31738W        W47547  13.118   3.039  13.378  0.4182 -0.2652 -0.0070
31739W        W47548   6.276  15.674   3.835 -0.5147 -0.2231 -0.1252
31740W        W47549   7.247   8.984  11.466 -0.0241 -0.1414  0.2067
31741W        W47550  17.577   9.530   9.920 -0.0786 -0.0257 -0.0257
31742W        W47551  18.376   8.916  14.805  0.4485 -0.0256  0.3622
31743W        W47552  15.519  11.009  13.022  0.2618  0.1833 -0.1979
31744W        W47553   7.401  13.316  11.945 -0.2250  0.1010  0.4480
31745W        W47554   4.047   4.230   3.167 -0.3798 -0.0654 -0.0644
31746W        W47555  17.979   5.842   5.504 -0.3148  0.0278  0.0690
31747W        W47556  10.104   5.016  15.420  0.0102  0.0837  0.1022
31748W        W47557  10.838  18.156   0.890 -0.3295  0.1955 -0.0110
31749W        W47558  18.165  18.246   2.961 -0.0340 -0.1084  0.1786
31750W        W47559  16.000  11.596   3.590  0.6091 -0.1935 -0.0937
31751W        W47560  18.064  11.922   0.473 -0.1565  0.0993 -0.0116
31752W        W47561   4.057   2.439   2.972 -0.0070  0.1530  0.2058
31753W        W47562  16.262   1.497  15.245 -0.0405 -0.2387  0.4322
31754W        W47563  11.568   4.876  12.373 -0.1871  0.3297 -0.1325
31755W        W47564   1.371  10.859  13.766  0.1321  0.3299  0.3391
31756W        W47565   7.503   8.775   4.197 -0.0351 -0.2424  0.0711
31757W        W47566  16.550  12.992  10.900  0.0576 -0.2105 -0.0764
31758W        W47567   1.434   9.728  13.170  0.1421  0.3173 -0.0756
31759W        W47568   9.571  10.034  15.053 -0.1960 -0.0803  0.0843
31760W        W47569  15.960   1.091  13.981  0.0529  0.0626  0.2689
31761W        W47570  17.309  11.559  13.509  0.2240 -0.1338  0.1765
31762W        W47571   3.639  14.662   0.213  0.1433 -0.1487 -0.0225
31763W        W47572  11.113  15.715   4.158  0.3415  0.3725 -0.1204
31764W        W47573  16.411  18.631  12.630  0.3323 -0.0284 -0.3403
31765W        W47574   1.416  12.452   2.830 -0.2857 -0.1227 -0.1746
31766W        W47575  11.790   0.889  10.389 -0.3016 -0.4539 -0.0125
31767W        W47576   3.063  18.586   4.839 -0.1233  0.0491 -0.2034
31768W        W47577  12.922  13.426  10.706  0.3137 -0.2557 -0.0946
31769W        W47578   4.948   9.732  11.560 -0.1735  0.0568 -0.0917
31770W        W47579  16.919   1.940   0.761 -0.1622 -0.0368  0.1602
31771W        W47580  14.652   4.937   1.457 -0.1430  0.2039  0.2451
31772W        W47581   7.578   1.979  10.874 -0.0232  0.2609 -0.0524
31773W        W47582  10.876   1.998  14.041 -0.4062  0.1607 -0.1985
31774W        W47583   6.866   9.271   3.905  0.1162  0.1329 -0.1700
31775W        W47584  15.296  15.340  12.219 -0.0239 -0.1110 -0.0589
31776W        W47585   7.764  15.121  11.465  0.0461  0.0902  0.1355
31777W        W47586   1.422   7.007   3.310  0.1760 -0.1919 -0.1676
31778W        W47587   3.222   6.142  13.221  0.2469  0.5244 -0.2066
31779W        W47588   1.406   1.977   5.789 -0.3246 -0.0261 -0.1840
31780W        W47589  11.081   0.396   2.920 -0.0316 -0.0519  0.0921
31781W        W47590   4.610  10.171   1.590  0.0936  0.1610 -0.0370
31782W        W47591   1.357  18.577  14.629  0.1220 -0.0356 -0.0054
31783W        W47592  13.713  10.775  14.574  0.0288 -0.0558  0.0386
31784W        W47593  16.246   3.583  11.531 -0.0586  0.1074 -0.3996
31785W        W47594  17.571   0.979  13.561  0.0217  0.1162 -0.0184
31786W        W47595  15.829   7.936  12.314 -0.1494 -0.1484 -0.0280
31787W        W47596  17.528  17.964   0.274 -0.0072 -0.2258 -0.1572
31788W        W47597   8.543  13.233  14.258 -0.0636  0.1954 -0.2420
31789W        W47598   6.706   7.386  11.352 -0.1470 -0.0463 -0.1909
31790W        W47599  16.330  17.077   4.543  0.2360  0.3528  0.1793
31791W        W47600   6.268  13.446   5.175 -0.2097  0.1747  0.1149
31792W        W47601   5.719   2.137  12.815 -0.2404  0.2033 -0.1313
31793W        W47602   2.740  17.008  14.632  0.1652 -0.1636  0.2287
31794W        W47603  17.586  10.820   0.805 -0.2354  0.1293  0.1805
31795W        W47604   2.288  11.486  12.132 -0.1436 -0.1583 -0.1428
31796W        W47605   0.807  14.835   3.034 -0.0385 -0.2930  0.1337
31797W        W47606  15.751  17.762   1.185  0.0643 -0.1961 -0.1027
31798W        W47607  18.186  18.401   1.804 -0.2051 -0.1095 -0.0808
31799W        W47608   4.118   4.251  10.611  0.0431  0.1676 -0.0220
31800W        W47609  17.905  12.870  10.683  0.0941 -0.3217  0.1952
31801W        W47610   5.394   9.225   3.663 -0.0149 -0.0624  0.0495
31802W        W47611   7.376  13.743  13.976 -0.1560 -0.1177 -0.2693
31803W        W47612   6.057  14.346   4.951  0.3233 -0.1283  0.1712
31804W        W47613  12.592  17.022   4.909 -0.0841 -0.1069 -0.2162
31805W        W47614  10.341   0.623  15.356 -0.0572 -0.3216 -0.3495
31806W        W47615  15.280   8.489  13.474 -0.0612 -0.0210  0.0796
31807W        W47616  10.026  16.992  12.400 -0.1647  0.2691  0.0498
31808W        W47617   9.640   1.770   9.949  0.3952  0.1618 -0.2958
31809W        W47618  10.217   2.409  11.646  0.2606 -0.3747 -0.0075
31810W        W47619  16.025  13.097   2.862 -0.2298  0.2998 -0.2715
31811W        W47620  13.668  15.003  14.670 -0.2829  0.3432  0.0604
31812W        W47621  18.661   7.149  11.919 -0.3089  0.1316 -0.2545
31813W        W47622  17.744   4.444   5.805 -0.0850  0.0139 -0.1039
31814W        W47623   7.546  15.689   2.575 -0.4769 -0.0584  0.0906
31815W        W47624   5.096  18.800  12.816  0.0637  0.1191 -0.1199
31816W        W47625  13.670  10.725   1.321 -0.1226 -0.1735  0.2203
31817W        W47626   5.145  11.743   0.899  0.0921  0.0802  0.2307
31818W        W47627  16.401   4.840   5.421 -0.2830  0.1354 -0.0413
31819W        W47628  14.530   3.849   2.561 -0.0548  0.0107  0.1495
31820W        W47629  16.242  12.337   0.702 -0.0466 -0.2389 -0.0296
31821W        W47630  17.002  14.604   2.983  0.0590 -0.1254  0.2269
31822W        W47631  16.541   7.784  11.710 -0.2895  0.2774  0.2916
31823W        W47632   2.959   3.456   3.184  0.1478 -0.2275  0.0067
31824W        W47633   5.965   7.430  14.818  0.1710  0.0733 -0.1000
31825W        W47634   6.567  14.415   0.034  0.0280 -0.3442 -0.3668
31826W        W47635   2.154   5.813   3.828 -0.2197  0.0845 -0.3030
31827W        W47636  18.263   4.532   5.083 -0.0806 -0.2674 -0.2008
31828W        W47637   9.205   1.255   5.028  0.0491  0.0616 -0.2106
31829W        W47638  11.988  18.869  12.414 -0.0826 -0.4788 -0.0990
31830W        W47639  11.781  11.744   2.256 -0.0608 -0.2734  0.1472
31831W        W47640   6.460   1.701  12.277 -0.2260  0.3371  0.0304
31832W        W47641   3.862  10.991   2.770  0.0978 -0.0320  0.2149
31833W        W47642  17.176  17.042   0.410 -0.4527  0.0074 -0.2339
31834W        W47643   2.449   5.347   4.586 -0.2026  0.0540 -0.0306
31835W        W47644   8.527   8.834   4.242 -0.0413  0.1230 -0.6559
31836W        W47645   5.734  10.981   4.368  0.0614  0.2797  0.0710
31837W        W47646   5.844   4.209   2.742 -0.0994 -0.1692 -0.1970
31838W        W47647  12.231   5.608  14.814  0.1645  0.1538  0.4965
31839W        W47648  12.924   9.611  13.247  0.1193 -0.2291 -0.3207
31840W        W47649  12.517  16.408   0.948  0.1657  0.0365 -0.0897
31841W        W47650   4.674  16.906   0.970 -0.0441 -0.0047  0.0218
31842W        W47651  14.776   9.438   2.403 -0.1783 -0.1079 -0.1061
31843W        W47652   6.632  17.742   2.412  0.2433  0.2592 -0.1946
31844W        W47653   5.427  10.429   9.849  0.0777  0.2419  0.0425
31845W        W47654   5.677  16.333  10.618 -0.1740  0.3319 -0.0315
31846W        W47655  17.394  13.589   4.008  0.0858  0.2161  0.0189
31847W        W47656  14.357   1.378  12.716  0.0266 -0.1353 -0.1927
31848W        W47657   7.422  15.289  13.252  0.1636  0.2338 -0.1529
31849W        W47658  12.259  10.850  11.248 -0.0459  0.0096 -0.1074
31850W        W47659   5.645   6.255  10.557 -0.3959 -0.0140  0.2390
31851W        W47660   2.334  14.523  12.348  0.3199  0.2900 -0.2899
31852W        W47661  17.633   4.880  10.597 -0.2671  0.2482  0.1906
31853W        W47662  11.444  11.188  14.664  0.2571 -0.0126  0.0257
31854W        W47663  13.941   5.649  14.148  0.0984  0.0582  0.0513
31855W        W47664   3.046  15.505  12.776  0.0239 -0.2018 -0.0903
31856W        W47665   2.045   6.445  14.526 -0.3920 -0.3917  0.1231
31857W        W47666  10.035   8.221   1.693  0.0739  0.4046 -0.0956
31858W        W47667   7.437   9.459  14.162  0.2346  0.2093  0.0039
31859W        W47668   7.062   5.917  11.564 -0.0649 -0.0715 -0.4470
31860W        W47669   7.141  10.827   2.448  0.0643 -0.1547 -0.0933
31861W        W47670  17.155   1.736   4.668 -0.1410  0.1003 -0.0765
31862W        W47671  18.814   2.575  13.656 -0.1186  0.0914 -0.1817
31863W        W47672  14.399   5.521  14.760 -0.1218  0.0099  0.2634
31864W        W47673   3.091  17.443   1.649 -0.0511  0.0400 -0.0174
31865W        W47674  15.759   4.278  15.085  0.0576  0.1612  0.0197
31866W        W47675   7.967  11.323  12.125  0.0136 -0.0387  0.0875
31867W        W47676   2.688  18.542  12.337 -0.0518  0.2349  0.1802
31868W        W47677   4.472  18.666  10.988  0.3201  0.2049 -0.0937
31869W        W47678   6.456  13.898   1.902 -0.2683 -0.1592  0.1587
31870W        W47679   9.066   1.076  10.968 -0.1089  0.0010  0.0068
31871W        W47680   1.403   2.658  11.050  0.0469 -0.0351 -0.1089
31872W        W47681   3.156   0.584  12.703  0.0959 -0.1583 -0.3290
31873W        W47682   4.594  17.347  15.406  0.0528 -0.3867 -0.2379
31874W        W47683  18.313   6.551   0.911 -0.1381  0.1022  0.0988
31875W        W47684   0.014   7.685  14.674 -0.0725  0.3169 -0.0997
31876W        W47685  15.529  11.208  11.312 -0.2205  0.0068  0.1804
31877W        W47686   3.875   9.993  11.835 -0.0622  0.2503 -0.0139
31878W        W47687  15.358  17.987   3.189 -0.0080  0.0336 -0.0106
31879W        W47688   2.777   0.712   3.350  0.0609  0.3710  0.2786
31880W        W47689   2.584   9.588   4.867 -0.2486 -0.0361  0.1682
31881W        W47690   3.378   4.427   3.931 -0.3217 -0.1016 -0.1842
31882W        W47691   5.145   7.244   3.478  0.1391  0.0903  0.0422
31883W        W47692  16.716  13.325  14.035  0.2100 -0.0304 -0.2074
31884W        W47693   3.356   1.983  10.611  0.0692 -0.1246  0.0576
31885W        W47694   3.897  10.895   3.335  0.0086 -0.3665 -0.2216
31886W        W47695  18.897  16.790   1.633 -0.2215 -0.1533  0.0021
31887W        W47696  12.367  14.227   0.337  0.0747 -0.0842 -0.0619
31888W        W47697   3.629   8.102   0.224  0.0549 -0.2752 -0.2962
31889W        W47698  13.489   6.371  12.021 -0.0241 -0.1356  0.1399
31890W        W47699  12.873  14.160  11.182  0.1355  0.1994  0.0749
31891W        W47700  13.000   2.825  12.124 -0.1962 -0.3087  0.2390
31892W        W47701  15.265  18.240   5.144  0.0401 -0.0017 -0.0220
31893W        W47702   6.399   2.397  15.121  0.0018  0.0472  0.1911
31894W        W47703   2.081  18.882   4.005 -0.2359  0.1400  0.0649
31895W        W47704  16.491   3.074  11.545 -0.0147 -0.0461  0.0379
31896W        W47705   9.353   5.798   5.546  0.0295  0.1081  0.0189
31897W        W47706   0.035  18.717  15.217  0.1884 -0.0764 -0.3632
31898W        W47707   4.299  15.989   3.215 -0.1751 -0.1816  0.1889
31899W        W47708   7.978  16.478  11.346 -0.3116  0.3240 -0.0038
31900W        W47709   4.706  11.060  13.665 -0.0791 -0.0766  0.1021
31901W        W47710   8.953   1.885   3.396  0.1483  0.0374 -0.2129
31902W        W47711  11.732   9.456  13.493  0.0760  0.1088 -0.0953
31903W        W47712   2.836  13.258  10.733 -0.0704 -0.0128  0.0333
31904W        W47713   1.058  17.843   1.047  0.0709 -0.0553 -0.1390
31905W        W47714  13.863  18.905   0.995  0.0382  0.1549 -0.2364
31906W        W47715   6.652   0.041  11.197  0.1060  0.1719  0.0063
31907W        W47716   4.077  15.618   4.416  0.1866  0.1545 -0.2340
31908W        W47717  12.366   3.225   3.108 -0.4602  0.0202  0.1033
31909W        W47718  14.779  18.839  13.015  0.2176  0.1289  0.4595
31910W        W47719  10.074   9.435  15.317 -0.0459  0.0978  0.0195
31911W        W47720   2.075   3.861  13.077  0.1552  0.0265  0.0452
31912W        W47721   9.359  17.208  10.830 -0.3758  0.1375  0.0014
31913W        W47722  12.372   6.430   1.310 -0.0821  0.0857 -0.1470
31914W        W47723  17.874   9.379  11.045  0.1826 -0.3314 -0.0978
31915W        W47724  13.557   0.299   2.851 -0.1362  0.1555 -0.1601
31916W        W47725   7.369   2.901  12.534  0.2794 -0.0867  0.3498
31917W        W47726   9.223  12.899   2.795 -0.3226 -0.1155 -0.0345
31918W        W47727  12.300  16.187   0.093 -0.3001  0.1085 -0.0772
31919W        W47728   6.956   5.219   4.686 -0.3016 -0.1705 -0.1122
31920W        W47729  14.008   7.344  13.383  0.0161  0.0063 -0.0061
31921W        W47730   7.787   2.798  10.966  0.1562 -0.0939 -0.0100
31922W        W47731  10.369   2.396   1.120  0.1086 -0.1778 -0.0583
31923W        W47732  18.726   6.085   4.069  0.4388 -0.0234  0.0217
31924W        W47733  11.230   7.969  12.593  0.2698 -0.2770  0.1681
31925W        W47734  14.898  15.272  10.572 -0.0913 -0.1661 -0.1066
31926W        W47735  13.092  17.457   0.160 -0.1840 -0.1609 -0.1638
31927W        W47736  11.326  12.360   0.079 -0.2910  0.0919  0.1646
31928W        W47737  17.993  11.704   3.820 -0.1143  0.1849 -0.0105
31929W        W47738   4.858   7.537   1.811  0.0446 -0.1055  0.0661
31930W        W47739  10.669  18.906   4.258 -0.3790 -0.1028  0.1181
31931W        W47740  18.720  11.523   4.357 -0.3195 -0.0575 -0.1952
31932W        W47741   5.558   6.979  12.650 -0.2887  0.0511  0.1030
31933W        W47742   3.907  18.832  15.408  0.1715  0.0791  0.0581
31934W        W47743  11.086  11.888   1.401 -0.1633 -0.4524  0.2875
31935W        W47744   2.254  15.152   3.702  0.3407 -0.1651 -0.0244
31936W        W47745   4.941  11.146  15.308  0.1418 -0.1944 -0.1539
31937W        W47746  18.699  17.442  15.263  0.0420 -0.0744  0.1162
31938W        W47747   3.145  17.119  10.579  0.1975  0.1861  0.0449
31939W        W47748  15.458   3.740   0.934  0.2302 -0.1109 -0.3556
31940W        W47749  14.603   5.199  14.314  0.1568  0.0415 -0.2068
31941W        W47750   9.467   7.857  14.029 -0.0617  0.1420 -0.1941
31942W        W47751  13.498   7.288  13.651 -0.1494 -0.0312 -0.1537
31943W        W47752  10.066   4.038  14.441 -0.0435  0.1620 -0.0364
31944W        W47753   0.104   1.735   4.992  0.0700 -0.0696 -0.0823
31945W        W47754  13.049   9.856   2.730  0.1361 -0.0226  0.1958
31946W        W47755  17.234  16.450   5.303 -0.0021 -0.0220  0.2102
31947W        W47756  16.785   2.180  13.573  0.4075 -0.1550 -0.0915
31948W        W47757  15.947  12.158  11.901  0.1008  0.1616  0.2452
31949W        W47758   3.997   2.156  11.271  0.1649 -0.1107 -0.1216
31950W        W47759  11.894   7.390  14.417 -0.0391  0.0695  0.4320
31951W        W47760   0.472  12.439  12.500  0.1953  0.0222 -0.5217
31952W        W47761   1.968  14.028   3.412 -0.2201  0.1852 -0.3341
31953W        W47762   7.876   8.421  14.320  0.0907 -0.1970  0.0537
31954W        W47763   8.645   3.587  10.498 -0.0923 -0.0114  0.2977
31955W        W47764  11.649  12.979   1.351  0.2018 -0.5316  0.2360
31956W        W47765   8.495   5.542   5.209  0.2049  0.0590 -0.1386
31957W        W47766   9.225   2.370  10.443  0.1651  0.3272 -0.1994
31958W        W47767  12.452  18.057   2.630 -0.0543  0.0373  0.0157
31959W        W47768   2.187  14.280   0.269  0.0226  0.1061 -0.0858
31960W        W47769   5.349   7.354  14.011 -0.0298 -0.0819 -0.2066
31961W        W47770   2.958  10.642   0.878  0.4663  0.0743  0.0589
31962W        W47771  12.909   2.288  14.789 -0.2034  0.2210  0.3325
31963W        W47772  18.242   3.964   2.438 -0.0611  0.0971 -0.1767
31964W        W47773   0.547  17.986  15.058 -0.1052 -0.1587  0.2886
31965W        W47774  12.790  15.403  14.855 -0.3376  0.1264  0.0028
31966W        W47775   8.889   5.903  13.539  0.0335  0.2056 -0.1436
31967W        W47776   3.047  18.058  15.426  0.0503  0.0671  0.0127
31968W        W47777   6.980  11.019  12.909  0.2644 -0.1271  0.3089
31969W        W47778  14.332   7.498  14.167 -0.0965 -0.0592  0.0965
31970W        W47779   6.217   5.452  14.800  0.2145 -0.1479 -0.2145
31971W        W47780   7.327  13.818   1.689  0.0805 -0.2339  0.1762
31972W        W47781  13.275  14.495  11.152  0.0882  0.1775  0.1303
31973W        W47782   0.116  18.697  13.134  0.0929  0.0580  0.0287
31974W        W47783   8.933   9.184   2.274 -0.2109 -0.2787  0.5259
31975W        W47784   3.336   0.900   2.832 -0.0472 -0.0934  0.0309
31976W        W47785   0.351   5.246  13.677 -0.1458 -0.0564 -0.1872
31977W        W47786  10.441   7.542  11.660  0.0599 -0.0001 -0.0191
31978W        W47787   0.656   3.402   4.458 -0.2006  0.0353  0.1816
31979W        W47788  18.892   6.189   1.274  0.2599 -0.1745 -0.2670
31980W        W47789   9.750  18.287  13.208 -0.0140 -0.0612 -0.1704
31981W        W47790   2.752   5.576   4.181  0.0866  0.2311  0.0810
31982W        W47791   3.421  16.664  11.718 -0.0045  0.0574 -0.1549
31983W        W47792   9.589  10.708  12.242 -0.1956 -0.0013  0.0648
31984W        W47793  16.035  17.366  12.214  0.1657  0.0703 -0.0770
31985W        W47794   4.375   7.070  10.601  0.2116 -0.2677  0.1076
31986W        W47795  14.767   6.132   3.108 -0.1120 -0.4381 -0.3010
31987W        W47796  11.100  18.352   1.742  0.2133  0.0776  0.3184
31988W        W47797   2.259  10.989  12.041  0.0665  0.1073 -0.1268
31989W        W47798   1.691  15.025  10.603  0.2378  0.0745  0.4146
31990W        W47799  13.606   3.734   0.797  0.1379 -0.1105  0.2277
31991W        W47800   1.932   7.856  13.307  0.5219 -0.0095  0.3935
31992W        W47801  16.260   1.484   4.238 -0.1256  0.1279  0.0941
31993W        W47802   0.276   2.321  11.760  0.4375  0.0219  0.1162
31994W        W47803   3.138  11.395   5.298 -0.0100 -0.0665 -0.1784
31995W        W47804  15.805  17.611  12.639 -0.0263 -0.2907 -0.2827
31996W        W47805   5.517  17.747  10.977  0.2131 -0.1019 -0.1422
31997W        W47806  17.693   3.625   0.148 -0.1226 -0.3619  0.0617
31998W        W47807   4.046  13.006   4.032  0.2420 -0.0112  0.2822
31999W        W47808  13.891   0.083   1.810 -0.0887  0.2413  0.0195
32000W        W47809   6.414  11.488   1.039 -0.4683 -0.0452  0.3044
32001W        W47810   6.901  10.072  13.430 -0.0461  0.3892 -0.2540
32002W        W47811   5.990  10.570   1.338  0.0294  0.1609  0.2482
32003W        W47812   6.874   9.901  14.797  0.0096  0.0114 -0.1933
32004W        W47813  15.891   7.320   1.675  0.0597  0.0982 -0.1293
32005W        W47814   0.323  14.552   4.434  0.1792 -0.1153  0.1309
32006W        W47815   3.716   7.483  11.539 -0.1874 -0.1520 -0.3634
32007W        W47816  14.059   7.087   1.490 -0.4255  0.2587 -0.2204
32008W        W47817   7.598   8.996  13.440  0.1032 -0.0538 -0.0628
32009W        W47818   5.594  10.778   4.786 -0.3271 -0.3055 -0.2183
32010W        W47819   7.125  17.981   4.215 -0.1949  0.0302 -0.2766
32011W        W47820  10.480   2.703  12.041  0.2097  0.0398 -0.0772
32012W        W47821  18.623   4.933   0.819 -0.3166 -0.2442  0.1333
32013W        W47822   7.315  18.790   1.659  0.0570  0.1177 -0.1212
32014W        W47823  11.658   8.608  14.503  0.0351 -0.0893 -0.2170
32015W        W47824  10.299   2.855   2.614 -0.0462  0.4776 -0.2765
32016W        W47825   6.761   6.495   0.761  0.3040 -0.0427 -0.0303
32017W        W47826   3.832   3.602   3.658 -0.3314 -0.0603  0.6138
32018W        W47827   8.883  13.452   0.930 -0.2158 -0.1176 -0.0999
32019W        W47828   3.194   5.246   1.817  0.1398  0.2049 -0.4993
32020W        W47829  12.819   8.959   3.564  0.1964 -0.0859  0.1688
32021W        W47830  15.299  11.517   4.423  0.1670  0.1140 -0.0698
32022W        W47831  16.978   7.934   3.725  0.0432 -0.1224 -0.0490
32023W        W47832  11.451  14.551  15.405  0.0000  0.2242  0.2433
32024W        W47833  13.836   7.717  14.268 -0.1385 -0.1459  0.0858
32025W        W47834   7.337  14.424  13.324  0.0998 -0.2823  0.3168
32026W        W47835  12.593   1.020   4.071 -0.1556 -0.1160  0.2845
32027W        W47836   3.199  11.679  11.620  0.2951 -0.2908  0.2581
32028W        W47837   8.427  16.635   0.520 -0.0334 -0.3658 -0.0291
32029W        W47838   1.170   3.326  12.007 -0.0030 -0.1613 -0.1262
32030W        W47839  12.011   2.048   1.398 -0.2280 -0.0729  0.1484
32031W        W47840   5.775  15.997   4.436 -0.0309  0.3585  0.1035
32032W        W47841   0.935   1.744   4.260  0.0257 -0.2486 -0.1809
32033W        W47842  17.153  18.185  11.520 -0.1819 -0.0464  0.0651
32034W        W47843  13.571   9.502  15.101 -0.4754  0.2830 -0.1476
32035W        W47844  13.507  12.759   2.728  0.2893  0.1703 -0.0935
32036W        W47845   9.619   7.955  13.566 -0.1388  0.2676 -0.1321
32037W        W47846  13.943   5.125   4.614  0.1692  0.0466  0.2754
32038W        W47847  15.508   9.722   0.304  0.1398 -0.1714  0.0495
32039W        W47848   1.624  12.398   0.044 -0.2928 -0.3250 -0.2381
32040W        W47849   8.670  11.711   3.951  0.4435  0.3010  0.2261
32041W        W47850   7.841  16.316   1.784 -0.2160 -0.0874  0.0507
32042W        W47851  14.294   2.890  12.957 -0.2783  0.0465 -0.0258
32043W        W47852  12.940  17.177   1.635  0.0332 -0.0542  0.0929
32044W        W47853  18.406  18.484   4.371  0.0630  0.0820 -0.0888
32045W        W47854   8.007   2.337   3.603  0.2309 -0.1371  0.0614
32046W        W47855   2.611  15.743   2.974 -0.1273 -0.1708 -0.1306
32047W        W47856  15.733  16.446  14.578 -0.0240  0.0275  0.2113
32048W        W47857   7.974   4.520   4.485 -0.1836 -0.0116 -0.2335
32049W        W47858   1.256  17.892   5.427  0.1411 -0.0551  0.0433
32050W        W47859  10.129   4.043   1.897 -0.1719 -0.0226 -0.1891
32051W        W47860   4.197   8.075   0.428  0.0527  0.0821 -0.2749
32052W        W47861  11.286  10.796   3.569 -0.2769 -0.0688  0.0367
32053W        W47862  12.960  11.200   4.292 -0.3090  0.1244  0.2067
32054W        W47863  14.979   0.040  12.557 -0.3881 -0.0583  0.1456
32055W        W47864  12.773   2.315  10.720  0.3349 -0.1202 -0.1831
32056W        W47865   7.556   2.188  11.338  0.4004 -0.0209 -0.1026
32057W        W47866  12.149  14.845  14.457 -0.1253 -0.0600  0.0147
32058W        W47867  13.477   3.556   3.273 -0.0352 -0.0159 -0.1710
32059W        W47868   6.216   3.195  12.705  0.2736  0.1188  0.2887
32060W        W47869  17.143  17.434   2.226 -0.2786 -0.2243  0.2115
32061W        W47870   3.960  18.353  14.717 -0.2724  0.1480 -0.0610
32062W        W47871  11.261  15.290  14.172 -0.4204  0.2355 -0.0667
32063W        W47872   6.595   7.218  13.525  0.1613 -0.4916  0.2733
32064W        W47873  10.002  10.204   3.726 -0.2045 -0.3047 -0.3764
32065W        W47874  12.183   0.237  14.248  0.0224  0.1875  0.1665
32066W        W47875   8.811  16.357   5.186  0.0835 -0.0363 -0.2794
32067W        W47876   9.999  10.578   1.750  0.0167  0.1589  0.0791
32068W        W47877   3.361  13.606   2.906 -0.1138  0.0188 -0.3047
32069W        W47878  16.196  12.351  11.072  0.2224  0.1068  0.0119
32070W        W47879  16.853   6.556   4.790 -0.2867  0.1999 -0.0143
32071W        W47880  17.325   8.925   2.997 -0.2338  0.1046 -0.1090
32072W        W47881  14.421   2.340   1.380 -0.4265 -0.1192  0.5001
32073W        W47882   4.541  17.698  13.632 -0.1879  0.1848 -0.1960
32074W        W47883  15.469  10.836   2.009  0.0256  0.2420  0.2989
32075W        W47884  11.126   8.957  14.671 -0.1000 -0.2295  0.1530
32076W        W47885   8.459   2.258  10.603 -0.2470  0.1654 -0.0306
32077W        W47886  10.790   5.967  10.964  0.0332 -0.2905 -0.2482
32078W        W47887  17.546  14.460  12.723  0.3560 -0.2948  0.0824
32079W        W47888   9.440   6.586   5.148 -0.2917  0.0000 -0.0984
32080W        W47889   1.047  13.052  12.172 -0.0304  0.4462 -0.0330
32081W        W47890  13.448   6.743  11.678  0.1900  0.0721 -0.1240
32082W        W47891   1.894  10.063  10.762  0.0328  0.1040 -0.2691
32083W        W47892  14.014  18.398  10.932 -0.0195  0.2697 -0.1154
32084W        W47893   6.370   6.232   2.690  0.1478 -0.3022 -0.0205
32085W        W47894  10.970  13.219   1.836  0.1869 -0.2658 -0.1420
32086W        W47895  17.650   1.442   1.256  0.0872  0.0672 -0.1564
32087W        W47896   0.278   5.734  13.561 -0.0188 -0.2143 -0.0247
32088W        W47897   9.015  14.665   3.961 -0.5498 -0.0560 -0.0880
32089W        W47898   0.839   8.266   2.818 -0.0683  0.0339  0.1898
32090W        W47899   2.649   7.619  11.671 -0.0875 -0.0261 -0.1869
32091W        W47900  10.822   3.249  13.574 -0.0292  0.1237 -0.0774
32092W        W47901   1.626   8.138   2.050 -0.0417 -0.0052  0.0834
32093W        W47902   2.612  17.142  13.306  0.1913  0.0834  0.0748
32094W        W47903   1.663   0.371  11.906  0.0242 -0.1022 -0.1156
32095W        W47904   0.643  11.573   2.561  0.1060 -0.1871  0.0222
32096W        W47905   8.433  15.671  13.199  0.0493 -0.0724  0.3244
32097W        W47906  13.892  14.107   5.205 -0.1793 -0.1044 -0.2802
32098W        W47907  16.805   7.257  13.611  0.1766  0.2203  0.1849
32099W        W47908   6.174   9.510  14.296 -0.1678  0.1902 -0.1446
32100W        W47909   9.842   3.115   1.663  0.0052  0.3696  0.1469
32101W        W47910   3.811   5.940  14.618  0.1110  0.0414 -0.2685
32102W        W47911   4.940  18.243  14.150  0.2101  0.1705  0.0510
32103W        W47912  12.764  16.140   1.422 -0.2448 -0.5297  0.2040
32104W        W47913  11.688   3.387   2.092 -0.0259  0.3728 -0.0603
32105W        W47914   0.022  16.735  11.455  0.3587  0.2145 -0.1043
32106W        W47915   7.039   5.580   2.547  0.0391  0.1672  0.1876
32107W        W47916   5.055  14.911   3.334  0.0630 -0.0086 -0.0652
32108W        W47917  12.093   5.143  12.398 -0.0896 -0.1692 -0.0136
32109W        W47918  16.888   0.537   4.776 -0.0704  0.2446 -0.3267
32110W        W47919  12.858   1.084  14.844  0.1501 -0.0541 -0.0248
32111W        W47920  18.365  10.466   3.705 -0.0756 -0.1174  0.0840
32112W        W47921   6.057  17.321   3.711 -0.0218 -0.1810 -0.0019
32113W        W47922  17.103  12.755  12.700  0.2648  0.1547 -0.0413
32114W        W47923   0.414   0.874  12.931  0.0196 -0.0405  0.2018
32115W        W47924   2.659  13.643  12.084 -0.0832  0.0299 -0.1302
32116W        W47925   4.218  12.685  10.593 -0.2576 -0.1090  0.3370
32117W        W47926   1.146  18.906  13.950 -0.1487 -0.1067 -0.0893
32118W        W47927  13.734   5.458  12.425 -0.0974 -0.1204 -0.4551
32119W        W47928   5.089   3.033   9.705  0.0776 -0.2490  0.1126
32120W        W47929  10.205  17.227   2.638  0.0410 -0.0719 -0.0249
32121W        W47930   2.065  17.394  12.746 -0.1627 -0.1475  0.2520
32122W        W47931  16.674  18.089   2.656 -0.1213 -0.1967 -0.2343
32123W        W47932   9.154   3.280  12.591 -0.0001  0.1088 -0.1715
32124W        W47933   2.084   1.933   3.567  0.2417  0.1145  0.2211
32125W        W47934   7.769   4.325   2.096 -0.2456  0.1495  0.1273
32126W        W47935  16.642  12.581   0.922 -0.0897  0.3120 -0.1525
32127W        W47936  14.139   7.338   4.516  0.2875  0.0828  0.0245
32128W        W47937  14.382  12.311   3.731  0.1557 -0.2590  0.0034
32129W        W47938   8.736   2.617   1.705 -0.0754  0.2887  0.0896
32130W        W47939   5.851   9.074   0.254 -0.0135 -0.1528 -0.0455
32131W        W47940   6.276  15.539   4.355  0.0551  0.0852  0.0874
32132W        W47941  16.153   5.809  14.190  0.0008  0.1429 -0.0493
32133W        W47942  18.271   8.630  11.369  0.1962  0.3583 -0.2722
32134W        W47943  12.146   4.507   0.236  0.0411 -0.0238  0.2081
32135W        W47944   3.190  10.691   3.097  0.0702 -0.3084 -0.2289
32136W        W47945  13.844  10.522   4.057 -0.2240 -0.2297 -0.2066
32137W        W47946  12.158   6.330  10.112 -0.0791  0.0776  0.1344
32138W        W47947   6.362   4.744   1.800  0.0628 -0.1071 -0.0306
32139W        W47948   7.974   6.096  14.053 -0.0573 -0.2910  0.0016
32140W        W47949  14.407   6.675  10.586 -0.2112  0.2020  0.1177
32141W        W47950   5.139  12.908  15.056  0.0956 -0.2356 -0.3664
32142W        W47951  15.653   8.735  13.228 -0.0036  0.0784 -0.0807
32143W        W47952  15.349   5.121   4.543  0.0335  0.2438  0.1658
32144W        W47953  17.612  14.185  11.570 -0.1231 -0.0137  0.2377
32145W        W47954  13.051  11.514   2.351 -0.0958  0.0063 -0.0245
32146W        W47955  17.455   9.863  15.438 -0.2937 -0.2215 -0.3635
32147W        W47956   6.528   1.940  15.355  0.0758  0.0795 -0.0650
32148W        W47957  15.799   9.223   1.559  0.3276 -0.0782 -0.3642
32149W        W47958  14.872   4.121   1.456 -0.0124 -0.0421 -0.2102
32150W        W47959   1.925   5.682  13.123 -0.0565 -0.1240 -0.0684
32151W        W47960   5.153   7.152   4.984 -0.0614 -0.2183 -0.1452
32152W        W47961  16.507  11.501  11.613  0.2918  0.2854  0.1683
32153W        W47962  14.151  16.791  13.424 -0.1346  0.2320 -0.5275
32154W        W47963   7.295  16.588  10.667 -0.0256  0.0335 -0.0624
32155W        W47964   9.557  15.270   2.138 -0.0209  0.1635 -0.2224
32156W        W47965  12.536   1.172  13.026  0.0632  0.2477 -0.2550
32157W        W47966   4.461   1.311  11.960  0.3516 -0.0299  0.1937
32158W        W47967   1.078   6.967  11.939 -0.0529 -0.0853  0.2450
32159W        W47968  12.640   9.355  14.831  0.0865 -0.0422  0.2283
32160W        W47969  14.269   3.456  14.228  0.1564 -0.0464  0.2388
32161W        W47970  18.100   7.121   0.051 -0.1539  0.0370  0.2609
32162W        W47971   8.456   9.844   4.018  0.0898  0.1082  0.1527
32163W        W47972  12.426   5.600   1.898 -0.0665 -0.0672  0.0123
32164W        W47973   0.686  12.520   4.858 -0.1993 -0.1332  0.1502
32165W        W47974   5.422   8.067  11.950 -0.4405  0.0566  0.1030
32166W        W47975  11.311   3.197  13.738  0.1074  0.0904  0.2817
32167W        W47976   4.955  12.857  13.545  0.0860  0.0753  0.1905
32168W        W47977  10.337  17.365  11.617  0.0646 -0.1936  0.5830
32169W        W47978  16.706   7.585   2.786  0.2936 -0.0128  0.1422
32170W        W47979  16.417   0.780  11.714  0.1056 -0.2066  0.1448
32171W        W47980  14.284   9.137   6.205 -0.1005  0.1752  0.1435
32172W        W47981   6.109   9.485  13.062 -0.2215 -0.1342  0.3047
32173W        W47982  15.701   1.652  14.546 -0.0158 -0.0143  0.1343
32174W        W47983  12.285  14.662   0.698  0.1386 -0.2663  0.4306
32175W        W47984   4.915   1.447   1.975 -0.1892  0.2642 -0.2499
32176W        W47985  17.479  16.027   5.124 -0.0319 -0.2645 -0.1507
32177W        W47986   3.371  10.553  11.216  0.0998  0.0429  0.0461
32178W        W47987   7.279   2.090   2.658 -0.0376 -0.1889  0.3849
32179W        W47988  10.318  15.886   2.983 -0.3795 -0.0941  0.0738
32180W        W47989   1.555  15.484  13.332 -0.1684 -0.3348 -0.3402
32181W        W47990   3.023   5.019  14.216  0.1722 -0.0792  0.0118
32182W        W47991   4.515  17.714   3.395 -0.0063  0.0456  0.1689
32183W        W47992  16.303  17.568   0.229  0.1756 -0.0536 -0.0996
32184W        W47993  16.235   2.132   0.282  0.2339 -0.0752  0.5483
32185W        W47994   1.385  11.958  15.357 -0.1496 -0.1852  0.0729
32186W        W47995   3.426  17.713  11.939 -0.2290  0.2835 -0.0228
32187W        W47996   2.169   2.333   1.919  0.3575  0.0397 -0.1736
32188W        W47997   8.149  12.747  12.906 -0.2067  0.1187  0.2847
32189W        W47998  15.467  17.371   3.842 -0.0745 -0.1939 -0.3580
32190W        W47999   2.245   5.383  12.608 -0.0718 -0.0102  0.3719
32191W        W48000  10.980  16.733   3.134  0.0783 -0.1817 -0.0900
32192W        W48001   3.810   4.456  15.257 -0.0968 -0.2404 -0.1585
32193W        W48002  13.503  16.384  11.185 -0.0221  0.1912 -0.2552
32194W        W48003   4.053  11.711  15.023 -0.0262  0.0742 -0.0962
32195W        W48004  15.729  15.348  14.966  0.1040  0.1003 -0.4663
32196W        W48005   1.963   3.451   3.415 -0.6460  0.1692  0.1571
32197W        W48006  14.468  18.792   1.698  0.0749 -0.0099 -0.0346
32198W        W48007  18.370   1.413   3.953  0.1247 -0.0096 -0.2777
32199W        W48008  11.194   1.780  10.426  0.0685 -0.4294 -0.1874
32200W        W48009   7.041   0.570  10.628  0.3891  0.1354  0.1683
32201W        W48010  14.996  12.388   4.398  0.1468 -0.2800  0.0725
32202W        W48011   1.082  14.433  11.907 -0.1261 -0.0270 -0.0843
32203W        W48012   0.791  14.928  13.782 -0.3311  0.1553  0.1362
32204W        W48013  11.432  11.978  13.250 -0.3156  0.0321  0.2100
32205W        W48014  10.286  15.588  15.378 -0.1360  0.0196 -0.0544
32206W        W48015   5.960  11.465   1.411  0.5315  0.2865  0.0452
32207W        W48016   0.443  11.539   0.095 -0.0864  0.2466 -0.0967
32208W        W48017  18.909  13.992  14.231  0.2743  0.1629 -0.0071
32209W        W48018   4.095   6.163   0.502  0.0076  0.0278 -0.0209
32210W        W48019   3.996   8.555  14.386  0.2279 -0.1026  0.1685
32211W        W48020  14.957   4.485  11.164  0.0596  0.1401 -0.0310
32212W        W48021   2.013   6.286   0.354  0.1276  0.1577 -0.2435
32213W        W48022  13.969  18.588  11.352  0.0745 -0.1092  0.0788
32214W        W48023  10.384   7.108  14.470  0.0464  0.0831 -0.0007
32215W        W48024   5.855   1.504  10.906 -0.2802 -0.1024 -0.1486
32216W        W48025   3.179  17.533  10.192  0.2308 -0.0603 -0.0766
32217W        W48026   3.205  14.940   0.662  0.0617  0.2013  0.4126
32218W        W48027   3.723   8.021  11.354  0.0595  0.1899 -0.1043
32219W        W48028  18.638   5.970  11.456  0.0049  0.0689 -0.3202
32220W        W48029  15.026  12.028   1.416 -0.0079  0.0387 -0.0816
32221W        W48030  15.233  13.678  10.579  0.2234  0.0188  0.0235
32222W        W48031   5.617   3.005   0.732 -0.1827 -0.2813  0.2086
32223W        W48032   8.945  13.552   0.039 -0.1565  0.1773 -0.0917
32224W        W48033  13.612   0.594  14.902 -0.2885 -0.0640 -0.0296
32225W        W48034   8.101   9.987  12.313  0.2239 -0.0221  0.3336
32226W        W48035   5.669   9.880   3.424 -0.2105 -0.1996 -0.0685
32227W        W48036   3.858   7.829   4.822  0.3235  0.5285  0.0123
32228W        W48037   3.135   8.207   0.070  0.2048 -0.2729  0.0477
32229W        W48038  13.012  13.768  12.034 -0.0869 -0.4802 -0.0486
32230W        W48039  13.896   5.618  14.671  0.0273  0.4294  0.0040
32231W        W48040  13.935   8.742   3.137 -0.2908  0.0042 -0.3059
32232W        W48041  15.861  16.102  11.989  0.1337 -0.0759  0.2389
32233W        W48042  15.036   1.792  10.089  0.1876 -0.1872 -0.0760
32234W        W48043  18.208  16.723   5.100  0.0919  0.1256 -0.2370
32235W        W48044  18.555  16.139  14.003 -0.0583 -0.1247 -0.1508
32236W        W48045   0.571   0.807   0.463 -0.2058  0.0565 -0.1020
32237W        W48046   9.480  13.310   2.463 -0.0831  0.0814  0.0304
32238W        W48047  17.868   6.877   3.963 -0.2283 -0.1899 -0.1960
32239W        W48048   8.683  17.243   4.979  0.0758 -0.0835 -0.1557
32240W        W48049   4.977  17.162   1.364  0.0403 -0.0903  0.0315
32241W        W48050   2.904   1.475  12.302  0.0740  0.2108 -0.0065
32242W        W48051   0.282   3.281   2.065 -0.1630 -0.0126  0.0245
32243W        W48052  10.353   8.502   1.402  0.1670 -0.1440  0.1153
32244W        W48053  12.171   9.083  11.070 -0.1689  0.3086  0.1210
32245W        W48054  11.349   0.755  13.199 -0.0685  0.1383  0.2751
32246W        W48055   6.538  13.268  13.043  0.0967  0.1775  0.0287
32247W        W48056  11.617   6.414  10.861  0.1340 -0.1700  0.1699
32248W        W48057   5.477  17.976  13.324 -0.0850 -0.4812 -0.3014
32249W        W48058  17.815  12.075   0.894 -0.6331 -0.2459  0.1523
32250W        W48059  11.009  13.680   0.093  0.1185  0.1629 -0.0155
32251W        W48060   0.075  11.107  13.292 -0.1677 -0.0157 -0.0740
32252W        W48061   2.040  10.959  15.045 -0.0366  0.2766 -0.0446
32253W        W48062   3.845  12.226   4.972 -0.1535  0.0473  0.0389
32254W        W48063  11.697   3.507  13.647 -0.2587  0.4040 -0.1218
32255W        W48064  12.875  15.231   0.326 -0.2246 -0.0254 -0.0067
32256W        W48065  12.726   7.136   4.125 -0.4210 -0.1259  0.1174
32257W        W48066  16.332  14.459   1.004  0.2217 -0.2382 -0.0740
32258W        W48067  16.043   4.250   0.089  0.2745 -0.2086 -0.1889
32259W        W48068   0.577   2.866   1.049  0.2911  0.1231  0.1241
32260W        W48069  17.614  14.005   5.359  0.1276  0.1935  0.2564
32261W        W48070  13.578   5.641   0.554 -0.1237 -0.2394  0.0845
32262W        W48071  10.584  15.122  11.454 -0.0301 -0.0634  0.0441
32263W        W48072   3.317  15.758   2.126 -0.2917 -0.5154 -0.1969
32264W        W48073   0.123   6.918  12.159  0.0870 -0.0511 -0.1403
32265W        W48074   3.684   4.589   3.199 -0.0719 -0.2237  0.1149
32266W        W48075   0.711  15.190   3.371  0.0510  0.2004  0.0326
32267W        W48076   5.778   9.972  10.360  0.0660  0.2427  0.1011
32268W        W48077   7.013  12.622  14.540 -0.0954 -0.1812  0.1817
32269W        W48078  12.498   6.482  14.629 -0.0930  0.0978  0.1749
32270W        W48079  18.369   2.462  11.593  0.1202 -0.1143  0.3776
32271W        W48080  16.268   7.162   0.175 -0.2922  0.2809  0.0625
32272W        W48081  12.814  12.022   0.040  0.1192  0.0747 -0.0728
32273W        W48082   7.075  11.980  12.397  0.1043  0.1699 -0.0849
32274W        W48083  13.381   5.903   0.097  0.0532 -0.3023  0.1370
32275W        W48084   6.386   4.841  11.153  0.2477 -0.0130  0.4636
32276W        W48085   5.860  10.389   5.502  0.0991  0.1338  0.0627
32277W        W48086   7.770   9.565   3.623  0.0907  0.1594  0.0220
32278W        W48087   7.853  16.109   2.488 -0.0288  0.0074 -0.0789
32279W        W48088   1.105   8.495  12.971  0.0123  0.4639 -0.2334
32280W        W48089  15.499  15.885  13.649  0.2531  0.1612  0.2882
32281W        W48090  11.184   8.727   3.404 -0.0565 -0.0829  0.1740
32282W        W48091  17.085   7.086  12.999  0.0072  0.2388 -0.3921
32283W        W48092   9.045   1.859  13.014 -0.2463 -0.2711 -0.0709
32284W        W48093  13.489  17.916  13.112  0.1565  0.1087  0.1450
32285W        W48094   8.900   9.780   4.241 -0.0130 -0.3093  0.0258
32286W        W48095  11.934   6.522   3.440  0.0212  0.0522 -0.0584
32287W        W48096   9.378  10.363   4.217 -0.0137 -0.2797 -0.0148
32288W        W48097   0.347  18.591  10.660  0.0369  0.2789  0.1175
32289W        W48098  18.643   0.638   0.777  0.2219 -0.1110 -0.2753
32290W        W48099  10.083  10.166  11.712 -0.0516 -0.2043  0.0087
32291W        W48100   5.058  10.620   4.903 -0.0301  0.1886  0.5833
32292W        W48101  13.418  18.447   4.696 -0.2059  0.1410  0.1084
32293W        W48102  12.032  14.995  12.644  0.1325  0.1771 -0.1166
32294W        W48103   1.165  11.202   4.035 -0.1181 -0.0402 -0.0627
32295W        W48104   6.014   2.724  12.848 -0.1790  0.0660 -0.4531
32296W        W48105   7.141  10.047  12.990  0.1943  0.1267 -0.1299
32297W        W48106  10.176   4.935  14.788 -0.0260  0.2155 -0.1624
32298W        W48107   8.770  15.461  14.193 -0.1513  0.0019 -0.0104
32299W        W48108  17.546  10.882  12.231  0.4775  0.0490 -0.1753
32300W        W48109   1.936  15.711  13.543 -0.0581  0.2572 -0.0041
32301W        W48110   4.915   6.852   3.803 -0.0675 -0.3508 -0.0647
32302W        W48111  17.095  16.941   1.214  0.1175 -0.1914 -0.0853
32303W        W48112   3.346   8.526   0.458 -0.1754  0.0611 -0.2046
32304W        W48113   8.652   6.124  11.808 -0.2263  0.0814  0.2053
32305W        W48114   9.327  12.977  13.920 -0.0519  0.0360  0.1969
32306W        W48115   9.356  14.167   2.830 -0.1945  0.0767  0.0173
32307W        W48116   6.610   6.684  13.295  0.1241 -0.1200  0.2112
32308W        W48117   3.821   4.484   2.742 -0.1090 -0.1471  0.3789
32309W        W48118  18.477  14.630  12.608 -0.1778  0.3607 -0.2618
32310W        W48119   4.165   4.407   2.415 -0.6220  0.1796  0.1252
32311W        W48120   7.240  11.448  11.524 -0.3404 -0.1072  0.0722
32312W        W48121  12.146  12.384   0.871 -0.1639  0.3102 -0.1064
32313W        W48122  12.949   3.336  13.754  0.1429  0.3304 -0.0086
32314W        W48123   8.505   3.502   0.745 -0.5029 -0.0440  0.3370
32315W        W48124   7.409   3.616   1.213 -0.1294  0.0064 -0.0491
32316W        W48125  16.082  15.751   1.581 -0.3630  0.3237 -0.0225
32317W        W48126  18.509   9.843   5.150  0.0702  0.0633 -0.0127
32318W        W48127   2.785   5.775  14.925 -0.1127  0.3800 -0.2151
32319W        W48128   4.198   7.276   0.574 -0.1102 -0.1395 -0.2594
32320W        W48129   0.280   0.157  13.970  0.0756 -0.1836  0.2834
32321W        W48130  16.978   3.226   4.782  0.0976  0.3270  0.0900
32322W        W48131  13.076  12.985  10.592  0.2116  0.0864  0.0327
32323W        W48132   3.354   3.411   9.594  0.0864 -0.0674  0.3631
32324W        W48133  13.747  11.825   5.254  0.5845 -0.3407 -0.0657
32325W        W48134   4.133  16.387  12.059  0.1030 -0.2839  0.0296
32326W        W48135   0.719   1.146  11.472 -0.0712  0.0276  0.1189
32327W        W48136  15.714   2.204   0.123  0.0218 -0.0527  0.1913
32328W        W48137  12.046   5.501   3.892 -0.2163 -0.1747  0.0281
32329W        W48138  18.851  11.601   4.818  0.0346 -0.2451 -0.0141
32330W        W48139   8.664  18.335  13.369  0.0274 -0.0641 -0.0106
32331W        W48140  13.290   2.372   4.353  0.1571  0.2073  0.2621
32332W        W48141   0.090  18.145   2.780 -0.1011  0.0540  0.0377
32333W        W48142   1.016  12.685  10.747 -0.0029 -0.1331  0.4761
32334W        W48143  12.253   8.669   4.978  0.2349 -0.1022 -0.1126
32335W        W48144   5.600  13.654   3.021  0.2177 -0.0268  0.3595
32336W        W48145  11.387   2.681  11.111 -0.2167 -0.0770  0.0732
32337W        W48146   3.842   8.656   5.406 -0.1804  0.1320 -0.0137
32338W        W48147  18.817   8.775  13.268  0.2085 -0.0980  0.0295
32339W        W48148  14.045   8.417   3.931  0.1081 -0.2508 -0.1449
32340W        W48149  12.547   1.776   2.194 -0.0215  0.0822  0.0313
32341W        W48150   9.171   4.727   4.548  0.1119  0.2772 -0.0020
32342W        W48151  12.650   2.103   5.469 -0.1340 -0.0708 -0.2149
32343W        W48152   9.991  12.274   2.014 -0.0670 -0.1730 -0.0344
32344W        W48153   3.106  12.385   1.888 -0.2264 -0.0108 -0.0513
32345W        W48154  12.666   3.531  13.358  0.0406  0.0397 -0.0749
32346W        W48155   6.670  14.077   3.249 -0.5668  0.1674 -0.1226
32347W        W48156  18.456  12.687  15.106  0.0525 -0.2441 -0.2325
32348W        W48157  12.690   0.393  13.692  0.0558 -0.0363 -0.0739
32349W        W48158   7.641   1.400  11.578  0.0700 -0.1638 -0.3513
32350W        W48159   2.652  17.331  10.786 -0.1902 -0.0506  0.3880
32351W        W48160   3.621   6.363   0.410  0.1657 -0.0210  0.0837
32352W        W48161   0.145  15.952  15.202  0.3432 -0.2502  0.2807
32353W        W48162  12.302   4.918  14.214 -0.1860  0.0996  0.2243
32354W        W48163   5.708   6.208   3.062  0.1837  0.3496 -0.2405
32355W        W48164   3.684   6.016  13.422 -0.1528 -0.1744  0.1453
32356W        W48165   9.545   1.816   5.170 -0.0798 -0.2271 -0.0661
32357W        W48166  12.443  18.347  13.849  0.1071 -0.0483 -0.1105
32358W        W48167   1.851   3.159  15.243  0.1875 -0.2319  0.1814
32359W        W48168  10.837  11.501   2.532  0.2487  0.0508  0.0471
32360W        W48169  14.172   4.287   0.453 -0.3239  0.0373 -0.0314
32361W        W48170   6.610   2.744  13.070  0.2220 -0.2334 -0.2094
32362W        W48171   7.326   6.327   3.586 -0.0639 -0.1853  0.1606
32363W        W48172   0.403  15.562   0.279  0.3427  0.2115 -0.1664
32364W        W48173  10.465   6.915  12.886 -0.1535 -0.1569  0.2342
32365W        W48174   3.925   1.529  14.198 -0.0560  0.2351  0.1297
32366W        W48175  16.725  17.522   5.084 -0.0904 -0.0213 -0.1538
32367W        W48176   1.289  11.654  14.377 -0.2034 -0.1436 -0.1110
32368W        W48177   9.155   0.439   4.582  0.0428 -0.0658  0.0325
32369W        W48178   8.112   7.873  10.757  0.2031 -0.3881 -0.0415
32370W        W48179   9.294  16.542  10.288 -0.2143 -0.0280  0.0214
32371W        W48180   6.925   1.882  12.068  0.0153 -0.1273  0.2710
32372W        W48181   5.719  14.713  14.217  0.1069  0.0587  0.0960
32373W        W48182  10.226   4.202   0.008  0.0411 -0.2423  0.0668
32374W        W48183   0.370  13.117   2.167  0.0927  0.3208  0.1214
32375W        W48184   8.735   6.044   3.397 -0.1514  0.0679 -0.0235
32376W        W48185  16.305  18.257  11.058 -0.1353 -0.1121 -0.0613
32377W        W48186   9.925   5.686  12.139  0.2005 -0.3196  0.0793
32378W        W48187   4.407  10.791  10.774  0.0721  0.0608  0.0121
32379W        W48188   7.973   5.801   2.307  0.2159  0.1502 -0.1543
32380W        W48189   7.723   4.016   1.140 -0.1305 -0.1948  0.0859
32381W        W48190   2.954   1.396   1.360  0.0209 -0.1509  0.1013
32382W        W48191  15.880   3.809   4.871  0.0888  0.1607  0.1784
32383W        W48192  15.515  18.537  14.391 -0.1026  0.1909 -0.2581
32384W        W48193   1.832  13.347  10.731  0.2884  0.0048 -0.1503
32385W        W48194  13.750  15.239   1.581  0.1385 -0.2280 -0.0764
32386W        W48195  16.525  17.821   0.649 -0.2076  0.2859 -0.2436
32387W        W48196  18.797  11.126   4.005  0.1034 -0.3940 -0.0121
32388W        W48197   6.060   0.472  12.275  0.2916 -0.1945 -0.3197
32389W        W48198  15.324  11.041   2.459  0.0463  0.1755 -0.0137
32390W        W48199   8.688   4.041   2.229 -0.2796 -0.0954  0.1555
32391W        W48200   7.455   2.017  13.233  0.1545 -0.0306  0.1494
32392W        W48201   0.485  18.800   3.297 -0.0157  0.0366 -0.0688
32393W        W48202   9.539   3.261   2.640  0.0381  0.3110  0.0111
32394W        W48203  17.475   2.530  13.797  0.0702  0.1615 -0.4098
32395W        W48204  16.326  10.115   4.648  0.0285  0.0030  0.0879
32396W        W48205  15.125  16.335  13.590 -0.1417 -0.1797  0.1310
32397W        W48206   3.091   4.515   1.827  0.2417 -0.0060  0.1832
32398W        W48207   8.985  13.002   1.845 -0.2579  0.2654 -0.3242
32399W        W48208  13.260  18.283  11.976  0.0463 -0.4648  0.0290
32400W        W48209   9.974   6.047   1.020 -0.1040 -0.0922 -0.1400
32401W        W48210   5.742  11.244  12.699  0.0651  0.1211 -0.0415
32402W        W48211  14.051  14.336  12.484 -0.2431 -0.0921 -0.5119
32403W        W48212   9.391  18.654  13.335  0.0870  0.0454  0.3246
32404W        W48213   2.185  16.739   2.975 -0.1767 -0.0138  0.2988
32405W        W48214   3.236  18.349   3.196 -0.2575 -0.2526 -0.1192
32406W        W48215   6.492   1.807   0.440  0.3576 -0.1646 -0.2276
32407W        W48216   1.828  12.207  13.879  0.2403  0.1755  0.0319
32408W        W48217   7.900  13.599  14.437 -0.0863 -0.1072 -0.0859
32409W        W48218   5.695  17.273  12.790 -0.1554  0.2651 -0.0516
32410W        W48219  16.352  11.948   4.348 -0.2929  0.1829  0.2823
32411W        W48220  17.418   8.916  15.325 -0.5214  0.2933 -0.1753
32412W        W48221   6.473  10.988  11.308  0.5117  0.0848 -0.0165
32413W        W48222   3.420  17.022  10.182 -0.3269 -0.1893  0.0042
32414W        W48223  11.917  15.886  11.325  0.3941  0.1384 -0.0216
32415W        W48224   9.144  16.183  12.715  0.0939  0.0485 -0.3806
32416W        W48225   6.812   6.419   4.653 -0.0535  0.0067  0.0517
32417W        W48226  16.223  12.379  13.604 -0.1321  0.1984 -0.0589
32418W        W48227   1.961  16.319  12.128 -0.1025 -0.3441 -0.3089
32419W        W48228  18.854  11.781  14.270 -0.0037 -0.0194  0.0290
32420W        W48229   0.828   2.251   0.705  0.2039  0.2364  0.3232
32421W        W48230  16.976  10.934   4.342  0.1183  0.1202  0.3901
32422W        W48231  14.027  17.136   1.328 -0.1097 -0.1935  0.1333
32423W        W48232   8.691   0.702  12.145  0.4412  0.0166 -0.3372
32424W        W48233   6.984  13.268   3.568 -0.0002  0.0066 -0.0609
32425W        W48234   0.556   6.904   2.059  0.3078 -0.1526 -0.0251
32426W        W48235  10.602   5.498  11.900 -0.1540  0.2362  0.1350
32427W        W48236   8.842  14.163   1.972 -0.0883  0.0171  0.1648
32428W        W48237   5.517   2.316  14.386  0.4070  0.4317 -0.1394
32429W        W48238  10.005  15.024   1.080 -0.0754 -0.0014 -0.0779
32430W        W48239  14.122  10.162   0.211  0.2256 -0.1207 -0.1902
32431W        W48240  14.476  16.687   3.008 -0.1359 -0.1618  0.7126
32432W        W48241  13.929  18.028   2.872 -0.0199  0.0599 -0.1537
32433W        W48242  13.638  10.360  15.433  0.1728 -0.4074 -0.0146
32434W        W48243   4.035  12.812  11.774 -0.1352  0.1400 -0.0369
32435W        W48244   7.126   7.174  11.020 -0.0331  0.0996  0.1879
32436W        W48245  17.816   5.540  15.065 -0.0280  0.0732  0.0555
32437W        W48246  12.294   6.374   0.779 -0.0262  0.0286  0.1498
32438W        W48247   6.132   4.275   4.196 -0.0495  0.0060  0.2867
32439W        W48248  11.649   1.790   0.790  0.0286  0.1679 -0.0869
32440W        W48249   7.916   8.426  11.277 -0.0579  0.0548 -0.0284
32441W        W48250   0.870   2.027  12.271 -0.2122 -0.1868 -0.1470
32442W        W48251  10.183  14.849  11.552  0.1177  0.1909  0.0895
32443W        W48252   5.009   8.772  11.903 -0.0108 -0.1910 -0.2024
32444W        W48253   5.202  14.974  11.706 -0.0406  0.1951 -0.0148
32445W        W48254  13.166  15.911   4.194 -0.0057 -0.2108 -0.2631
32446W        W48255  16.450   4.633  11.550 -0.1584 -0.0630 -0.2169
32447W        W48256   8.037   6.081   1.864  0.1532 -0.4335  0.0482
32448W        W48257   2.992  14.518  15.186 -0.1572  0.1372  0.0630
32449W        W48258  14.145   8.780   5.591 -0.0273 -0.2202  0.1060
32450W        W48259  11.576   8.839   0.199  0.0944  0.2728 -0.1529
32451W        W48260   4.837  11.569  12.283  0.1150 -0.0490  0.1237
32452W        W48261  12.057  10.108   4.411  0.1729  0.1059  0.1926
32453W        W48262   6.644   3.034  11.814  0.0524  0.1479  0.1340
32454W        W48263  13.327   0.454   4.279 -0.0468  0.0064 -0.1779
32455W        W48264  12.959   4.978   4.554  0.0906 -0.0265 -0.0587
32456W        W48265   4.760  17.942   2.590  0.2709  0.1334  0.0299
32457W        W48266   4.683  17.723  14.580  0.3842  0.1106  0.1192
32458W        W48267   9.803   4.857   4.123  0.1403  0.1977  0.2110
32459W        W48268   5.833   5.176   0.275 -0.1399  0.1693  0.0803
32460W        W48269   9.075   4.783  12.455  0.2361 -0.0630 -0.3429
32461W        W48270   3.580  16.470   4.542  0.1106  0.0818  0.2333
32462W        W48271  15.775   5.038   0.304 -0.2593 -0.2824 -0.2477
32463W        W48272  10.149   9.739   3.535 -0.1738 -0.0373 -0.1501
32464W        W48273   8.086   0.985  11.508 -0.1407  0.0393 -0.0791
32465W        W48274  12.392  10.453   4.697  0.0184  0.3414 -0.4007
32466W        W48275  11.712  14.651  12.968 -0.1657 -0.0592 -0.1341
32467W        W48276  15.335   6.597   0.635  0.0722 -0.0460 -0.2048
32468W        W48277  18.735   1.654  11.525  0.3545  0.0435 -0.1766
32469W        W48278  10.448   9.309  13.542 -0.0975  0.2392 -0.0357
32470W        W48279   0.642  13.459  13.715  0.0786 -0.1729 -0.2846
32471W        W48280  13.624  16.208  13.543  0.0292 -0.0736  0.2961
32472W        W48281   3.538   1.465  11.294  0.0489 -0.2626 -0.0449
32473W        W48282  11.445  12.891  14.225 -0.1545  0.3524 -0.0052
32474W        W48283  16.659   0.474  14.321 -0.2389  0.1333  0.0620
32475W        W48284   4.190  10.541  13.285 -0.4981 -0.0995  0.2280
32476W        W48285   7.804  13.630  10.342  0.1408 -0.2307 -0.4282
32477W        W48286   8.636  11.582   1.025  0.0188  0.1373  0.0112
32478W        W48287  16.230   8.223  11.546 -0.0850  0.0454  0.3077
32479W        W48288   2.494   1.152  12.106 -0.2263 -0.3128 -0.0360
32480W        W48289  13.632  18.256  12.733 -0.0723 -0.2005  0.1311
32481W        W48290   9.368  12.230  11.043  0.1196 -0.0610  0.2131
32482W        W48291   8.327  13.997   5.475  0.1718  0.1429 -0.1418
32483W        W48292  18.272   5.182  13.671  0.0072  0.1044  0.1062
32484W        W48293   5.167  15.870   2.563 -0.0499 -0.0402  0.0058
32485W        W48294  18.857   8.573   2.527  0.0207  0.0012 -0.0493
32486W        W48295   7.851   2.006   2.779 -0.3286 -0.0064  0.0721
32487W        W48296  13.383  15.109   3.699 -0.1292 -0.1004  0.0308
32488W        W48297   3.875   7.643   0.384 -0.4952  0.0567  0.1416
32489W        W48298  17.158  17.352   2.977 -0.0440  0.1872  0.4890
32490W        W48299  10.552  14.705  11.849 -0.1586 -0.0604  0.0292
32491W        W48300  16.134   3.550  13.280 -0.1608  0.2199 -0.3249
32492W        W48301   2.230   9.873   0.572  0.2275  0.1480  0.1156
32493W        W48302   2.668   8.928   4.734 -0.0868 -0.1384  0.0754
32494W        W48303   1.544   5.076   0.773 -0.0730  0.3195 -0.0059
32495W        W48304   0.617   8.399   4.256 -0.3729 -0.2025  0.1820
32496W        W48305   6.231  17.546  15.161  0.0822 -0.2584  0.0659
32497W        W48306  13.266  18.328   4.034  0.3352  0.2612 -0.0585
32498W        W48307  11.863   4.243   5.443  0.0010 -0.3218 -0.1691
32499W        W48308  16.931  15.254  10.969 -0.1921  0.0325 -0.3407
32500W        W48309   1.993  13.028   1.222  0.2483 -0.0081 -0.1846
32501W        W48310   8.144  15.662   2.784  0.1517 -0.4147  0.1382
32502W        W48311   1.068   0.923   1.981  0.0606 -0.0992 -0.2772
32503W        W48312  12.391   7.318   0.778  0.2244  0.0819 -0.2338
32504W        W48313   8.218   7.677   3.043 -0.2107  0.1392  0.3828
32505W        W48314   5.413  15.515   4.308 -0.0662  0.0396 -0.3282
32506W        W48315   5.489  17.935   1.181 -0.0708 -0.2168  0.0066
32507W        W48316   1.810   1.087   3.753  0.1808  0.3128  0.0637
32508W        W48317   6.353   6.412  14.214  0.0843  0.3248 -0.0172
32509W        W48318  13.695  12.733   9.760 -0.0835 -0.5984 -0.3941
32510W        W48319   4.516   7.756  11.899  0.3767  0.0527 -0.1591
32511W        W48320  13.900  12.120   4.453  0.0904  0.2108  0.1920
32512W        W48321  14.657   7.774   5.491  0.1306  0.0316  0.1736
32513W        W48322  10.927  17.239   3.252 -0.2942  0.1058  0.1423
32514W        W48323  13.554   7.168   3.844 -0.0248  0.0831  0.3312
32515W        W48324  11.849   7.857   0.324  0.0341  0.0362  0.3289
32516W        W48325  16.310   9.017  15.281 -0.2304 -0.0123  0.2585
32517W        W48326   2.103  11.630  14.594 -0.3619 -0.2803 -0.2103
32518W        W48327  13.009   8.777   0.156  0.0513  0.0150  0.0601
32519W        W48328  16.830   8.271  11.491 -0.4571 -0.0399 -0.3549
32520W        W48329   5.998   2.488   2.664  0.1885 -0.2086 -0.2762
32521W        W48330  16.630   2.968  13.587  0.0720  0.3293  0.2489
32522W        W48331  18.440  10.114  10.734 -0.2250  0.0517 -0.0079
32523W        W48332   5.606   7.968   3.936 -0.0766  0.1632  0.4287
32524W        W48333  15.971   7.715   1.435  0.1527  0.2510  0.1096
32525W        W48334   1.653  14.731   9.837  0.3593  0.1908 -0.2714
32526W        W48335   0.015  10.295   4.434  0.1576  0.1867 -0.1185
32527W        W48336  14.839   4.259   5.198  0.3394  0.1666  0.1038
32528W        W48337   7.097   3.324  13.801 -0.2212  0.2075  0.2568
32529W        W48338  17.918   1.727  10.602  0.0476  0.3374  0.0177
32530W        W48339   7.468  14.958   1.772  0.2756 -0.2728  0.0721
32531W        W48340   0.033  16.137   2.454 -0.1759 -0.0361 -0.0394
32532W        W48341   4.138   5.168   4.245 -0.2799 -0.2160  0.1204
32533W        W48342   2.583   9.391  11.731 -0.0867  0.0111 -0.5066
32534W        W48343   8.028   4.567  13.177  0.1859  0.2704  0.3642
32535W        W48344  18.488   9.637   5.633  0.1458 -0.2709  0.0097
32536W        W48345   6.649  12.607   4.841  0.3346  0.0358 -0.0484
32537W        W48346  15.397  17.033   3.224 -0.2091 -0.0804  0.0330
32538W        W48347  11.682  18.819   3.597 -0.3175 -0.0313 -0.3580
32539W        W48348   8.030  15.372  11.101 -0.0941  0.0160  0.1919
32540W        W48349   5.458  18.819   1.142 -0.0529  0.3110 -0.3547
32541W        W48350   2.135   4.767   3.232 -0.2237 -0.1898 -0.0784
32542W        W48351  17.653  15.359  10.931  0.3767 -0.0659  0.1617
32543W        W48352  18.303   9.085   4.774 -0.0399 -0.3523  0.1854
32544W        W48353   5.987   4.667  12.908  0.2070  0.2399 -0.2132
32545W        W48354  14.569  11.927  11.861  0.0374 -0.0318 -0.2068
32546W        W48355  10.846  10.992  15.426  0.0296 -0.2686 -0.4026
32547W        W48356  17.675   3.347  10.529 -0.1550  0.2306  0.0964
32548W        W48357   5.269   8.143  14.854 -0.2314  0.1880 -0.1714
32549W        W48358   5.541  10.744  11.641 -0.2335 -0.1044  0.2363
32550W        W48359  14.597   5.397   0.010 -0.2724  0.2317 -0.0350
32551W        W48360  17.120   6.527   3.328 -0.0875 -0.3150 -0.0905
32552W        W48361   7.324   9.080   5.186  0.0321  0.0406 -0.2868
32553W        W48362  18.334   3.655   3.568  0.1157 -0.2740 -0.3293
32554W        W48363   7.353  17.785  11.418  0.2416  0.0623  0.0813
32555W        W48364   7.328  13.870  13.229  0.1844 -0.2878 -0.5705
32556W        W48365   9.006  11.352   5.006  0.1142  0.0821 -0.3942
32557W        W48366   3.771   2.911  13.371 -0.0091 -0.2553 -0.3194
32558W        W48367  11.728  10.064   0.129  0.0501  0.0781 -0.2638
32559W        W48368   2.342  13.639   2.555  0.0011  0.0331  0.0633
32560W        W48369  15.805   7.648  13.212 -0.0711 -0.0029 -0.1120
32561W        W48370  18.543   5.358   1.041 -0.0271 -0.0552 -0.2293
32562W        W48371  16.792   8.449   3.795  0.0155 -0.1423  0.2059
32563W        W48372  10.771   7.801   4.959 -0.0870  0.0925 -0.0499
32564W        W48373   8.963   7.066   3.054 -0.0125  0.0575 -0.1738
32565W        W48374  15.914  17.557   2.068  0.4005  0.1850  0.1817
32566W        W48375  11.342  14.286   3.055  0.2215 -0.0390  0.1528
32567W        W48376   1.633  14.917  13.579  0.0492 -0.1986 -0.1324
32568W        W48377   9.403   2.353  11.020  0.4627 -0.1666  0.0261
32569W        W48378   1.020  10.748   4.673  0.0173  0.0979 -0.0125
32570W        W48379   9.467   2.742  14.041  0.2228 -0.1384 -0.1729
32571W        W48380   3.745   0.732   3.149 -0.1850  0.0899  0.1113
32572W        W48381   3.335   7.928  10.975 -0.0070 -0.2201 -0.1272
32573W        W48382   2.854   1.404   0.188 -0.2994 -0.0688 -0.2475
32574W        W48383  17.077  16.805   3.989  0.1376  0.2239 -0.4073
32575W        W48384   4.456   3.585  11.483  0.1986 -0.3130 -0.0601
32576W        W48385   8.581  10.063  14.895 -0.1810 -0.0403  0.3793
32577W        W48386   6.993  17.160   1.128  0.0118  0.0710 -0.0194
32578W        W48387   1.354   0.782  12.555  0.6919 -0.1009  0.0088
32579W        W48388  14.461   6.300   1.079 -0.0944 -0.1067 -0.1013
32580W        W48389   2.043   4.376  15.262  0.2641  0.1525  0.1731
32581W        W48390  16.942  15.230   2.975 -0.0422  0.0219 -0.1885
32582W        W48391   2.151   9.306  13.135  0.1655 -0.0955  0.0723
32583W        W48392   5.798   6.267   2.562 -0.0009  0.2132 -0.2059
32584W        W48393  17.733  17.390   0.434  0.4620  0.1565  0.2155
32585W        W48394   4.887  17.389   0.944 -0.0591 -0.1875  0.0541
32586W        W48395  15.401  10.368   4.838 -0.0154 -0.2251 -0.0445
32587W        W48396   5.009   9.329   1.807  0.1078 -0.0696 -0.7402
32588W        W48397  14.015  16.521   3.037 -0.0080 -0.1076 -0.4564
32589W        W48398  10.560   0.685  12.066  0.0654 -0.5138  0.0020
32590W        W48399   1.564   2.943   2.078 -0.0648  0.1448 -0.1720
32591W        W48400  18.338   5.105   4.389  0.3863 -0.1774  0.2997
32592W        W48401  15.845  13.462   5.191 -0.0789 -0.0758 -0.2769
32593W        W48402  17.304   5.493   2.336  0.2717 -0.1455  0.1162
32594W        W48403   4.392  10.022   5.001  0.0384 -0.1595  0.1876
32595W        W48404   2.166   3.144   2.247 -0.1916 -0.0662  0.1776
32596W        W48405   5.051  11.057  10.467  0.0278 -0.1042 -0.2034
32597W        W48406   3.612   8.660   0.811 -0.2404  0.0117 -0.1742
32598W        W48407  18.197  14.526   2.223 -0.2357  0.3754  0.2928
32599W        W48408   6.441   4.435  14.131 -0.1469  0.0841 -0.0015
32600W        W48409  18.322  15.762  13.806  0.1061 -0.3861 -0.4155
32601W        W48410   5.037  11.341   3.746  0.1921 -0.1640  0.2269
32602W        W48411   7.396   3.669   4.712 -0.0010 -0.2884 -0.0445
32603W        W48412  14.918  10.386   3.072  0.3161 -0.1352 -0.2938
32604W        W48413   7.340  11.294   0.416 -0.1876 -0.0925  0.3902
32605W        W48414   9.126  17.494   3.743  0.2730  0.0220  0.0819
32606W        W48415   9.637   2.840   3.241  0.2418  0.3935 -0.3737
32607W        W48416   2.825   3.837  11.175  0.2372  0.1720  0.3746
32608W        W48417  18.071  14.889  12.169 -0.0742 -0.0450 -0.0638
32609W        W48418  14.679  17.680  13.882 -0.2464 -0.3301 -0.0877
32610W        W48419  18.370   1.280   1.981 -0.0789 -0.1940  0.1036
32611W        W48420  18.382   8.785  14.174  0.1860  0.1237  0.1214
32612W        W48421   2.414   5.128   0.913  0.0496  0.0425 -0.0993
32613W        W48422   8.929   4.671  13.642  0.2736 -0.3073 -0.0097
32614W        W48423   2.218  13.068   3.354  0.1446 -0.2762  0.3685
32615W        W48424   1.955  11.134   3.376 -0.1287  0.2800  0.1633
32616W        W48425  10.580  11.271   1.897  0.3168  0.4132  0.0200
32617W        W48426  13.283   6.967  13.981  0.0274  0.1394 -0.3094
32618W        W48427  13.265   1.103  12.057 -0.2590 -0.1472 -0.0466
32619W        W48428  11.888  18.000   4.173 -0.1028 -0.2152 -0.0358
32620W        W48429   7.942   5.727  12.648 -0.1110  0.0553  0.0521
32621W        W48430   0.634   8.740   4.753 -0.1578 -0.3372  0.0231
32622W        W48431  14.398  14.872  12.314  0.0700  0.5180  0.0273
32623W        W48432   2.948   0.328   3.851  0.2130  0.1317  0.1089
32624W        W48433   8.745  12.701   3.104 -0.2143  0.0773  0.2001
32625W        W48434   7.493  15.389   3.491 -0.0120 -0.1149  0.3464
32626W        W48435  13.160  14.866   0.120 -0.0134  0.0067  0.0184
32627W        W48436   2.957   3.566  12.002 -0.3372 -0.2230 -0.0629
32628W        W48437  14.412  10.466   4.941 -0.1854 -0.0608  0.2553
32629W        W48438  16.885  13.908  10.889  0.3017 -0.3329  0.3244
32630W        W48439   3.483  13.410  12.672  0.0674 -0.1329 -0.0797
32631W        W48440   1.507  14.667   0.023  0.2913  0.1897 -0.0698
32632W        W48441   3.692  16.718  12.176 -0.2676  0.2281  0.2525
32633W        W48442   8.669  12.342   5.933  0.0487  0.1868 -0.1347
32634W        W48443  12.835   0.630   4.332  0.0406 -0.0547  0.2751
32635W        W48444   8.935   1.201  11.883  0.1467  0.0295 -0.1900
32636W        W48445   8.751  16.829  12.922 -0.1542 -0.0577  0.2130
32637W        W48446   7.321   7.341   3.715  0.0579  0.1567 -0.0011
32638W        W48447  15.465  12.488  14.565 -0.2336 -0.1956 -0.2050
32639W        W48448   8.746   4.135   1.651 -0.0860  0.0916  0.2107
32640W        W48449   1.973  12.787  12.313 -0.0558  0.3245 -0.0113
32641W        W48450   0.916   2.571   3.591  0.0938  0.0282  0.0908
32642W        W48451  17.958   6.428  11.529 -0.1299 -0.0152  0.1515
32643W        W48452   7.719   4.642  12.337  0.0397 -0.1510  0.1273
32644W        W48453  12.504  12.932  13.532  0.1133  0.3585  0.5308
32645W        W48454   0.428  10.445  15.417 -0.0958 -0.0537 -0.0955
32646W        W48455   7.944  14.626   1.803  0.3504 -0.1063  0.3395
32647W        W48456   8.826  14.190   3.307  0.1191 -0.2338 -0.0677
32648W        W48457   5.796   7.625  14.101 -0.0248 -0.0292  0.1052
32649W        W48458   1.544  11.631   4.832  0.0828 -0.1101  0.1933
32650W        W48459   3.883  16.508   5.897  0.0134  0.0635 -0.2217
32651W        W48460  15.374   0.873   3.082  0.4056  0.0093  0.0598
32652W        W48461   4.860  18.354  14.595  0.0479  0.1431  0.1848
32653W        W48462   7.587  17.028  11.530 -0.0487  0.2289 -0.0378
32654W        W48463  11.017   6.625  13.646 -0.1801  0.1299 -0.2297
32655W        W48464   8.442   3.656   5.590 -0.2210 -0.0501  0.0011
32656W        W48465  16.978   9.523   2.111  0.1959 -0.0841  0.1763
32657W        W48466   3.940  10.860  13.903  0.0478  0.0483 -0.0418
32658W        W48467   9.532  16.158  14.444 -0.0720 -0.1988  0.1438
32659ION     NA48468   2.400   0.268   9.734  0.4137  0.0492 -0.2026
32660ION     NA48469  14.499  17.334   9.940  0.0925 -0.1505 -0.1340
32661ION     NA48470  18.121   8.505  10.075  0.1902  0.0404 -0.0514
32662ION     NA48471  10.669  12.184   9.971  0.0253  0.1558 -0.1745
32663ION     NA48472   5.947   6.348   9.665  0.2592 -0.0534  0.0771
32664ION     NA48473  10.300  17.208   9.687 -0.0527 -0.1474 -0.3435
32665ION     NA48474   5.766   8.370   9.439 -0.0742 -0.1270 -0.0472
32666ION     NA48475   6.944  12.019   9.703 -0.1357 -0.1077  0.1562
32667ION     NA48476   2.591   5.991   5.625  0.1039 -0.1214 -0.1481
32668ION     NA48477   3.964  18.469   0.320 -0.0279 -0.1544  0.1861
32669ION     NA48478   8.702  13.258   9.901 -0.3635  0.0012  0.2237
32670ION     NA48479   3.216  13.504   5.239 -0.1207  0.0341 -0.2430
32671ION     NA48480  11.267  11.412  10.022 -0.3590  0.1930  0.0637
32672ION     NA48481   0.583   1.283   3.884  0.3023  0.0972 -0.1407
32673ION     NA48482  14.893   3.435  13.529 -0.0626 -0.0598  0.1028
32674ION     NA48483  18.609   5.157  10.326  0.1111 -0.0657  0.1272
32675ION     NA48484   6.664  13.894  14.002 -0.2224 -0.3032  0.0531
32676ION     NA48485  13.925   0.282  10.011  0.2802  0.1759  0.3415
32677ION     NA48486   6.313   5.983   0.515 -0.0186 -0.1269 -0.0075
32678ION     NA48487   2.510  13.510   9.315  0.0517 -0.1893 -0.3422
32679ION     NA48488   6.646   6.281   9.627  0.0563  0.2022  0.4981
32680ION     NA48489   0.990   0.445   5.146 -0.0468  0.2682  0.0845
32681ION     NA48490   0.121  17.081   5.504 -0.2511  0.4534  0.0509
32682ION     NA48491   8.301   3.912  10.120  0.1617 -0.1794 -0.1650
32683ION     NA48492   0.006  16.757   3.523  0.0170 -0.2063  0.1885
32684ION     NA48493   7.650  15.955   9.943  0.0665 -0.1206 -0.0786
32685ION     NA48494   8.095   6.378   5.415  0.2327  0.1819  0.0705
32686ION     NA48495  10.887  11.136   3.719 -0.2579  0.0811  0.0335
32687ION     NA48496   2.107  18.727   9.585  0.0684  0.0772  0.0803
32688ION     NA48497   7.224  10.977   9.820 -0.3633  0.2280 -0.0927
32689ION     NA48498   1.047   4.712   9.897 -0.1904 -0.1038 -0.1506
32690ION     NA48499   4.756   3.375   9.905 -0.1090 -0.0332  0.0778
32691ION     NA48500   7.059   8.712   9.405  0.1590 -0.0034 -0.0232
32692ION     NA48501  14.355   4.556   4.997 -0.1784 -0.0271 -0.2547
32693ION     NA48502  16.476  11.064  10.063  0.1934  0.2311 -0.0794
32694ION     NA48503   7.917  16.526   5.182  0.0705  0.0451  0.1579
32695ION     NA48504   2.542   9.779  10.863 -0.1254  0.1689  0.0131
32696ION     NA48505  16.818   7.771   4.965  0.0850 -0.0501 -0.3579
32697ION     NA48506  14.054   0.618   5.636 -0.2508 -0.2499  0.0002
32698ION     NA48507  13.710  16.887   0.289  0.5119  0.1862 -0.3095
32699ION     NA48508   4.295  13.339   5.406 -0.0838  0.0125 -0.2295
32700ION     NA48509   1.043  10.550   9.867  0.4526  0.2273 -0.3497
32701ION     NA48510  10.395  18.131   9.725 -0.0311 -0.2084  0.0393
32702ION     NA48511   5.919   2.144  13.902  0.2150  0.0028  0.0038
32703ION     NA48512   5.792   9.503   3.871 -0.2573  0.2273 -0.2819
32704ION     NA48513  13.819   9.089  10.349 -0.0602 -0.0287 -0.2943
32705ION     NA48514  17.305  10.431  10.047 -0.2007 -0.1442 -0.2126
32706ION     NA48515   4.857   7.241   9.797  0.0161  0.1571  0.1525
32707ION     NA48516   1.182   2.743   9.983 -0.0483 -0.1280  0.1285
32708ION     NA48517  13.075   3.194   9.544 -0.1737  0.0157  0.2500
32709ION     NA48518   6.261   7.958   5.547  0.0869  0.2567 -0.0951
32710ION     NA48519  12.765  10.974  11.766 -0.1327  0.2447  0.3923
32711ION     NA48520  14.936  10.411   5.662 -0.0217  0.1119  0.1615
32712ION     NA48521   1.342   5.106   9.860 -0.0970  0.1789 -0.0935
32713ION     NA48522   6.749   1.841   5.519 -0.0588  0.0339  0.1311
32714ION     NA48523   2.309   3.034   9.847 -0.2088  0.2263  0.1762
32715ION     NA48524  15.647   5.377   3.792  0.0449  0.0409 -0.2505
32716ION     NA48525   1.046   0.430   9.920 -0.2270  0.4177 -0.1040
32717ION     NA48526   6.978   9.493   3.058  0.1772  0.3291 -0.1552
32718ION     NA48527  10.955   5.444  11.313  0.0349 -0.1899  0.1326
32719ION     NA48528  14.362   7.478  10.226 -0.0146 -0.1016  0.1878
32720ION     NA48529  10.644   7.223   5.581  0.2542 -0.1993 -0.0188
32721ION     NA48530   0.116  11.752  10.677 -0.1857 -0.1703 -0.0829
32722ION     NA48531   1.776   7.804   9.771  0.2314  0.2799  0.0243
32723ION     NA48532   8.037  11.432   9.822 -0.1479 -0.2078  0.0046
32724ION     NA48533  14.720  18.017  10.771 -0.0022  0.2206 -0.0581
32725ION     NA48534  13.169   0.240   5.582 -0.1383  0.4093  0.1912
32726ION     NA48535   3.431   4.837   1.589 -0.0248 -0.1518 -0.2428
32727ION     NA48536   3.939   3.835   1.285  0.0344 -0.1289 -0.0414
32728ION     NA48537   4.448  15.002   9.615 -0.0615 -0.1826  0.0207
32729ION     NA48538  10.039  18.138   5.253  0.1140  0.0745  0.3312
32730ION     NA48539   7.207   5.654   4.770 -0.0951  0.0126  0.2713
32731ION     NA48540   7.396  18.232   9.656  0.0301  0.3077 -0.1033
32732ION     NA48541  14.888   4.948  11.157  0.1402  0.1466 -0.3487
32733ION     NA48542   2.775  15.199   3.133  0.2444 -0.4231  0.3705
32734ION     NA48543   9.851   4.297   9.832  0.1178 -0.0293  0.0549
32735ION     NA48544  11.403  12.809   9.965 -0.1212 -0.1663 -0.2855
32736ION     NA48545  15.909   8.245  10.678  0.2117  0.2413  0.1971
32737ION     NA48546   9.888   0.269   3.785  0.2656  0.0909  0.0933
32738ION     NA48547  16.753  11.125  11.852  0.1263 -0.0606  0.3588
32739ION     NA48548   5.291  15.066   9.874 -0.1226 -0.0688 -0.2516
32740ION     NA48549   2.954  12.382   5.591  0.1239 -0.0718 -0.0720
32741ION     NA48550  11.769  11.718   5.629  0.1166  0.1676  0.1108
32742ION     NA48551  13.717   4.499   9.849 -0.1999  0.3412 -0.1167
32743ION     NA48552  13.242  11.108   3.759  0.1464  0.2319 -0.1849
32744ION     NA48553  13.732  17.034   9.941  0.0258  0.0744  0.0675
32745ION     NA48554   8.166   6.742   1.096 -0.1101 -0.2359  0.2427
32746ION     NA48555   8.445   5.760   9.598 -0.1555 -0.0357  0.1370
32747ION     NA48556   6.907  18.520   9.618 -0.1723  0.1697 -0.0137
32748ION     NA48557  13.929   2.815   9.801 -0.2539 -0.0351  0.0385
32749ION     NA48558   7.490   0.880   5.143  0.0926 -0.3751  0.1511
32750ION     NA48559  16.557   6.563  12.000  0.0054 -0.0915 -0.1305
32751ION     NA48560  12.168  15.985   9.978 -0.0721  0.1159  0.1002
32752ION     NA48561   0.213  12.558   9.857 -0.1475 -0.2416 -0.0257
32753ION     NA48562  18.390  13.987  14.219  0.0189 -0.0633 -0.1862
32754ION     NA48563   9.012   2.481   0.018  0.2064 -0.3700  0.0016
32755ION     NA48564   4.968   7.484  11.216  0.0289 -0.1297  0.1676
32756ION     NA48565   7.857   3.593  14.862 -0.0004  0.3985  0.2076
32757ION     NA48566  12.333  16.773   5.362 -0.0518  0.1539 -0.1170
32758ION     NA48567   3.416   2.765  12.523  0.0124  0.1106 -0.4197
32759ION     NA48568   7.835   8.182   2.952 -0.0374  0.1364  0.2996
32760ION     NA48569  13.652  16.232   4.394  0.0812  0.0433 -0.1068
32761ION     NA48570   8.501   1.368   9.823  0.0977 -0.1975  0.2936
32762ION     NA48571  16.288   3.486   9.942  0.1907 -0.1626 -0.0734
32763ION     NA48572  10.329  16.175   2.638 -0.2113  0.2569 -0.1758
32764ION     NA48573  11.091  15.599   5.611  0.1984 -0.2217 -0.0114
32765ION     NA48574  14.342  16.824  11.709  0.1455  0.2518 -0.0278
32766ION     NA48575   9.955  17.098  10.143  0.0714  0.3504  0.3113
32767ION     NA48576   0.200   0.297   5.249  0.0709  0.1045 -0.0044
32768ION     NA48577  16.256  14.625   5.783 -0.1411  0.3164  0.1563
32769ION     NA48578  12.935  14.908   3.515  0.2052 -0.5809  0.0144
32770ION     NA48579   0.319   0.085  10.079  0.2387 -0.0168 -0.3429
32771ION     NA48580  18.672  10.816   9.821  0.0777  0.2281 -0.2689
32772ION     NA48581  17.520  14.910   9.521 -0.2684 -0.0371  0.0375
32773ION     NA48582   4.911  17.634   0.285  0.2321  0.0545  0.2243
32774ION     NA48583   0.895   6.293   5.464  0.0626 -0.2373  0.0379
32775ION     NA48584   9.065   1.870   5.075 -0.1124  0.0899  0.1747
32776ION     NA48585  10.590   3.525   9.953 -0.2823  0.1535  0.0710
32777ION     NA48586   5.961   5.453   9.791  0.2677  0.3941  0.3711
32778ION     NA48587  16.743   0.244   5.553  0.0560  0.0967 -0.1424
32779ION     NA48588   8.496  11.834  11.271 -0.3593 -0.0714  0.2940
32780ION     NA48589   7.206  16.819   9.725  0.1321  0.0189 -0.0189
32781ION     NA48590  18.207   5.455   2.481  0.3766 -0.2485 -0.1232
32782ION     NA48591   3.905   0.145   9.678  0.0164  0.2196 -0.0281
32783ION     NA48592   8.866   4.686   4.162 -0.0850 -0.1141  0.0850
32784ION     NA48593   6.654  17.543  10.608 -0.2652  0.2157 -0.1094
32785ION     NA48594  16.506   4.146   9.698 -0.0808  0.1015 -0.0213
32786ION     NA48595  13.685  18.876   4.946  0.0272  0.0329  0.0404
32787ION     NA48596   0.250   0.202  10.946  0.1355  0.0911 -0.0999
32788ION     NA48597  14.176   9.994  12.843  0.2789 -0.0940 -0.0515
32789ION     NA48598  10.268   9.109   5.203  0.2514  0.0421  0.0559
32790ION     NA48599   1.007  12.212  12.463  0.2418 -0.1511 -0.2484
32791ION     NA48600   6.977  14.115   9.751  0.0245 -0.0878 -0.3683
32792ION     NA48601  16.119   5.600   5.381  0.0062 -0.4752 -0.0865
32793ION     NA48602   5.885  14.872   5.525 -0.1840  0.1076 -0.3088
32794ION     NA48603   8.377  14.810   5.562  0.0763  0.1048  0.3146
32795ION     NA48604  18.844   1.288  10.222 -0.3436 -0.2398 -0.1021
32796ION     NA48605   7.486  10.017   9.730 -0.1020 -0.3323  0.0360
32797ION     NA48606  10.041  15.336   5.674 -0.0668  0.1582  0.1012
32798ION     NA48607   8.176   0.519   9.458  0.5442 -0.1673 -0.2740
32799ION     NA48608  12.638   6.318   9.829 -0.0087 -0.3126  0.0170
32800ION     NA48609  12.514   1.980   4.583 -0.1596  0.0638  0.1834
32801ION     NA48610  18.173   6.123  10.238  0.0032  0.3679  0.1666
32802ION     NA48611   0.378   6.645  10.314 -0.0245 -0.0517 -0.0127
32803ION     NA48612   6.367   2.657   9.987  0.0093 -0.2552 -0.0266
32804ION     NA48613   2.346   6.768   9.871 -0.4142 -0.3562  0.0453
32805ION     NA48614   2.249  14.986   2.339  0.1022  0.3620 -0.1489
32806ION     NA48615   2.283   1.340   9.930 -0.3852  0.2058  0.1796
32807ION     NA48616   8.739  13.688  14.469 -0.1936 -0.0990 -0.1695
32808ION     NA48617  11.865   4.735  14.177  0.2176  0.1789  0.0622
32809ION     NA48618  17.904   1.149   0.336 -0.1492 -0.1911  0.0306
32810ION     NA48619   8.512   6.342   0.409 -0.1278  0.0905  0.2616
32811ION     NA48620  17.566   7.701   9.972 -0.0486 -0.0465 -0.1530
32812ION     NA48621  16.552   0.099  13.012 -0.1084  0.4165  0.3666
32813ION     NA48622  11.651   3.138  14.070 -0.6345 -0.1646  0.1396
32814ION     NA48623   5.221   4.911   9.817  0.0235  0.0716  0.1858
32815ION     NA48624  11.055   7.142  12.864  0.1510 -0.2773  0.2339
32816ION     NA48625  13.162   9.201  11.481 -0.1077 -0.3813  0.3319
32817ION     NA48626  10.367   4.464   9.779 -0.1117 -0.2373 -0.0094
32818ION     NA48627  11.264  18.523  14.699 -0.1123 -0.1108  0.1791
32819ION     NA48628   8.865   7.632   9.661 -0.0099  0.0460 -0.0837
32820ION     NA48629   6.732   0.402   9.713  0.0626  0.0493  0.2000
32821ION     NA48630  15.499  11.483  12.197  0.4130  0.2227  0.1083
32822ION     NA48631  17.196  11.901   9.730  0.1127  0.3458  0.2073
32823ION     NA48632  17.156   2.573   9.829  0.2001  0.3017  0.0288
32824ION     NA48633  12.699   5.857   5.166 -0.2549 -0.0836  0.2254
32825ION     NA48634   1.794   9.649  12.839  0.1563  0.1617 -0.0641
32826ION     NA48635   8.803  10.939   0.390  0.1687 -0.2878 -0.0201
32827ION     NA48636  15.735  10.507  10.001  0.2983 -0.0009 -0.0621
32828ION     NA48637  15.062   7.858   1.907  0.3813  0.2918  0.1063
32829ION     NA48638   9.013  11.400   5.710  0.0052  0.0360 -0.0229
32830ION     NA48639   4.308  16.159   5.144 -0.1766 -0.2465  0.0784
32831ION     NA48640   6.581   3.795   9.799 -0.1106  0.2369 -0.4109
32832ION     NA48641   6.835   5.115   9.691  0.1571  0.0655  0.2176
32833ION     NA48642  17.652   7.545   5.491 -0.3295 -0.0565 -0.1567
32834ION     NA48643   4.530   2.692   3.627  0.1051 -0.0740  0.2703
32835ION     NA48644  15.281  17.820   9.944 -0.1371 -0.2143  0.1005
32836ION     NA48645  17.709   2.295   3.893  0.1261  0.3714 -0.0818
32837ION     NA48646  16.018   5.579  10.869 -0.0997  0.5004  0.3074
32838ION     NA48647  11.208   9.891  11.034 -0.0532  0.3379 -0.0531
32839ION     NA48648  14.402  14.755   2.935 -0.1138  0.0324  0.1434
32840ION     NA48649  16.882   6.729   2.929 -0.0725  0.0827 -0.0257
32841ION     NA48650   9.131   2.445   5.919  0.0837  0.2364  0.1357
32842ION     NA48651   5.917   4.565  15.031  0.1325  0.2049 -0.1757
32843ION     NA48652  14.497  18.377  10.061 -0.3001 -0.0038  0.0677
32844ION     NA48653   8.313   4.425  15.274 -0.0186  0.1696  0.4111
32845ION     NA48654   3.726   1.043   9.815  0.0782 -0.1135 -0.2545
32846ION     NA48655   1.234  17.356   9.738  0.1481 -0.0337 -0.0215
32847ION     NA48656  12.573   3.245   2.036  0.1184  0.2378 -0.3375
32848ION     NA48657   5.353   7.539   9.656  0.0301  0.2130 -0.2124
32849ION     NA48658  13.903   7.086  10.187 -0.1158  0.2862  0.2544
32850ION     NA48659  15.282   7.550  10.115 -0.1853 -0.2439 -0.1098
32851ION     NA48660   8.967   8.258  15.313 -0.0116 -0.3124  0.2238
32852ION     NA48661  16.411   5.698   9.882 -0.0836 -0.1618 -0.2567
32853ION     NA48662   7.689   5.125   9.907  0.0431  0.3133  0.0923
32854ION     NA48663  11.630   8.234   5.472 -0.1900 -0.1018 -0.0127
32855ION     NA48664  14.604   0.902   9.895 -0.0724 -0.1978 -0.0464
32856ION     NA48665  13.110  17.852   0.407  0.1065 -0.2356  0.1582
32857ION     NA48666   7.246  13.007   9.619  0.4222  0.1443 -0.2781
32858ION     NA48667   0.292  10.017  10.108 -0.4178  0.0251  0.0996
32859ION     NA48668  11.543  16.517   9.743 -0.1597 -0.1755 -0.1803
32860ION     NA48669   7.708   1.596   5.474 -0.0992 -0.0696  0.2539
32861ION     NA48670  12.104  10.214   9.809  0.1273  0.1177  0.3528
32862ION     NA48671   4.357   8.536  10.904 -0.0174  0.4030 -0.3100
32863ION     NA48672   9.350  13.976   9.698 -0.0699 -0.4022  0.2732
32864ION     NA48673   3.726  16.349   9.426  0.0210  0.1236 -0.1967
32865ION     NA48674  18.286  14.337   9.504  0.1600  0.2468 -0.1726
32866ION     NA48675   4.962  17.102   5.703  0.1997  0.2388 -0.2594
32867ION     NA48676  12.447  17.738   5.569 -0.0817  0.0521  0.2731
32868ION     NA48677   4.282  13.803   9.515  0.1009  0.1185 -0.1474
32869ION     NA48678  15.923   2.202   2.993  0.0394 -0.1395 -0.4200
32870ION     NA48679  11.130  10.998   1.108 -0.0328 -0.1040  0.1734
32871ION     NA48680  14.571   9.185   3.665 -0.0061 -0.0263 -0.0544
32872ION     NA48681  10.910  13.282   4.621  0.0535  0.0336 -0.2761
32873ION     NA48682  13.853  13.719  10.308 -0.3018  0.1389 -0.0933
32874ION     NA48683  11.460   7.995  10.020 -0.1857 -0.0512 -0.1142
32875ION     NA48684   8.450  14.134  10.061  0.0229  0.0287 -0.3885
32876ION     NA48685   2.347  16.857  11.403  0.3675  0.3760 -0.5334
32877ION     NA48686   0.245  15.720   9.927  0.2727  0.0552 -0.0516
32878ION     NA48687  16.347  12.973   2.523  0.3272 -0.2149  0.1243
32879ION     NA48688  14.863  14.382   9.876 -0.1599  0.2151 -0.1448
32880ION     NA48689  18.247  15.846   9.932  0.2634 -0.1809  0.2718
32881ION     NA48690   7.522  12.593   9.898 -0.3371  0.1217  0.2069
32882ION     NA48691  11.466   8.868   9.996  0.0216 -0.3648 -0.0539
32883ION     NA48692  11.534  13.678   9.687 -0.1717  0.0886  0.2187
32884ION     NA48693   2.091   4.359  10.012 -0.2085 -0.2631 -0.0290
32885ION     NA48694   4.049   1.520   5.603 -0.0330  0.2347 -0.0209
32886ION     NA48695   9.192  16.991  10.005 -0.1353 -0.2005  0.1502
32887ION     NA48696  15.269  10.242  10.141 -0.1142 -0.2222 -0.0336
32888ION     NA48697  11.424  15.133   9.870  0.0816 -0.2230 -0.1753
32889ION     NA48698  12.250  12.521   9.795  0.3114 -0.3490  0.1460
32890ION     NA48699  15.639   3.997   9.885  0.0538  0.2239 -0.0065
32891ION     NA48700   2.935  18.870  10.687  0.0324  0.0985 -0.0081
32892ION     NA48701   2.618   7.465   3.066 -0.2963  0.0217  0.1290
32893ION     NA48702   1.172   6.349   9.832  0.1909  0.1531  0.3686
32894ION     NA48703   2.600  15.025   9.501 -0.1301  0.1615  0.2779
32895ION     NA48704  15.653  13.024   6.198 -0.0666  0.1283  0.1935
32896ION     NA48705   8.346   6.832   9.865  0.1991  0.3528 -0.1037
32897ION     NA48706   8.247  15.683  14.298  0.2329  0.0758  0.1794
32898ION     NA48707  15.797   4.552  10.853  0.0081 -0.5986 -0.0089
32899ION     NA48708  13.764  10.869  10.119 -0.0359 -0.0288  0.1231
32900ION     NA48709   7.265   2.858   9.902  0.2927  0.0204 -0.1304
32901ION     NA48710  13.067   4.051  11.717  0.3515 -0.0318  0.1169
32902ION     NA48711   2.815   4.094  10.030 -0.2009 -0.0551  0.1411
32903ION     NA48712  16.746   6.980   5.021 -0.1649 -0.3463  0.0962
32904ION     NA48713   8.583   8.987   9.771 -0.1707  0.1232 -0.0903
32905ION     NA48714   3.184  16.889   9.765  0.1873  0.1233 -0.0746
32906ION     NA48715   5.658  13.504  10.079 -0.2617 -0.0204 -0.0356
32907ION     NA48716   0.119   3.754  10.638  0.0247 -0.2153 -0.0698
32908ION     NA48717  17.942   6.713  10.149  0.0298 -0.0442  0.0481
32909ION     NA48718   2.201   2.448   5.243  0.3038 -0.1927  0.2537
32910ION     NA48719  11.059   8.607   0.821 -0.0454 -0.1860 -0.2099
32911ION     NA48720   0.976   9.015   2.104 -0.1004 -0.2415  0.0159
32912ION     NA48721  18.864   8.361  10.049  0.0176  0.0795  0.0022
32913ION     NA48722   4.723  13.024   9.784 -0.1226  0.0035  0.0919
32914ION     NA48723   6.748   8.397   9.736 -0.0820  0.2138 -0.1139
32915ION     NA48724   0.800  12.152   5.546  0.2237  0.0590  0.1967
32916ION     NA48725  17.258   4.752  10.128  0.0474 -0.0691 -0.1871
32917ION     NA48726  14.097  15.725   9.846 -0.0014 -0.0437  0.2280
32918ION     NA48727   7.162   7.703   9.628  0.3637  0.0028 -0.3514
32919ION     NA48728  14.584   4.585   0.543  0.1093 -0.2270  0.0830
32920ION     NA48729  12.942   3.903  10.072  0.1282 -0.0641 -0.0260
32921ION     NA48730  12.686   1.667   9.899  0.1769 -0.1286  0.0418
32922ION     NA48731   8.867  16.035   9.735  0.3012  0.3727  0.1175
32923ION     NA48732   4.090  11.179  11.773  0.1536  0.1101 -0.2778
32924ION     NA48733   3.293   7.804   9.630 -0.0523 -0.0072 -0.2859
32925ION     NA48734   3.617   5.611   5.391  0.0561 -0.4554  0.0687
32926ION     NA48735  10.655   9.738   5.663  0.2791  0.4657  0.2103
32927ION     NA48736  17.269   6.260   5.864  0.0263  0.1603  0.0664
32928ION     NA48737   4.361   9.110   5.238 -0.2594  0.0783  0.1325
32929ION     NA48738  11.027  14.316   0.925 -0.1073 -0.2239 -0.0362
32930ION     NA48739  16.390   4.078  11.511 -0.0624 -0.1947  0.2645
32931ION     NA48740  16.642  12.855   9.864 -0.0284 -0.0426 -0.2057
32932ION     NA48741   1.149  16.612   9.510 -0.3008 -0.0601 -0.1258
32933ION     NA48742   3.042   9.785   9.983 -0.0151  0.0688 -0.1317
32934ION     NA48743   4.705  16.535  10.616  0.1029 -0.0439 -0.1685
32935ION     NA48744   1.116  15.412   9.548 -0.1579 -0.2512  0.1658
32936ION     NA48745   3.134   2.301   5.474  0.0359  0.1117 -0.3049
32937ION     NA48746   1.198   9.044  11.496  0.0243  0.2970  0.0139
32938ION     NA48747   6.414   9.002  12.425 -0.0451  0.0344  0.1593
32939ION     NA48748   2.332  18.315   3.618  0.1951 -0.0874  0.1427
32940ION     NA48749  11.179   9.830  10.130 -0.1057  0.3702 -0.0235
32941ION     NA48750  16.522  13.346  11.688  0.0936 -0.1970 -0.2512
32942ION     NA48751   1.543  17.729   2.056  0.0481 -0.2102  0.1476
32943ION     NA48752   2.975  12.973   9.625 -0.0172  0.1303  0.0251
32944ION     NA48753  10.302  15.165  13.317  0.0513  0.1514 -0.0616
32945ION     NA48754  16.733   0.146   1.551 -0.1465  0.1241 -0.1973
32946ION     NA48755   7.165  12.748   1.004 -0.1301  0.0270  0.1641
32947ION     NA48756  13.017  10.734   9.757 -0.1672 -0.0235  0.3486
32948ION     NA48757  15.767   3.482   5.337 -0.1595  0.1482 -0.0510
32949ION     NA48758   4.419   0.100   9.989  0.0513 -0.1221  0.0857
32950ION     NA48759  17.609   2.962  15.094  0.1414 -0.3493 -0.2386
32951ION     NA48760   3.864  17.291   9.458 -0.2586  0.0605  0.0970
32952ION     NA48761  14.795   5.292  10.150 -0.0606 -0.0992 -0.0714
32953ION     NA48762  11.335  14.027  15.366 -0.2345 -0.2815 -0.2634
32954ION     NA48763   8.200  14.229  14.354 -0.1792  0.1250  0.0894
32955ION     NA48764  12.161  11.474   9.891 -0.0189  0.0370 -0.1943
32956ION     NA48765  13.045   2.618   9.809  0.1978 -0.0822  0.0022
32957ION     NA48766   6.617   6.143  10.148 -0.1181  0.1067  0.0633
32958ION     NA48767  13.053   7.246  10.249 -0.0545  0.0522  0.1451
32959ION     NA48768   0.785  14.521   9.788  0.1941 -0.3342 -0.0238
32960ION     NA48769  10.428  13.361   5.542 -0.0401 -0.1730  0.2169
32961ION     NA48770  13.367  10.499  13.314 -0.1305 -0.0500  0.1913
32962ION     NA48771  15.816   0.643  14.869 -0.1087  0.2087  0.0621
32963ION     NA48772   3.066   8.522   9.752  0.2522  0.0242 -0.2329
32964ION     NA48773   9.465  13.125  10.081 -0.1473  0.0927 -0.0025
32965ION     NA48774  12.784   1.563   5.399 -0.0783 -0.1930  0.0507
32966ION     NA48775   8.879   0.026  14.022  0.0280  0.0206  0.2013
32967ION     NA48776  18.155  13.152   9.897  0.2338  0.1797  0.1926
32968ION     NA48777  17.548  13.085   5.026 -0.1389  0.0387 -0.0991
32969ION     NA48778   6.718   1.320   9.881  0.0315 -0.0458  0.1402
32970ION     NA48779  16.526  11.509   5.592  0.0611 -0.1318  0.0050
32971ION     NA48780  18.897  11.829   9.718  0.2879 -0.4011 -0.1704
32972ION     NA48781  16.854   1.024   3.016 -0.3016 -0.0192 -0.1561
32973ION     NA48782   2.222   4.295   5.943  0.0754  0.0561  0.0523
32974ION     NA48783  13.625   8.098  10.286 -0.1040 -0.0815 -0.0205
32975ION     NA48784  12.747   8.640  13.312 -0.0431 -0.5117 -0.0788
32976ION     NA48785  11.496   3.811   0.115  0.2254  0.0029  0.0107
32977ION     NA48786  12.336  18.861   9.778  0.0548 -0.1579  0.0253
32978ION     NA48787  16.765  13.731  10.034 -0.3524 -0.1933  0.1988
32979ION     NA48788  17.783  13.535   9.820  0.1055 -0.0713 -0.0582
32980ION     NA48789  11.289   5.822  10.031  0.1835 -0.0981 -0.2293
32981ION     NA48790   1.287  13.215  10.430 -0.0747  0.0034 -0.1647
32982ION     NA48791   1.556  12.885  14.603 -0.0753 -0.2504 -0.0133
32983ION     NA48792  15.178  12.394   5.595 -0.0247 -0.1201 -0.1020
32984ION     NA48793   2.616   7.518   9.503  0.2930 -0.1133 -0.1349
32985ION     NA48794   8.615   6.823   9.408  0.0701 -0.0673  0.1803
32986ION     NA48795  13.593   1.904   9.921 -0.1165  0.1287  0.0330
32987ION     NA48796   3.928   2.459   5.518 -0.1158  0.1061  0.1382
32988ION     NA48797   9.053   2.994  10.134 -0.1106  0.0354  0.1416
32989ION     NA48798   0.800  15.587   3.031  0.1120  0.0974 -0.1823
32990ION     NA48799   5.686  17.524   4.578  0.1394  0.0075  0.2157
32991ION     NA48800  16.842  11.251   9.755 -0.2565  0.2364 -0.1943
32992ION     NA48801  13.812  12.234   9.857  0.1776  0.2647  0.2308
32993ION     NA48802  18.582  18.610  12.681  0.0825  0.1178  0.3281
32994ION     NA48803   5.936  12.206  10.714 -0.0062 -0.3271 -0.2624
32995ION     NA48804  12.259   8.983   5.411 -0.0582  0.2920 -0.1293
32996ION     NA48805   0.313   6.237   0.826 -0.1903  0.1136  0.2526
32997ION     NA48806  18.413  14.145   9.956  0.0657  0.2421  0.1622
32998ION     NA48807  14.905  15.226   1.334 -0.3836 -0.1452 -0.2703
32999ION     NA48808  16.528   8.769  10.142  0.2667  0.0666 -0.1900
33000ION     NA48809  12.172  10.985   9.836  0.1995 -0.3006 -0.0306
33001ION     NA48810   0.532  16.004   9.618  0.1431  0.0655  0.1948
33002ION     NA48811   6.498   7.120   9.569  0.0443  0.0855  0.0202
33003ION     NA48812   1.424   5.424  10.264 -0.0317  0.2099  0.1766
33004ION     NA48813  17.618  14.989  15.377  0.0670 -0.0756 -0.4060
33005ION     NA48814   4.125  10.189   9.683  0.1209  0.1676  0.0243
33006ION     NA48815  10.715  13.106  13.175 -0.2795  0.1826 -0.2407
33007ION     NA48816   4.039   3.818   9.736  0.0025  0.1090 -0.2996
33008ION     NA48817   1.438  16.153   9.434 -0.2843 -0.1751 -0.2206
33009ION     NA48818   9.771  10.521   9.993  0.2767  0.0878 -0.1431
33010ION     NA48819   2.023   5.977   9.815  0.0278 -0.1037 -0.1304
33011ION     NA48820  12.936  17.532   9.844  0.0961  0.2459 -0.0545
33012ION     NA48821   4.844  10.553   9.404 -0.1749 -0.0205  0.0070
33013ION     NA48822   9.951   5.936  10.426 -0.4814  0.1052  0.1089
33014ION     NA48823  14.374  14.868   5.257  0.1911 -0.2706  0.1485
33015ION     NA48824   0.762  11.267   0.441 -0.2037  0.1377 -0.0601
33016ION     NA48825   8.969   1.508   9.822 -0.0760  0.2967  0.0501
33017ION     NA48826   8.891  16.858   9.629  0.0751  0.0040  0.0736
33018ION     NA48827   4.438   4.689   9.960 -0.1316  0.1535  0.3726
33019ION     NA48828   9.645   5.407  14.736 -0.0904  0.0368  0.1861
33020ION     NA48829  16.771  18.158  13.410 -0.0783  0.0008 -0.0707
33021ION     NA48830   4.539   3.216   5.082 -0.1407 -0.2284  0.0501
33022ION     NA48831   8.951  14.967   9.818 -0.1909 -0.0544  0.1390
33023ION     NA48832  16.733   5.418   6.012  0.1330 -0.2698 -0.1293
33024ION     NA48833   6.699  14.575   5.581  0.4292  0.3216  0.1086
33025ION     NA48834   3.511  14.462   9.589 -0.0502  0.0484 -0.1709
33026ION     NA48835   5.615   8.936   5.040  0.1838  0.1545 -0.0520
33027ION     NA48836   4.199   6.438   9.545  0.0002  0.0978  0.3032
33028ION     NA48837   1.874  15.888  10.288 -0.0523  0.2968 -0.0746
33029ION     NA48838   5.973  16.551   5.639 -0.4884  0.1811  0.2413
33030ION     NA48839  16.157   2.695   3.069  0.2342  0.0705  0.0086
33031ION     NA48840   8.812   0.491   9.703 -0.0901  0.2525  0.2463
33032ION     NA48841  16.831   2.796   5.569  0.0765 -0.2790  0.2047
33033ION     NA48842   1.455  13.339   9.290 -0.1459  0.0437  0.0476
33034ION     NA48843   1.442   9.958   6.064  0.0858  0.6338 -0.0550
33035ION     NA48844  13.852   4.054   5.559  0.0449 -0.4007  0.0500
33036ION     NA48845  16.767   1.822  10.178  0.1686 -0.1371 -0.1772
33037ION     NA48846  12.641   9.663   9.979  0.0612 -0.1753 -0.0726
33038ION     NA48847  12.951   4.787   9.830  0.1371  0.1964  0.2240
33039ION     NA48848   6.084  14.331   9.714 -0.0499 -0.0455  0.0900
33040ION     NA48849   0.290   8.721   4.407  0.1888 -0.3403 -0.2858
33041ION     NA48850   0.668   9.629   5.917 -0.0058 -0.2645  0.1903
33042ION     NA48851  14.753  12.279   9.841  0.1455 -0.2376  0.0677
33043ION     NA48852   4.234   7.248   5.429  0.0650 -0.2903 -0.1281
33044ION     NA48853  16.421   6.360  10.617 -0.1487 -0.3643  0.1047
33045ION     NA48854  17.416  10.981   5.648  0.0344  0.4248 -0.3183
33046ION     NA48855  14.159  14.920   9.881  0.3643 -0.2811  0.0509
33047ION     NA48856  16.195   7.347  10.350  0.1739  0.1686  0.0150
33048ION     NA48857  14.605   3.954   9.653  0.0891  0.1189 -0.0032
33049ION     NA48858  10.688  18.659   9.808 -0.0771  0.0082  0.2882
33050ION     NA48859  17.086   6.223  10.093  0.2777 -0.1059 -0.3276
33051ION     NA48860  13.482  16.205  14.156  0.1345 -0.3021 -0.0855
33052ION     NA48861   0.574   8.437   0.013 -0.0531  0.1067  0.3471
33053ION     NA48862   4.566   9.473  11.575 -0.1520  0.2748  0.0746
33054ION     NA48863   7.574   3.489  11.435 -0.0068  0.1994 -0.0112
33055ION     NA48864   8.045   8.128   9.743 -0.1199  0.0547  0.0767
33056ION     NA48865  15.381  11.258   9.860  0.0020 -0.0454 -0.0741
33057ION     NA48866   3.349  11.136  14.668  0.2660 -0.0007 -0.1260
33058ION     NA48867  13.079   4.231   3.204  0.0834  0.0556 -0.1603
33059ION     NA48868   2.689   8.292   3.943 -0.1650  0.1116 -0.0465
33060ION     NA48869  10.506   4.392   4.421  0.1926 -0.2090  0.2747
33061ION     NA48870   1.315  18.883   5.462  0.0965  0.2987 -0.0111
33062ION     NA48871   6.006  11.793   9.889 -0.1242  0.0691  0.1492
33063ION     NA48872  18.365  18.707   9.962 -0.0610  0.0383  0.0494
33064ION     NA48873   7.724   7.719  13.879 -0.1571  0.1232  0.2242
33065ION     NA48874  13.476   0.808   5.439 -0.0809  0.1321 -0.3755
33066ION     NA48875  16.044  16.073   9.795  0.0997 -0.1205 -0.1796
33067ION     NA48876  13.949  18.855  14.093  0.1122  0.2046 -0.0992
33068ION     NA48877   1.886   5.051   1.164 -0.0644  0.2398  0.1939
33069ION     NA48878   5.762   6.792   4.606  0.1069  0.1082  0.7412
33070ION     NA48879  11.268  15.236   3.653 -0.1673  0.0029 -0.1483
33071ION     NA48880  12.851  17.137  12.133 -0.1647 -0.1866  0.0081
33072ION     NA48881   8.832  14.126  11.562 -0.1000  0.3126 -0.0151
33073ION     NA48882  10.604   8.658   9.899  0.1095 -0.0411  0.1261
33074ION     NA48883   1.460   2.057   1.572  0.5461  0.3389  0.0491
33075ION     NA48884   4.210   3.993   2.736  0.5389  0.0996 -0.2165
33076ION     NA48885  12.357  15.312   9.793  0.0553  0.2945  0.0571
33077ION     NA48886   4.019  10.788   9.404 -0.0681  0.3263  0.0245
33078ION     NA48887   7.566  11.452   1.202  0.1078 -0.0233 -0.2375
33079ION     NA48888   0.906  16.268  14.474  0.1809 -0.1378 -0.0114
33080ION     NA48889   5.545  10.138  10.779  0.0783  0.2066 -0.0589
33081ION     NA48890   1.192   7.902  12.463  0.1502 -0.0681 -0.2454
33082ION     NA48891   4.388  16.000   9.934  0.2928  0.1744  0.0800
33083ION     NA48892   8.746   2.861   2.133  0.2547  0.3499 -0.2452
33084ION     NA48893   2.219   8.361   1.981 -0.0197 -0.4016 -0.0454
33085ION     NA48894  11.847  13.421  14.846  0.0721 -0.1302 -0.1938
33086ION     NA48895   7.396   2.684  11.298  0.0832  0.0942  0.0312
33087ION     NA48896   9.309   8.512   9.864 -0.2287  0.3481  0.1729
33088ION     NA48897   4.607  17.455   9.849  0.0468 -0.0829 -0.1473
33089ION     NA48898  16.765  18.652   0.084 -0.1521 -0.3916  0.0075
33090ION     NA48899   9.358  18.737   9.653  0.2773 -0.0148  0.0561
33091ION     NA48900   9.034   9.626   5.366 -0.2360  0.0282  0.1468
33092ION     NA48901   2.722   5.054   9.935 -0.2403 -0.2611  0.0394
33093ION     NA48902   5.046   8.184  10.065 -0.0451  0.4697  0.0983
33094ION     NA48903   4.290   2.750   0.246  0.0317 -0.2549  0.0423
33095ION     NA48904   2.061  14.246   9.234 -0.0463 -0.0863  0.0312
33096ION     NA48905   7.462   9.506   9.658 -0.2291 -0.1165 -0.3730
33097ION     NA48906   1.800   4.609  13.046 -0.2243 -0.0065 -0.3335
33098ION     NA48907   7.685   0.361   9.481  0.0773 -0.0396 -0.3119
33099ION     NA48908  16.859  15.505   9.990 -0.0085 -0.1536 -0.0341
33100ION     NA48909   9.411  14.839   9.967 -0.2808 -0.1669 -0.0655
33101ION     NA48910  10.780  14.146   9.869 -0.1322  0.5066  0.1575
33102ION     NA48911   1.078  11.749   5.356  0.0917 -0.2375  0.0076
33103ION     NA48912   4.805  15.847   9.595  0.0039 -0.0009 -0.2941
33104ION     NA48913  10.053   5.291   9.859 -0.0148 -0.2447  0.0217
33105ION     NA48914  11.724   3.464  14.519 -0.0025  0.2457 -0.1257
33106ION     NA48915   4.970  16.647   9.774  0.1549  0.1515  0.0967
33107ION     NA48916  12.648   4.437   5.812  0.2432  0.2117 -0.0522
33108ION     NA48917   7.604  14.980  10.216 -0.0907 -0.0473 -0.1110
33109ION     NA48918  12.289  14.018   5.792  0.1990  0.1561 -0.1509
33110ION     NA48919   9.423   6.655  15.374 -0.0155 -0.2204  0.1226
33111ION     NA48920   6.101  16.307  12.626 -0.1133  0.2466  0.0910
33112ION     NA48921  11.089   7.555   0.963  0.0394 -0.0053  0.0402
33113ION     NA48922  14.470  11.513   9.937  0.1325 -0.0236  0.3314
33114ION     NA48923  10.426  15.150  10.209  0.1330  0.1177 -0.0732
33115ION     NA48924   4.978  14.130   9.647  0.1093 -0.0858 -0.1163
33116ION     NA48925   3.022  15.914   9.708 -0.1167  0.0067  0.2109
33117ION     NA48926  15.332  16.878  10.027 -0.2547  0.0172 -0.2703
33118ION     NA48927   4.502   9.616   9.786 -0.2675 -0.0423  0.1420
33119ION     NA48928   2.041  11.376   5.602  0.2714  0.1582 -0.1624
33120ION     NA48929  17.629  16.140   5.596  0.0790 -0.0810  0.0494
33121ION     NA48930  14.267  14.164   2.896  0.0363  0.1276  0.0521
33122ION     NA48931  16.415  18.526  10.136  0.3180 -0.2908 -0.2708
33123ION     NA48932  14.342  14.453  10.766 -0.0454  0.0772  0.3403
33124ION     NA48933   0.537  17.293   5.243 -0.0899 -0.0961  0.0481
33125ION     NA48934  17.313   4.201   4.603  0.1661 -0.3633  0.0727
33126ION     NA48935   4.681  15.639   1.391  0.0085  0.1086 -0.1148
33127ION     NA48936   8.517  17.752   9.678  0.3958 -0.3186 -0.1828
33128ION     NA48937  14.868   5.128   5.420 -0.1310  0.1141  0.0246
33129ION     NA48938  16.339  16.953  10.062  0.0180 -0.3374 -0.1852
33130ION     NA48939   7.281   4.323  10.079 -0.1414  0.0994 -0.1561
33131ION     NA48940   9.987   9.247   9.968 -0.2615 -0.0480 -0.0163
33132ION     NA48941   6.131   4.547   9.817  0.1366 -0.2325  0.2019
33133ION     NA48942  17.317   8.681  13.960 -0.4892  0.0475  0.0620
33134ION     NA48943   9.079  17.803   9.914  0.0732  0.5281 -0.3874
33135ION     NA48944   8.229  16.600   1.595 -0.0717  0.2401 -0.3651
33136ION     NA48945   0.745  13.161   4.627 -0.3155 -0.0412 -0.2479
33137ION     NA48946  17.836  14.417   5.210 -0.1949  0.0239 -0.0696
33138ION     NA48947   6.671   2.250  12.976 -0.1211 -0.2179 -0.1495
33139ION     NA48948  14.634  13.553   5.293  0.0792 -0.0195  0.0223
33140ION     NA48949   2.520   7.356   5.624 -0.2251  0.2804  0.2119
33141ION     NA48950   7.411  17.398   3.524 -0.1268 -0.2479 -0.0864
33142ION     NA48951   7.128  10.335   5.489  0.0789  0.1505  0.0916
33143ION     NA48952   2.400   4.055   1.084 -0.0472 -0.1255 -0.0425
33144ION     NA48953  10.229  18.279   3.436  0.5149 -0.0948 -0.2240
33145ION     NA48954  16.194  11.806   9.645 -0.2413 -0.1241  0.0015
33146ION     NA48955  12.177  14.621  10.020 -0.2375 -0.1980 -0.1623
33147ION     NA48956  10.900   1.757   5.545  0.0438  0.1470 -0.0592
33148ION     NA48957   6.381  17.178   9.396  0.1622 -0.1325  0.1487
33149ION     NA48958  10.303   0.626   9.900  0.0260  0.1033  0.2073
33150ION     NA48959  11.352  18.629   9.737  0.0756 -0.0228 -0.1251
33151ION     NA48960  16.710  17.703  10.159  0.0036  0.2745 -0.1716
33152ION     NA48961   2.579   1.127   5.026  0.1618 -0.1332 -0.1793
33153ION     NA48962   4.878   5.624   4.796  0.0998  0.1049  0.1093
33154ION     NA48963  11.963  17.231   0.697  0.0641 -0.0914  0.1850
33155ION     NA48964   0.959   9.008   5.312  0.4877  0.0923 -0.2441
33156ION     NA48965  10.844   1.755  10.077  0.0699 -0.0763 -0.3366
33157ION     NA48966   1.464  18.662   3.825 -0.3546 -0.1420 -0.2137
33158ION     NA48967   0.780   8.767  10.029 -0.0062  0.0265 -0.1687
33159ION     NA48968  13.961  18.299  14.750  0.0786 -0.1581  0.0172
33160ION     NA48969  18.723  17.826   5.512 -0.4113 -0.0368  0.2376
33161ION     NA48970  15.213   6.106   5.426  0.0272  0.1113  0.1287
33162ION     NA48971  14.731   5.535   4.383 -0.1667 -0.1319 -0.1996
33163ION     NA48972   8.994  16.982   3.607  0.0131  0.1987 -0.1266
33164ION     NA48973  11.643   9.821  10.007 -0.1094  0.2306 -0.2431
33165ION     NA48974  13.415   6.390  10.158 -0.1787 -0.1491 -0.1250
33166ION     NA48975  18.070   3.638  10.683  0.1792  0.3468 -0.0950
33167ION     NA48976   0.352   7.612   9.927  0.1323 -0.0504  0.0791
33168ION     NA48977  16.640   3.214   5.690  0.3311 -0.2187 -0.0113
33169ION     NA48978  10.107   1.885  10.912  0.3138  0.1311 -0.3464
33170ION     NA48979  14.911   2.983   9.871  0.1759 -0.0617 -0.0929
33171ION     NA48980   4.587  14.136  14.573  0.0072 -0.0003 -0.1153
33172ION     NA48981  17.137   0.140  10.093  0.0394 -0.2360  0.1575
33173ION     NA48982   3.446  13.631   9.576  0.1182  0.0060  0.2362
33174ION     NA48983  10.475   1.871  11.767 -0.1445 -0.1533  0.1063
33175ION     NA48984   4.944   8.823   9.690 -0.1008  0.2396  0.3772
33176ION     NA48985   3.161  18.391   9.668 -0.0963  0.0580  0.0025
33177ION     NA48986   2.038  15.780   9.466  0.3797 -0.0541 -0.1508
33178ION     NA48987   8.977   9.483   9.939  0.0099  0.1837 -0.1131
33179ION     NA48988  16.584  16.694  12.119  0.2986 -0.0991  0.0595
33180ION     NA48989   1.427  13.887   4.886 -0.1796  0.2161  0.1703
33181ION     NA48990  14.301   3.636  10.002  0.0387  0.2621  0.3539
33182ION     NA48991   2.570   5.842   9.688 -0.1443 -0.3120 -0.0687
33183ION     NA48992  11.065  11.983   4.391 -0.0053 -0.2234  0.0329
33184ION     NA48993   9.039  11.821   9.982 -0.3623 -0.0192 -0.0587
33185ION     NA48994   5.210   5.798   3.878 -0.0644  0.2284  0.2125
33186ION     NA48995  16.343   5.802   0.570 -0.2412 -0.1810 -0.2163
33187ION     NA48996  10.718   4.452   5.967  0.5542  0.0610 -0.2752
33188ION     NA48997   5.484   4.440  11.225 -0.0727  0.0371 -0.1332
33189ION     NA48998   7.546   8.302  11.895  0.1458  0.3691 -0.0539
33190ION     NA48999  14.922   2.204   9.743  0.0920 -0.0344  0.0012
33191ION     NA49000  12.326  12.622  11.668  0.0531  0.0525 -0.1365
33192ION     NA49001   0.039  12.986   3.706  0.2197 -0.1558 -0.1920
33193ION     NA49002  14.788  17.022   5.483  0.2106 -0.2276 -0.2682
33194ION     NA49003   1.755   1.690   5.651  0.0557  0.3907 -0.0798
33195ION     NA49004  12.843  16.613  13.514 -0.1944  0.1119 -0.1121
33196ION     NA49005  11.757   2.182   9.835  0.1404 -0.1887 -0.3242
33197ION     NA49006  15.727   2.603   9.979  0.1215 -0.1247  0.1760
33198ION     NA49007  15.725   8.147  11.862  0.0911 -0.2432  0.0434
33199ION     NA49008  14.611  10.597   3.881 -0.1673  0.3844  0.2938
33200ION     NA49009   1.248  15.556   5.273 -0.0039  0.1296 -0.1957
33201ION     NA49010   9.844  16.301   9.711  0.0953  0.2298  0.1834
33202ION     NA49011  10.260   7.304   9.975 -0.0083 -0.0585 -0.0392
33203ION     NA49012   0.586  10.317  10.401 -0.2384  0.1782 -0.1629
33204ION     NA49013   4.296   5.517   9.827  0.2345 -0.0149  0.0035
33205ION     NA49014  17.095  18.245   5.595  0.0632 -0.0947 -0.2170
33206ION     NA49015   3.026   7.070  13.076  0.3189  0.4077 -0.3586
33207ION     NA49016  17.394  14.145   9.462 -0.1335  0.1965 -0.0046
33208ION     NA49017   3.563  11.722   9.374  0.2549  0.3228  0.0008
33209ION     NA49018  18.279   2.313   2.495 -0.2794  0.0046 -0.0052
33210ION     NA49019   8.649   4.971  10.084  0.1701 -0.1185  0.1408
33211ION     NA49020   5.214  18.245   9.653 -0.3996  0.2757  0.1360
33212ION     NA49021  18.272  17.754  10.299 -0.0626 -0.0777  0.0311
33213ION     NA49022   3.353   6.053   9.347  0.2628  0.0335  0.1062
33214ION     NA49023  12.293  13.566  12.841 -0.0739  0.1044  0.2385
33215ION     NA49024   0.847  12.512  14.150  0.0622  0.1028  0.1394
33216ION     NA49025  10.774  13.326   9.854 -0.1401  0.3313 -0.3834
33217ION     NA49026  10.670  10.673   9.973 -0.0917  0.1835  0.0434
33218ION     NA49027   6.848   6.447  12.375 -0.2591 -0.3185  0.3114
33219ION     NA49028   4.471   4.884   4.470 -0.0098  0.1534  0.2217
33220ION     NA49029  14.977  15.202  10.046  0.0584  0.0543  0.0307
33221ION     NA49030  12.037   5.541   3.065 -0.1381 -0.1324 -0.3171
33222ION     NA49031  14.144   9.870  10.442  0.0587 -0.2266  0.0610
33223ION     NA49032  13.960   3.143  10.176  0.1127 -0.1339 -0.1411
33224ION     NA49033   6.863  14.706   5.087 -0.2097 -0.2059 -0.3445
33225ION     NA49034   4.931   3.763  14.276  0.0264  0.0305 -0.1464
33226ION     NA49035   5.595  16.463   1.686  0.1359 -0.1858  0.2054
33227ION     NA49036   5.874   2.670  10.067  0.1714  0.0899  0.3201
33228ION     NA49037  18.545  15.024  10.216  0.0640 -0.0525 -0.1329
33229ION     NA49038  16.795   0.278  10.492  0.0169 -0.0314  0.4962
33230ION     NA49039   8.548   8.284   9.746 -0.3242  0.4604 -0.0734
33231ION     NA49040   4.545  12.848   2.900  0.4152  0.1736  0.0704
33232ION     NA49041  10.361   1.098   1.774  0.1902  0.2501 -0.4904
33233ION     NA49042  10.515  10.239   5.642 -0.2002  0.0602  0.1568
33234ION     NA49043   3.380   6.926   9.679 -0.0774 -0.0022 -0.0832
33235ION     NA49044  14.062  13.960   9.805 -0.0793 -0.2152  0.1701
33236ION     NA49045   4.805  17.200  13.755 -0.2258  0.0830  0.2340
33237ION     NA49046   1.964  18.017  10.045 -0.2558 -0.0580  0.1352
33238ION     NA49047   7.184  15.481   5.340 -0.0337  0.2608 -0.0172
33239ION     NA49048  18.239   7.643  10.022  0.1651  0.3666  0.0588
33240ION     NA49049   1.000  12.052   9.808  0.1694  0.0301  0.2236
33241ION     NA49050   2.460   9.232   9.758  0.1848  0.1306  0.4606
33242ION     NA49051  16.654   7.814  10.196  0.4160  0.2251  0.0691
33243ION     NA49052   7.930   5.817  11.352  0.0244 -0.3059  0.2953
33244ION     NA49053  16.026   1.275   9.948  0.0279  0.3278  0.1413
33245ION     NA49054  16.654   2.622   4.171 -0.0624 -0.1915  0.0878
33246ION     NA49055   7.938  14.098   9.952 -0.1694  0.3528  0.0490
33247ION     NA49056   9.723  12.379  10.079 -0.1068  0.1361  0.0631
33248ION     NA49057   2.458   5.801  12.312  0.0110 -0.3163 -0.0812
33249ION     NA49058  12.161   0.819  10.031 -0.1340  0.1416  0.0634
33250ION     NA49059  17.971  18.254   3.853  0.1535 -0.1131 -0.2661
33251ION     NA49060   1.752   8.670   9.764 -0.2092 -0.0975 -0.2862
33252ION     NA49061  11.803  10.002   3.469  0.1402 -0.1275  0.1273
33253ION     NA49062   9.398   7.835  10.254  0.4497 -0.2323 -0.1686
33254ION     NA49063   6.342  12.202   4.880  0.2229 -0.1145  0.1525
33255ION     NA49064  13.063   4.914  11.603  0.0094  0.1388  0.3615
33256ION     NA49065  15.014   1.721   5.587 -0.1801  0.1046 -0.0054
33257ION     NA49066   5.052  11.704   9.989 -0.1118  0.2045 -0.2551
33258ION     NA49067   5.109   2.943  11.479  0.2412 -0.1269 -0.0976
33259ION     NA49068  18.825  16.405  10.374 -0.1736  0.0532  0.0077
33260ION     NA49069   6.258  15.328   9.847 -0.0406  0.2024  0.0098
33261ION     NA49070  17.504   0.897   0.564 -0.1291 -0.0069  0.2706
33262ION     NA49071   7.737  17.358   9.671  0.1071 -0.0110  0.3267
33263ION     NA49072   7.857   1.938  15.146  0.0842  0.3407  0.0271
33264ION     NA49073   7.768  17.768   0.748  0.2716 -0.1542 -0.1283
33265ION     NA49074  11.785   5.471  10.215 -0.1275 -0.2966  0.0226
33266ION     NA49075  12.089  17.491   9.941 -0.1055 -0.2098 -0.1560
33267ION     NA49076  10.312  11.527   5.739 -0.2095 -0.0718  0.2948
33268ION     NA49077   6.885  16.652  11.096  0.0812  0.0777  0.1015
33269ION     NA49078  10.585   0.016   5.321  0.1496  0.0514  0.0984
33270ION     NA49079  17.610   0.604  12.270  0.2083 -0.0638 -0.0524
33271ION     NA49080   5.847   6.653   5.400  0.1029  0.4042 -0.2308
33272ION     NA49081  13.287  11.789   5.411  0.0358 -0.4837 -0.1697
33273ION     NA49082  11.110   8.642  11.591 -0.0533  0.1602 -0.1251
33274ION     NA49083  18.070  12.281   9.966 -0.2391 -0.1156  0.0530
33275ION     NA49084  15.743  13.832   9.834 -0.0282  0.0049  0.1044
33276ION     NA49085   6.627  15.953   9.847  0.2203 -0.0044 -0.2462
33277ION     NA49086   2.806  10.895   2.165  0.2583  0.0032  0.0768
33278ION     NA49087   0.489   2.586   4.593 -0.0482  0.1236  0.0415
33279ION     NA49088   3.840   2.020  10.038 -0.3521 -0.3942 -0.1638
33280ION     NA49089  18.698   4.413   5.315  0.2366  0.0220 -0.1831
33281ION     NA49090  11.294  10.473  13.439 -0.1853 -0.0810  0.2535
33282ION     NA49091  18.319   2.231  10.005 -0.4012  0.1907  0.0582
33283ION     NA49092  12.829   8.093  10.126  0.0917 -0.3958  0.1062
33284ION     NA49093  16.390   2.245   1.978  0.2197 -0.0348  0.2860
33285ION     NA49094  10.779   5.789  10.004 -0.2696  0.4172  0.1160
33286ION     NA49095  13.321  14.562   4.827 -0.3179 -0.4308 -0.1059
33287ION     NA49096   7.343  12.691  11.950 -0.3448 -0.1807 -0.1796
33288ION     NA49097   8.883  10.772   9.781 -0.2832 -0.0520 -0.1663
33289ION     NA49098  14.771   8.255  14.576  0.4940 -0.1571  0.2397
33290ION     NA49099  15.061   1.685  12.001  0.2447 -0.1417 -0.0302
33291ION     NA49100  13.348  17.266   4.106 -0.0070  0.0368  0.2034
33292ION     NA49101  13.067   0.448   9.974  0.0397  0.0166  0.1505
33293ION     NA49102  12.684   6.164   3.567 -0.2658  0.1835 -0.1042
33294ION     NA49103   4.509  17.802  12.013 -0.0909 -0.2864 -0.0651
33295ION     NA49104   6.613   3.543   4.802 -0.0981 -0.1020 -0.3169
33296ION     NA49105  14.920   0.344   9.724  0.0509  0.2027  0.1219
33297ION     NA49106   1.677  15.039   9.413 -0.2198 -0.0507 -0.0095
33298ION     NA49107   9.254   5.691  10.144  0.0617  0.0120  0.1284
33299ION     NA49108   3.101   2.772  10.377 -0.1604 -0.3977 -0.2875
33300ION     NA49109  12.529  16.662   9.858 -0.0639 -0.1522 -0.2168
33301ION     NA49110  11.821   6.380   9.742  0.1772 -0.1718 -0.2338
33302ION     NA49111   0.372   2.085   9.779 -0.0021  0.0927 -0.2214
33303ION     NA49112   2.329   9.744   3.309 -0.1376 -0.0256 -0.0780
33304ION     NA49113   1.053   8.336   9.953  0.1735  0.1405  0.1561
33305ION     NA49114   1.262   3.787  10.160  0.0215 -0.2071 -0.1017
33306ION     NA49115  13.353   2.949   3.828  0.1075 -0.1339  0.1155
33307ION     NA49116  15.974  15.195   9.885  0.2764 -0.0968  0.2060
33308ION     NA49117  13.688   3.026   5.575  0.1937 -0.1468  0.1716
33309ION     NA49118  15.991   9.597  10.251 -0.2505  0.0023 -0.1501
33310ION     NA49119   3.343  14.826  14.769 -0.1087 -0.0459 -0.0169
33311ION     NA49120  10.923  15.681   9.918 -0.2209  0.1690  0.0597
33312ION     NA49121  15.712  16.920   5.684  0.2067 -0.4105  0.1441
33313ION     NA49122  12.567  13.461   9.781  0.2577 -0.1540 -0.1422
33314ION     NA49123   4.026   2.890   9.820  0.0406  0.0963  0.2347
33315ION     NA49124  12.845   3.579  10.821 -0.0178 -0.1874 -0.0285
33316ION     NA49125   5.950   4.183   3.670  0.0343 -0.1806  0.1622
33317ION     NA49126   4.147   8.829  10.120 -0.0462 -0.2021  0.1665
33318ION     NA49127   6.366   9.210   9.590 -0.1568  0.0533 -0.0096
33319ION     NA49128   3.278   0.279   9.520  0.0949  0.2676 -0.1599
33320ION     NA49129   1.955  16.861   9.404 -0.0348 -0.3388 -0.0387
33321ION     NA49130   2.417   4.878   2.307 -0.0286 -0.3274  0.0456
33322ION     NA49131   4.405  14.741  11.545  0.0666  0.2553  0.1141
33323ION     NA49132   6.040   9.105   1.752  0.0585 -0.1123 -0.0194
33324ION     NA49133  10.564   3.794  12.407 -0.0687 -0.1408 -0.1854
33325ION     NA49134   7.327   1.636  12.057  0.0464 -0.2990 -0.0100
33326ION     NA49135  17.187   6.913  13.533 -0.0767 -0.0835 -0.0715
33327ION     NA49136  15.462   6.775  10.051  0.2472 -0.0698  0.0379
33328ION     NA49137   0.781  12.889   9.620  0.3286 -0.2732 -0.3936
33329ION     NA49138   3.150   1.488  14.655 -0.0360 -0.3490  0.0646
33330ION     NA49139  10.334   6.903  10.699  0.0413  0.1473 -0.3362
33331ION     NA49140  11.799   7.150  10.442 -0.1938 -0.2674 -0.0810
33332ION     NA49141   7.817   5.248  12.542  0.0001 -0.1695  0.0098
33333ION     NA49142  16.519  12.565   1.735  0.3639 -0.0323 -0.1871
33334ION     NA49143  15.448  18.810   9.918 -0.0156 -0.0774  0.0159
33335ION     NA49144   2.229   5.421  14.323 -0.1776 -0.0519 -0.1048
33336ION     NA49145   9.505   8.929   5.781  0.1996  0.2610  0.1618
33337ION     NA49146  13.956  12.405  10.718  0.2179  0.3023 -0.0954
33338ION     NA49147   6.358  10.144   9.633  0.3569  0.2173 -0.1081
33339ION     NA49148   2.722  14.291   9.953 -0.2715 -0.0075 -0.4198
33340ION     NA49149   5.717  10.683   9.363 -0.0167 -0.3271 -0.1161
33341ION     NA49150   5.322  18.694   4.069 -0.0237 -0.3163  0.2070
33342ION     NA49151  12.791  16.133   3.412  0.0751 -0.1496 -0.3230
33343ION     NA49152   2.028  12.587   9.423  0.1113  0.1130 -0.1693
33344ION     NA49153  15.380  12.101   9.994 -0.2988  0.0219 -0.0096
33345ION     NA49154   9.556   2.304  10.106 -0.1921 -0.1017  0.1920
33346ION     NA49155  18.041  18.778  12.701 -0.2953  0.3288  0.2343
33347ION     NA49156  18.803   6.921  10.322  0.0667  0.2395 -0.0395
33348ION     NA49157   9.353   0.815   9.712 -0.0591  0.0486  0.0101
33349ION     NA49158  11.055  14.666   5.544  0.2056 -0.0684 -0.1377
33350ION     NA49159  11.318   4.619   4.652 -0.3365  0.1113 -0.0795
33351ION     NA49160   5.075   7.805   2.723  0.1393  0.4583  0.0478
33352ION     NA49161   4.700   1.052   9.964  0.0380  0.0297  0.3580
33353ION     NA49162   5.479  17.395   9.540 -0.0233 -0.0037  0.1042
33354ION     NA49163  17.172   3.841   9.886  0.0748 -0.0564  0.2460
33355ION     NA49164   5.437   9.535   9.599  0.1115  0.0275  0.1959
33356ION     NA49165   1.547   1.188   9.574  0.4750  0.0765  0.1262
33357ION     NA49166  16.413   4.901  13.941  0.1541 -0.1769 -0.2907
33358ION     NA49167  18.667  14.868   3.577 -0.2034 -0.1780 -0.0571
33359ION     NA49168  12.540   0.731   5.702  0.0126  0.1333  0.1496
33360ION     NA49169   8.181  10.123   9.928 -0.1700 -0.0060  0.4232
33361ION     NA49170  14.250   8.281   5.437  0.1241  0.1660  0.2197
33362ION     NA49171  12.403   7.714   3.167 -0.4042  0.1685  0.0672
33363ION     NA49172   0.087   6.502   4.372  0.3243 -0.0723  0.2154
33364ION     NA49173  18.240   3.686   4.808  0.2584 -0.1414 -0.0174
33365ION     NA49174   8.402  18.570   9.546  0.0549  0.1101 -0.2160
33366ION     NA49175  12.235   4.233   4.707 -0.0669 -0.0964 -0.1792
33367ION     NA49176  10.786  17.569   1.031 -0.0342 -0.1834  0.3601
33368ION     NA49177   2.378   0.383   4.118 -0.0114 -0.1003  0.0156
33369ION     NA49178   9.947   2.852   9.997  0.2242  0.1196  0.0312
33370ION     NA49179  11.226   0.999   9.743 -0.1524  0.1402 -0.0633
33371ION     NA49180   4.027   7.794   0.813 -0.0775  0.3710 -0.0655
33372ION     NA49181   2.404   0.807   5.413 -0.3024 -0.0147  0.2455
33373ION     NA49182  17.439   8.360  10.045 -0.1437  0.1424  0.2054
33374ION     NA49183   5.904   1.768  10.031 -0.0022 -0.1198  0.0711
33375ION     NA49184   7.860   2.952  10.523  0.1743 -0.0916  0.0400
33376ION     NA49185   5.453   4.242   5.442  0.0940 -0.3079 -0.1540
33377ION     NA49186  11.272   3.002   9.849  0.0050  0.2234 -0.0105
33378ION     NA49187   3.413  14.019  10.996  0.2545 -0.1622 -0.3482
33379ION     NA49188   7.009   3.231  15.269  0.0320  0.0860  0.1265
33380ION     NA49189   8.188  16.788  10.032  0.0310 -0.4148  0.3750
33381ION     NA49190   4.454   0.262   3.599  0.0195  0.0081 -0.0738
33382ION     NA49191   1.556   1.906   9.839 -0.0316  0.2677  0.1056
33383ION     NA49192   7.268   4.448   5.394  0.2014 -0.2474 -0.2169
33384ION     NA49193   0.028  18.075   9.852 -0.0220 -0.0992  0.1785
33385ION     NA49194   1.871  18.015   9.481 -0.0741 -0.1389 -0.1193
33386ION     NA49195  17.076   2.286  11.239 -0.0273 -0.0772 -0.1663
33387ION     NA49196  18.306   2.903   9.863  0.1154 -0.0505 -0.2242
33388ION     NA49197   5.837  14.561  10.548  0.0798  0.2821 -0.1200
33389ION     NA49198  13.222  15.597  10.054 -0.2535 -0.1359 -0.2741
33390ION     NA49199  13.099  11.982   9.739 -0.0801  0.2378  0.2583
33391ION     NA49200   6.492  12.572   9.620  0.2609  0.0622  0.2302
33392ION     NA49201   7.405   1.882   9.939  0.0839 -0.2096 -0.0222
33393ION     NA49202  11.612   3.320  10.043  0.1276  0.1256 -0.1680
33394ION     NA49203   3.674  14.368   5.476  0.4123  0.3289  0.2141
33395ION     NA49204   2.877  10.977  12.051 -0.0303 -0.0615 -0.1339
33396ION     NA49205   7.706  18.462   2.857  0.1579 -0.4256 -0.0732
33397ION     NA49206   5.594   1.052  10.142  0.1970 -0.3252  0.1936
33398ION     NA49207  16.137   4.831  10.150  0.0135  0.0267 -0.2786
  18.91913  18.91913  15.43985
